Authorization required, but no authorization protocol specified

Authorization required, but no authorization protocol specified

Authorization required, but no authorization protocol specified

Authorization required, but no authorization protocol specified

Authorization required, but no authorization protocol specified

Authorization required, but no authorization protocol specified

Authorization required, but no authorization protocol specified

Authorization required, but no authorization protocol specified

Authorization required, but no authorization protocol specified

Authorization required, but no authorization protocol specified

Authorization required, but no authorization protocol specified

Authorization required, but no authorization protocol specified

Authorization required, but no authorization protocol specified

Authorization required, but no authorization protocol specified

Authorization required, but no authorization protocol specified

Authorization required, but no authorization protocol specified

Authorization required, but no authorization protocol specified

Authorization required, but no authorization protocol specified


     Program PWSCF v.7.2 starts on 12Jul2025 at 14:29:57 

     This program is part of the open-source Quantum ESPRESSO suite
     for quantum simulation of materials; please cite
         "P. Giannozzi et al., J. Phys.:Condens. Matter 21 395502 (2009);
         "P. Giannozzi et al., J. Phys.:Condens. Matter 29 465901 (2017);
         "P. Giannozzi et al., J. Chem. Phys. 152 154105 (2020);
          URL http://www.quantum-espresso.org", 
     in publications or presentations arising from this work. More details at
     http://www.quantum-espresso.org/quote

     Parallel version (MPI), running on    16 processors

     MPI processes distributed on     1 nodes
     45110 MiB available memory on the printing compute node when the environment starts

     Reading input from /home/jvc/QEspresso7.2/ZnO_database/scripts/cell211_strain10%.in/ZnO-3.20-1.78-211.in
Warning: card &CELL ignored
Warning: card / ignored
Warning: card &FCP ignored
Warning: card / ignored
Warning: card &RISM ignored
Warning: card / ignored

     Current dimensions of program PWSCF are:
     Max number of different atomic species (ntypx) = 10
     Max number of k-points (npk) =  40000
     Max angular momentum in pseudopotentials (lmaxx) =  4
     file Zn.upf: wavefunction(s)  3D renormalized
     Found identity + ( -0.5000  0.0000  0.0000) symmetry
     This is a supercell, fractional translations are disabled
     Message from routine setup:
     using ibrav=0 with symmetry is DISCOURAGED, use correct ibrav instead

     K-points division:     npool     =       2
     R & G space division:  proc/nbgrp/npool/nimage =       8
     Subspace diagonalization in iterative solution of the eigenvalue problem:
     a serial algorithm will be used


     Parallelization info
     --------------------
     sticks:   dense  smooth     PW     G-vecs:    dense   smooth      PW
     Min         252     127     40                11542     4083     720
     Max         253     128     41                11547     4084     723
     Sum        2021    1017    321                92357    32665    5767

     Using Slab Decomposition



     bravais-lattice index     =            0
     lattice parameter (alat)  =      12.1106  a.u.
     unit-cell volume          =     682.8971 (a.u.)^3
     number of atoms/cell      =            8
     number of atomic types    =            2
     number of electrons       =        72.00
     number of Kohn-Sham states=           36
     kinetic-energy cutoff     =      50.0000  Ry
     charge density cutoff     =     400.0000  Ry
     scf convergence threshold =      1.0E-08
     mixing beta               =       0.3000
     number of iterations used =            8  plain     mixing
     Exchange-correlation= PBE
                           (   1   4   3   4   0   0   0)

     celldm(1)=  12.110554  celldm(2)=   0.000000  celldm(3)=   0.000000
     celldm(4)=   0.000000  celldm(5)=   0.000000  celldm(6)=   0.000000

     crystal axes: (cart. coord. in units of alat)
               a(1) = (   1.000000   0.000000   0.000000 )  
               a(2) = (  -0.250000   0.433013   0.000000 )  
               a(3) = (   0.000000   0.000000   0.887897 )  

     reciprocal axes: (cart. coord. in units 2 pi/alat)
               b(1) = (  1.000000  0.577350 -0.000000 )  
               b(2) = (  0.000000  2.309401  0.000000 )  
               b(3) = (  0.000000 -0.000000  1.126257 )  


     PseudoPot. # 1 for Zn read from file:
     /home/jvc/QEspresso7.2/ZnO_database/pseudos/Zn.upf
     MD5 check sum: 7f56cabf9682ed8c977c2f7d0c5985c5
     Pseudo is Ultrasoft + core correction, Zval = 12.0
     Generated using &quot;atomic&quot; code by A. Dal Corso  v.6.2.2
     Using radial grid of 1201 points,  6 beta functions with: 
                l(1) =   0
                l(2) =   0
                l(3) =   1
                l(4) =   1
                l(5) =   2
                l(6) =   2
     Q(r) pseudized with 0 coefficients 


     PseudoPot. # 2 for O  read from file:
     /home/jvc/QEspresso7.2/ZnO_database/pseudos/O.upf
     MD5 check sum: 91400c9766925bcf19f520983a725ff0
     Pseudo is Ultrasoft + core correction, Zval =  6.0
     Generated using &quot;atomic&quot; code by A. Dal Corso  v.6.3MaX
     Using radial grid of 1095 points,  4 beta functions with: 
                l(1) =   0
                l(2) =   0
                l(3) =   1
                l(4) =   1
     Q(r) pseudized with 0 coefficients 


     atomic species   valence    mass     pseudopotential
        Zn            12.00    65.38000     Zn( 1.00)
        O              6.00    15.99900     O ( 1.00)

      2 Sym. Ops. (no inversion) found



   Cartesian axes

     site n.     atom                  positions (alat units)
         1           Zn  tau(   1) = (   0.0000000   0.0000000   0.0000000  )
         2           O   tau(   2) = (   0.0000000   0.2886751   0.1281196  )
         3           Zn  tau(   3) = (   0.0000000   0.2886751   0.4439485  )
         4           O   tau(   4) = (   0.0000000   0.0000000   0.5720681  )
         5           Zn  tau(   5) = (   0.5000000   0.0000000   0.0000000  )
         6           O   tau(   6) = (   0.5000000   0.2886751   0.1281196  )
         7           Zn  tau(   7) = (   0.5000000   0.2886751   0.4439485  )
         8           O   tau(   8) = (   0.5000000   0.0000000   0.5720681  )

     number of k points=    80
                       cart. coord. in units 2pi/alat
        k(    1) = (   0.0000000   0.0000000   0.0000000), wk =   0.0092593
        k(    2) = (   0.0000000   0.0000000   0.1877094), wk =   0.0185185
        k(    3) = (   0.0000000   0.0000000   0.3754189), wk =   0.0185185
        k(    4) = (   0.0000000   0.0000000  -0.5631283), wk =   0.0092593
        k(    5) = (   0.0000000   0.3849002   0.0000000), wk =   0.0370370
        k(    6) = (   0.0000000   0.3849002   0.1877094), wk =   0.0370370
        k(    7) = (   0.0000000   0.3849002   0.3754189), wk =   0.0370370
        k(    8) = (   0.0000000   0.3849002  -0.5631283), wk =   0.0370370
        k(    9) = (   0.0000000   0.7698004   0.0000000), wk =   0.0370370
        k(   10) = (   0.0000000   0.7698004   0.1877094), wk =   0.0370370
        k(   11) = (   0.0000000   0.7698004   0.3754189), wk =   0.0370370
        k(   12) = (   0.0000000   0.7698004  -0.5631283), wk =   0.0370370
        k(   13) = (   0.0000000  -1.1547005   0.0000000), wk =   0.0092593
        k(   14) = (   0.0000000  -1.1547005   0.1877094), wk =   0.0185185
        k(   15) = (   0.0000000  -1.1547005   0.3754189), wk =   0.0185185
        k(   16) = (   0.0000000  -1.1547005  -0.5631283), wk =   0.0092593
        k(   17) = (   0.1666667   0.0962250   0.0000000), wk =   0.0185185
        k(   18) = (   0.1666667   0.0962250   0.1877094), wk =   0.0185185
        k(   19) = (   0.1666667   0.0962250   0.3754189), wk =   0.0185185
        k(   20) = (   0.1666667   0.0962250  -0.5631283), wk =   0.0185185
        k(   21) = (   0.1666667   0.4811252   0.0000000), wk =   0.0370370
        k(   22) = (   0.1666667   0.4811252   0.1877094), wk =   0.0370370
        k(   23) = (   0.1666667   0.4811252   0.3754189), wk =   0.0370370
        k(   24) = (   0.1666667   0.4811252  -0.5631283), wk =   0.0370370
        k(   25) = (   0.1666667   0.8660254   0.0000000), wk =   0.0185185
        k(   26) = (   0.1666667   0.8660254   0.1877094), wk =   0.0370370
        k(   27) = (   0.1666667   0.8660254   0.3754189), wk =   0.0370370
        k(   28) = (   0.1666667   0.8660254  -0.5631283), wk =   0.0185185
        k(   29) = (   0.1666667  -1.0584755   0.0000000), wk =   0.0185185
        k(   30) = (   0.1666667  -1.0584755   0.1877094), wk =   0.0185185
        k(   31) = (   0.1666667  -1.0584755   0.3754189), wk =   0.0185185
        k(   32) = (   0.1666667  -1.0584755  -0.5631283), wk =   0.0185185
        k(   33) = (   0.1666667  -0.6735753   0.0000000), wk =   0.0370370
        k(   34) = (   0.1666667  -0.6735753   0.1877094), wk =   0.0370370
        k(   35) = (   0.1666667  -0.6735753   0.3754189), wk =   0.0370370
        k(   36) = (   0.1666667  -0.6735753  -0.5631283), wk =   0.0370370
        k(   37) = (   0.1666667  -0.2886751   0.0000000), wk =   0.0185185
        k(   38) = (   0.1666667  -0.2886751   0.1877094), wk =   0.0370370
        k(   39) = (   0.1666667  -0.2886751   0.3754189), wk =   0.0370370
        k(   40) = (   0.1666667  -0.2886751  -0.5631283), wk =   0.0185185
        k(   41) = (   0.3333333   0.1924501   0.0000000), wk =   0.0185185
        k(   42) = (   0.3333333   0.1924501   0.1877094), wk =   0.0185185
        k(   43) = (   0.3333333   0.1924501   0.3754189), wk =   0.0185185
        k(   44) = (   0.3333333   0.1924501  -0.5631283), wk =   0.0185185
        k(   45) = (   0.3333333   0.5773503   0.0000000), wk =   0.0185185
        k(   46) = (   0.3333333   0.5773503   0.1877094), wk =   0.0370370
        k(   47) = (   0.3333333   0.5773503   0.3754189), wk =   0.0370370
        k(   48) = (   0.3333333   0.5773503  -0.5631283), wk =   0.0185185
        k(   49) = (   0.3333333  -0.9622504   0.0000000), wk =   0.0185185
        k(   50) = (   0.3333333  -0.9622504   0.1877094), wk =   0.0185185
        k(   51) = (   0.3333333  -0.9622504   0.3754189), wk =   0.0185185
        k(   52) = (   0.3333333  -0.9622504  -0.5631283), wk =   0.0185185
        k(   53) = (   0.3333333  -0.5773503   0.0000000), wk =   0.0185185
        k(   54) = (   0.3333333  -0.5773503   0.1877094), wk =   0.0370370
        k(   55) = (   0.3333333  -0.5773503   0.3754189), wk =   0.0370370
        k(   56) = (   0.3333333  -0.5773503  -0.5631283), wk =   0.0185185
        k(   57) = (  -0.5000000  -0.2886751   0.0000000), wk =   0.0092593
        k(   58) = (  -0.5000000  -0.2886751   0.1877094), wk =   0.0185185
        k(   59) = (  -0.5000000  -0.2886751   0.3754189), wk =   0.0185185
        k(   60) = (  -0.5000000  -0.2886751  -0.5631283), wk =   0.0092593
        k(   61) = (  -0.5000000  -1.4433757   0.0000000), wk =   0.0092593
        k(   62) = (  -0.5000000  -1.4433757   0.1877094), wk =   0.0185185
        k(   63) = (  -0.5000000  -1.4433757   0.3754189), wk =   0.0185185
        k(   64) = (  -0.5000000  -1.4433757  -0.5631283), wk =   0.0092593
        k(   65) = (   0.3333333  -0.1924501  -0.1877094), wk =   0.0370370
        k(   66) = (   0.3333333  -0.1924501  -0.3754189), wk =   0.0370370
        k(   67) = (   0.6666667  -0.3849002  -0.1877094), wk =   0.0370370
        k(   68) = (   0.6666667  -0.3849002  -0.3754189), wk =   0.0370370
        k(   69) = (   0.1666667   0.0962250  -0.1877094), wk =   0.0185185
        k(   70) = (   0.1666667   0.0962250  -0.3754189), wk =   0.0185185
        k(   71) = (   0.5000000  -0.0962250  -0.1877094), wk =   0.0370370
        k(   72) = (   0.5000000  -0.0962250  -0.3754189), wk =   0.0370370
        k(   73) = (  -0.8333333   0.6735753  -0.1877094), wk =   0.0185185
        k(   74) = (  -0.8333333   0.6735753  -0.3754189), wk =   0.0185185
        k(   75) = (  -0.5000000   0.4811252  -0.1877094), wk =   0.0370370
        k(   76) = (  -0.5000000   0.4811252  -0.3754189), wk =   0.0370370
        k(   77) = (   0.3333333   0.1924501  -0.1877094), wk =   0.0185185
        k(   78) = (   0.3333333   0.1924501  -0.3754189), wk =   0.0185185
        k(   79) = (  -0.6666667   0.7698004  -0.1877094), wk =   0.0185185
        k(   80) = (  -0.6666667   0.7698004  -0.3754189), wk =   0.0185185

     Dense  grid:    92357 G-vectors     FFT dimensions: (  80,  40,  72)

     Smooth grid:    32665 G-vectors     FFT dimensions: (  60,  27,  50)

     Estimated max dynamical RAM per process >      39.93 MB

     Estimated total dynamical RAM >     616.26 MB

     Check: negative core charge=   -0.000002

     Initial potential from superposition of free atoms

     starting charge      71.9851, renormalised to      72.0000
     Starting wfcs are   52 randomized atomic wfcs

     total cpu time spent up to now is        4.6 secs

     Self-consistent Calculation

     iteration #  1     ecut=    50.00 Ry     beta= 0.30
     Davidson diagonalization with overlap
     ethr =  1.00E-02,  avg # of iterations =  1.8

     total cpu time spent up to now is        9.5 secs

     total energy              =    -722.92629503 Ry
     estimated scf accuracy    <       1.41743553 Ry

     iteration #  2     ecut=    50.00 Ry     beta= 0.30
     Davidson diagonalization with overlap
     ethr =  1.97E-03,  avg # of iterations =  2.0

     total cpu time spent up to now is       15.6 secs

     total energy              =    -723.14243282 Ry
     estimated scf accuracy    <       0.16838248 Ry

     iteration #  3     ecut=    50.00 Ry     beta= 0.30
     Davidson diagonalization with overlap
     ethr =  2.34E-04,  avg # of iterations =  6.6

     total cpu time spent up to now is       25.9 secs

     total energy              =    -723.19740441 Ry
     estimated scf accuracy    <       0.12136174 Ry

     iteration #  4     ecut=    50.00 Ry     beta= 0.30
     Davidson diagonalization with overlap
     ethr =  1.69E-04,  avg # of iterations =  8.4

     total cpu time spent up to now is       38.7 secs

     total energy              =    -723.26925400 Ry
     estimated scf accuracy    <       0.42568696 Ry

     iteration #  5     ecut=    50.00 Ry     beta= 0.30
     Davidson diagonalization with overlap
     ethr =  1.69E-04,  avg # of iterations =  2.0

     total cpu time spent up to now is       43.7 secs

     total energy              =    -723.07980547 Ry
     estimated scf accuracy    <       0.23634762 Ry

     iteration #  6     ecut=    50.00 Ry     beta= 0.30
     Davidson diagonalization with overlap
     ethr =  1.69E-04,  avg # of iterations = 10.5

     total cpu time spent up to now is       58.0 secs

     total energy              =    -723.13870695 Ry
     estimated scf accuracy    <       1.56040953 Ry

     iteration #  7     ecut=    50.00 Ry     beta= 0.30
     Davidson diagonalization with overlap
     ethr =  1.69E-04,  avg # of iterations =  6.9

     total cpu time spent up to now is       68.8 secs

     total energy              =    -723.24138510 Ry
     estimated scf accuracy    <       0.14167327 Ry

     iteration #  8     ecut=    50.00 Ry     beta= 0.30
     Davidson diagonalization with overlap
     ethr =  1.69E-04,  avg # of iterations =  1.9

     total cpu time spent up to now is       73.8 secs

     total energy              =    -723.23921954 Ry
     estimated scf accuracy    <       0.06041447 Ry

     iteration #  9     ecut=    50.00 Ry     beta= 0.30
     Davidson diagonalization with overlap
     ethr =  8.39E-05,  avg # of iterations =  4.2

     total cpu time spent up to now is       80.1 secs

     total energy              =    -723.24897713 Ry
     estimated scf accuracy    <       0.01922519 Ry

     iteration # 10     ecut=    50.00 Ry     beta= 0.30
     Davidson diagonalization with overlap
     ethr =  2.67E-05,  avg # of iterations =  5.2

     total cpu time spent up to now is       87.4 secs

     total energy              =    -723.25366646 Ry
     estimated scf accuracy    <       0.00487326 Ry

     iteration # 11     ecut=    50.00 Ry     beta= 0.30
     Davidson diagonalization with overlap
     ethr =  6.77E-06,  avg # of iterations =  3.3

     total cpu time spent up to now is       93.3 secs

     total energy              =    -723.25459368 Ry
     estimated scf accuracy    <       0.00232934 Ry

     iteration # 12     ecut=    50.00 Ry     beta= 0.30
     Davidson diagonalization with overlap
     ethr =  3.24E-06,  avg # of iterations =  1.7

     total cpu time spent up to now is       98.2 secs

     total energy              =    -723.25534737 Ry
     estimated scf accuracy    <       0.00282912 Ry

     iteration # 13     ecut=    50.00 Ry     beta= 0.30
     Davidson diagonalization with overlap
     ethr =  3.24E-06,  avg # of iterations =  1.2

     total cpu time spent up to now is      103.0 secs

     total energy              =    -723.25386072 Ry
     estimated scf accuracy    <       0.00428085 Ry

     iteration # 14     ecut=    50.00 Ry     beta= 0.30
     Davidson diagonalization with overlap
     ethr =  3.24E-06,  avg # of iterations =  2.2

     total cpu time spent up to now is      108.5 secs

     total energy              =    -723.25359609 Ry
     estimated scf accuracy    <       0.00146258 Ry

     iteration # 15     ecut=    50.00 Ry     beta= 0.30
     Davidson diagonalization with overlap
     ethr =  2.03E-06,  avg # of iterations =  4.7

     total cpu time spent up to now is      116.1 secs

     total energy              =    -723.25420515 Ry
     estimated scf accuracy    <       0.00004095 Ry

     iteration # 16     ecut=    50.00 Ry     beta= 0.30
     Davidson diagonalization with overlap
     ethr =  5.69E-08,  avg # of iterations =  6.1

     total cpu time spent up to now is      124.7 secs

     total energy              =    -723.25423616 Ry
     estimated scf accuracy    <       0.00001146 Ry

     iteration # 17     ecut=    50.00 Ry     beta= 0.30
     Davidson diagonalization with overlap
     ethr =  1.59E-08,  avg # of iterations =  3.6

     total cpu time spent up to now is      130.4 secs

     total energy              =    -723.25429957 Ry
     estimated scf accuracy    <       0.00002176 Ry

     iteration # 18     ecut=    50.00 Ry     beta= 0.30
     Davidson diagonalization with overlap
     ethr =  1.59E-08,  avg # of iterations = 10.6

     total cpu time spent up to now is      146.3 secs

     total energy              =    -723.25411911 Ry
     estimated scf accuracy    <       0.00050553 Ry

     iteration # 19     ecut=    50.00 Ry     beta= 0.30
     Davidson diagonalization with overlap
     ethr =  1.59E-08,  avg # of iterations = 11.8

     total cpu time spent up to now is      163.9 secs

     total energy              =    -723.25422602 Ry
     estimated scf accuracy    <       0.00000904 Ry

     iteration # 20     ecut=    50.00 Ry     beta= 0.30
     Davidson diagonalization with overlap
     ethr =  1.26E-08,  avg # of iterations =  8.3

     total cpu time spent up to now is      176.2 secs

     total energy              =    -723.25422777 Ry
     estimated scf accuracy    <       0.00002747 Ry

     iteration # 21     ecut=    50.00 Ry     beta= 0.30
     Davidson diagonalization with overlap
     ethr =  1.26E-08,  avg # of iterations =  5.0

     total cpu time spent up to now is      183.5 secs

     total energy              =    -723.25423140 Ry
     estimated scf accuracy    <       0.00000238 Ry

     iteration # 22     ecut=    50.00 Ry     beta= 0.30
     Davidson diagonalization with overlap
     ethr =  3.30E-09,  avg # of iterations =  3.8

     total cpu time spent up to now is      189.6 secs

     total energy              =    -723.25423184 Ry
     estimated scf accuracy    <       0.00000273 Ry

     iteration # 23     ecut=    50.00 Ry     beta= 0.30
     Davidson diagonalization with overlap
     ethr =  3.30E-09,  avg # of iterations =  1.2

     total cpu time spent up to now is      194.3 secs

     total energy              =    -723.25423054 Ry
     estimated scf accuracy    <       0.00000314 Ry

     iteration # 24     ecut=    50.00 Ry     beta= 0.30
     Davidson diagonalization with overlap
     ethr =  3.30E-09,  avg # of iterations =  4.5

     total cpu time spent up to now is      201.0 secs

     total energy              =    -723.25423091 Ry
     estimated scf accuracy    <       0.00000029 Ry

     iteration # 25     ecut=    50.00 Ry     beta= 0.30
     Davidson diagonalization with overlap
     ethr =  3.98E-10,  avg # of iterations =  6.6

     total cpu time spent up to now is      211.3 secs

     total energy              =    -723.25423118 Ry
     estimated scf accuracy    <       0.00000005 Ry

     iteration # 26     ecut=    50.00 Ry     beta= 0.30
     Davidson diagonalization with overlap
     ethr =  7.16E-11,  avg # of iterations =  2.5

     total cpu time spent up to now is      217.1 secs

     total energy              =    -723.25423118 Ry
     estimated scf accuracy    <       0.00000001 Ry

     iteration # 27     ecut=    50.00 Ry     beta= 0.30
     Davidson diagonalization with overlap
     ethr =  1.79E-11,  avg # of iterations =  7.8

     total cpu time spent up to now is      229.2 secs

     total energy              =    -723.25423119 Ry
     estimated scf accuracy    <       0.00000003 Ry

     iteration # 28     ecut=    50.00 Ry     beta= 0.30
     Davidson diagonalization with overlap
     ethr =  1.79E-11,  avg # of iterations =  1.0

     total cpu time spent up to now is      233.8 secs

     total energy              =    -723.25423118 Ry
     estimated scf accuracy    <       0.00000002 Ry

     iteration # 29     ecut=    50.00 Ry     beta= 0.30
     Davidson diagonalization with overlap
     ethr =  1.79E-11,  avg # of iterations =  6.7

     total cpu time spent up to now is      244.5 secs

     End of self-consistent calculation

          k = 0.0000 0.0000 0.0000 (  4071 PWs)   bands (ev):

   -11.2004 -10.6689 -10.5531 -10.3944   0.7774   0.7843   0.8232   0.9497
     1.0340   1.0343   1.1636   1.2300   1.2302   1.2393   1.6903   1.7303
     1.9395   1.9395   1.9469   2.0889   2.0889   2.1122   2.1382   2.2301
     2.2731   2.5264   3.2713   3.6791   4.5953   4.9388   5.7587   5.7593
     5.8243   6.1445   6.4370   6.4376

          k = 0.0000 0.0000 0.1877 (  4058 PWs)   bands (ev):

   -11.1667 -10.7067 -10.5418 -10.4043   0.7503   0.7521   0.7556   0.8850
     1.0444   1.0447   1.1918   1.2137   1.2139   1.2656   1.6462   1.6677
     1.9512   1.9513   1.9827   2.0811   2.0811   2.1129   2.1335   2.2261
     2.5151   2.5605   3.1747   3.8821   4.6861   5.0027   5.5330   5.7461
     5.8049   5.8054   6.3921   6.3927

          k = 0.0000 0.0000 0.3754 (  4086 PWs)   bands (ev):

   -11.0735 -10.8081 -10.5114 -10.4319   0.6638   0.6891   0.6969   0.7632
     1.0742   1.0744   1.1714   1.1716   1.2734   1.3299   1.5333   1.5387
     1.9817   1.9817   2.0571   2.0572   2.0758   2.1148   2.1250   2.2080
     2.6434   2.9734   3.1010   4.3453   4.6851   4.9241   5.0285   5.5314
     5.9302   5.9308   6.2691   6.2697

          k = 0.0000 0.0000-0.5631 (  4096 PWs)   bands (ev):

   -10.9429 -10.9428 -10.4710 -10.4710   0.6442   0.6442   0.6892   0.6892
     1.1198   1.1198   1.1200   1.1200   1.3955   1.3955   1.4207   1.4207
     2.0211   2.0211   2.0211   2.0211   2.1184   2.1184   2.1608   2.1608
     2.7806   2.7806   3.8559   3.8559   4.8001   4.8001   5.2332   5.2332
     6.1002   6.1003   6.1008   6.1008

          k = 0.0000 0.3849 0.0000 (  4061 PWs)   bands (ev):

   -11.0582 -10.5902 -10.5599 -10.3916   0.8312   0.8506   0.8892   1.0595
     1.0889   1.1159   1.1713   1.2511   1.3339   1.4316   1.5253   1.6779
     1.8800   1.8922   1.9428   1.9661   2.0929   2.1338   2.1782   2.2479
     2.3767   2.6901   3.2184   3.8320   4.1038   4.8260   5.0572   5.2991
     5.4800   5.4906   6.0142   6.2961

          k = 0.0000 0.3849 0.1877 (  4068 PWs)   bands (ev):

   -11.0281 -10.6230 -10.5480 -10.4022   0.7847   0.8234   0.8897   0.9930
     1.0409   1.1025   1.1810   1.2359   1.3142   1.3944   1.5112   1.6298
     1.8993   1.9019   1.9533   2.0089   2.0833   2.0981   2.1807   2.3413
     2.5535   2.7120   3.2689   3.9155   4.2205   4.8328   5.0930   5.1614
     5.4005   5.5361   5.9045   6.2424

          k = 0.0000 0.3849 0.3754 (  4071 PWs)   bands (ev):

   -10.9452 -10.7114 -10.5159 -10.4317   0.7091   0.7588   0.7967   0.8834
     1.0650   1.1413   1.1801   1.1890   1.2631   1.3625   1.4693   1.5579
     1.9449   1.9506   1.9816   2.0376   2.0558   2.0566   2.1906   2.2685
     2.8274   3.1735   3.1860   4.2460   4.5121   4.5301   5.0293   5.1580
     5.2074   5.6602   5.6880   6.0951

          k = 0.0000 0.3849-0.5631 (  4084 PWs)   bands (ev):

   -10.8297 -10.8296 -10.4732 -10.4732   0.6872   0.6872   0.8025   0.8025
     1.1267   1.1267   1.1992   1.1992   1.2574   1.2574   1.5017   1.5017
     2.0017   2.0017   2.0093   2.0093   2.0195   2.0195   2.2156   2.2156
     3.0048   3.0048   3.8752   3.8752   4.6296   4.6297   4.9770   4.9770
     5.3848   5.3848   5.8927   5.8928

          k = 0.0000 0.7698 0.0000 (  4097 PWs)   bands (ev):

   -10.7441 -10.5599 -10.4439 -10.3916   0.7127   0.8314   0.9591   1.0595
     1.1540   1.1712   1.3487   1.4316   1.5098   1.5255   1.5670   1.6778
     1.8922   1.9048   1.9662   2.0241   2.1100   2.1782   2.2600   2.3767
     2.4800   2.6903   3.2184   3.2901   3.8321   4.1036   4.2683   4.9064
     5.0571   5.4904   5.4962   5.9898

          k = 0.0000 0.7698 0.1877 (  4076 PWs)   bands (ev):

   -10.7240 -10.5480 -10.4639 -10.4022   0.6906   0.8235   0.9179   0.9930
     1.1773   1.1809   1.3159   1.3944   1.4373   1.5113   1.5342   1.6297
     1.9019   1.9054   2.0090   2.0289   2.1021   2.1727   2.1807   2.3414
     2.7122   2.7606   3.2690   3.3953   3.9156   4.2202   4.2210   4.9838
     5.0930   5.4003   5.4580   5.9197

          k = 0.0000 0.7698 0.3754 (  4082 PWs)   bands (ev):

   -10.6690 -10.5188 -10.5159 -10.4317   0.6598   0.7916   0.7968   0.8834
     1.1800   1.2435   1.2819   1.3610   1.3625   1.4485   1.4693   1.5578
     1.9449   1.9506   2.0376   2.0420   2.0831   2.0896   2.1906   2.2686
     2.8276   3.1189   3.1861   3.5361   4.2460   4.3202   4.5298   5.0293
     5.1898   5.2072   5.2439   5.7275

          k = 0.0000 0.7698-0.5631 (  4086 PWs)   bands (ev):

   -10.5939 -10.5939 -10.4732 -10.4732   0.6840   0.6840   0.8026   0.8026
     1.2574   1.2574   1.3071   1.3071   1.3412   1.3412   1.5016   1.5017
     2.0094   2.0094   2.0123   2.0123   2.0612   2.0612   2.2157   2.2157
     3.0049   3.0049   3.3912   3.3912   4.6296   4.6296   4.7942   4.7942
     4.9768   4.9769   5.4619   5.4620

          k = 0.0000-1.1547 0.0000 (  4084 PWs)   bands (ev):

   -10.5531 -10.5531 -10.3944 -10.3944   0.7844   0.7844   0.9499   0.9499
     1.1634   1.1634   1.2394   1.2394   1.6901   1.6901   1.7304   1.7304
     1.9470   1.9470   2.1123   2.1123   2.1383   2.1383   2.2302   2.2302
     2.5266   2.5266   3.2715   3.2715   3.6791   3.6791   4.5949   4.5949
     4.9388   4.9388   5.8239   5.8239

          k = 0.0000-1.1547 0.1877 (  4084 PWs)   bands (ev):

   -10.5418 -10.5418 -10.4043 -10.4043   0.7522   0.7522   0.8851   0.8851
     1.1916   1.1916   1.2657   1.2657   1.6460   1.6460   1.6678   1.6678
     1.9827   1.9827   2.1130   2.1130   2.1336   2.1336   2.2262   2.2262
     2.5606   2.5606   3.1749   3.1749   3.8821   3.8821   4.6857   4.6857
     5.0027   5.0027   5.7456   5.7456

          k = 0.0000-1.1547 0.3754 (  4092 PWs)   bands (ev):

   -10.5114 -10.5114 -10.4320 -10.4319   0.6970   0.6970   0.7633   0.7633
     1.2732   1.2732   1.3300   1.3300   1.5330   1.5330   1.5388   1.5388
     2.0758   2.0758   2.1149   2.1149   2.1250   2.1250   2.2081   2.2081
     2.6436   2.6436   2.9735   2.9735   4.3454   4.3454   4.9238   4.9238
     5.0285   5.0285   5.5310   5.5310

          k = 0.0000-1.1547-0.5631 (  4112 PWs)   bands (ev):

   -10.4710 -10.4710 -10.4710 -10.4710   0.6892   0.6892   0.6892   0.6892
     1.3953   1.3953   1.3953   1.3953   1.4208   1.4208   1.4209   1.4209
     2.1184   2.1185   2.1185   2.1185   2.1608   2.1608   2.1608   2.1608
     2.7807   2.7807   2.7808   2.7808   4.8001   4.8002   4.8002   4.8002
     5.2328   5.2328   5.2328   5.2328

          k = 0.1667 0.0962 0.0000 (  4061 PWs)   bands (ev):

   -11.1630 -10.6477 -10.6095 -10.4031   0.7398   0.8022   0.8909   0.9558
     1.0037   1.0502   1.1625   1.2260   1.2572   1.3251   1.5995   1.6578
     1.9204   1.9234   1.9382   2.0846   2.0902   2.1005   2.1283   2.2647
     2.3269   2.6546   2.9955   3.8898   4.6815   5.1315   5.5015   5.6845
     5.8697   5.8967   6.1197   6.4007

          k = 0.1667 0.0962 0.1877 (  4071 PWs)   bands (ev):

   -11.1303 -10.6842 -10.5952 -10.4164   0.7136   0.7678   0.8091   0.9019
     1.0197   1.0613   1.1894   1.2123   1.2401   1.3191   1.5541   1.6170
     1.9367   1.9498   1.9524   2.0815   2.0856   2.0862   2.1228   2.2583
     2.5229   2.6864   3.1385   3.9387   4.7683   5.1629   5.4028   5.5760
     5.7333   5.7937   6.1616   6.3534

          k = 0.1667 0.0962 0.3754 (  4085 PWs)   bands (ev):

   -11.0396 -10.7822 -10.5564 -10.4531   0.6737   0.6940   0.7012   0.7772
     1.0613   1.0931   1.1703   1.1960   1.2669   1.3381   1.4700   1.5119
     1.9710   1.9800   2.0174   2.0562   2.0566   2.0914   2.1113   2.1646
     2.8075   3.1214   3.1468   4.2929   4.6617   4.9971   5.1064   5.5851
     5.6947   5.8659   6.0537   6.2236

          k = 0.1667 0.0962-0.5631 (  4082 PWs)   bands (ev):

   -10.9128 -10.9128 -10.5043 -10.5043   0.6600   0.6600   0.6851   0.6851
     1.1150   1.1151   1.1416   1.1416   1.3825   1.3825   1.3927   1.3927
     2.0154   2.0154   2.0196   2.0196   2.0882   2.0882   2.1000   2.1000
     2.9818   2.9818   3.8695   3.8695   4.7890   4.7890   5.2959   5.2959
     5.8754   5.8754   6.0455   6.0455

          k = 0.1667 0.4811 0.0000 (  4066 PWs)   bands (ev):

   -10.9639 -10.6822 -10.5415 -10.4210   0.8319   0.8495   0.9332   0.9541
     1.0368   1.1198   1.2173   1.3610   1.3836   1.4010   1.5442   1.6472
     1.8538   1.8553   1.9222   1.9454   2.0940   2.1315   2.1700   2.2575
     2.3348   2.6143   3.4854   3.9082   4.4282   4.4918   4.7846   5.3419
     5.4257   5.6629   5.9017   6.1528

          k = 0.1667 0.4811 0.1877 (  4073 PWs)   bands (ev):

   -10.9365 -10.6645 -10.5707 -10.4382   0.7792   0.8179   0.9228   0.9263
     1.0346   1.1567   1.1782   1.3059   1.3161   1.3783   1.4927   1.5507
     1.8521   1.8767   1.9625   2.0034   2.0842   2.1155   2.1287   2.2607
     2.5981   2.8059   3.5723   3.9581   4.4609   4.5302   4.7361   5.3614
     5.4066   5.5766   5.7922   6.0919

          k = 0.1667 0.4811 0.3754 (  4069 PWs)   bands (ev):

   -10.8611 -10.6499 -10.6162 -10.4855   0.7111   0.7630   0.7914   0.8422
     1.0845   1.1757   1.2092   1.2387   1.2600   1.3210   1.4148   1.4497
     1.9129   1.9291   1.9903   2.0411   2.0582   2.0626   2.1235   2.1664
     3.1002   3.2106   3.5546   4.2956   4.3026   4.7014   4.8043   5.2474
     5.3529   5.4438   5.5311   5.9262

          k = 0.1667 0.4811-0.5631 (  4072 PWs)   bands (ev):

   -10.7564 -10.7564 -10.5507 -10.5506   0.7023   0.7023   0.7637   0.7637
     1.1494   1.1494   1.2532   1.2532   1.2538   1.2538   1.3856   1.3856
     1.9956   1.9956   1.9972   1.9972   2.0253   2.0253   2.1239   2.1239
     3.3577   3.3577   3.8292   3.8292   4.7786   4.7786   5.0755   5.0755
     5.1073   5.1073   5.7039   5.7040

          k = 0.1667 0.8660 0.0000 (  4078 PWs)   bands (ev):

   -10.6557 -10.6557 -10.4139 -10.4139   0.7560   0.7560   0.9740   0.9740
     1.1444   1.1444   1.4206   1.4206   1.4793   1.4793   1.6335   1.6335
     1.9137   1.9137   2.0108   2.0108   2.1283   2.1283   2.3298   2.3298
     2.6748   2.6748   3.0813   3.0813   4.0269   4.0269   4.6082   4.6082
     5.3022   5.3022   5.8114   5.8114

          k = 0.1667 0.8660 0.1877 (  4082 PWs)   bands (ev):

   -10.6392 -10.6392 -10.4298 -10.4297   0.7320   0.7320   0.9290   0.9290
     1.1695   1.1695   1.3728   1.3728   1.4572   1.4572   1.5856   1.5856
     1.9178   1.9178   2.0364   2.0364   2.1240   2.1240   2.2526   2.2526
     2.7867   2.7867   3.2397   3.2397   4.0261   4.0261   4.6913   4.6913
     5.3034   5.3034   5.7325   5.7325

          k = 0.1667 0.8660 0.3754 (  4076 PWs)   bands (ev):

   -10.5943 -10.5943 -10.4733 -10.4733   0.6958   0.6958   0.8102   0.8102
     1.2310   1.2310   1.3371   1.3371   1.4137   1.4137   1.4842   1.4842
     1.9594   1.9594   2.0554   2.0554   2.1150   2.1150   2.1572   2.1572
     2.9756   2.9756   3.3380   3.3380   4.2822   4.2823   4.9088   4.9088
     5.1858   5.1858   5.5212   5.5212

          k = 0.1667 0.8660-0.5631 (  4076 PWs)   bands (ev):

   -10.5335 -10.5334 -10.5334 -10.5334   0.7125   0.7125   0.7125   0.7125
     1.3139   1.3139   1.3139   1.3139   1.3990   1.3990   1.3990   1.3990
     2.0225   2.0225   2.0225   2.0225   2.1148   2.1148   2.1148   2.1148
     3.1822   3.1822   3.1822   3.1822   4.7797   4.7797   4.7797   4.7797
     5.2368   5.2368   5.2368   5.2368

          k = 0.1667-1.0585 0.0000 (  4100 PWs)   bands (ev):

   -10.5554 -10.5554 -10.3934 -10.3934   0.7926   0.7926   0.9991   0.9991
     1.1545   1.1545   1.3028   1.3028   1.6501   1.6501   1.6842   1.6842
     1.9139   1.9139   2.0726   2.0726   2.1635   2.1635   2.2965   2.2965
     2.5860   2.5860   3.2065   3.2065   3.7488   3.7488   4.4550   4.4550
     4.9659   4.9659   5.7174   5.7174

          k = 0.1667-1.0585 0.1877 (  4088 PWs)   bands (ev):

   -10.5439 -10.5439 -10.4036 -10.4036   0.7674   0.7674   0.9350   0.9350
     1.1657   1.1657   1.3261   1.3261   1.6000   1.6000   1.6422   1.6422
     1.9535   1.9535   2.0747   2.0747   2.1618   2.1618   2.2727   2.2727
     2.6099   2.6099   3.1862   3.1862   3.8941   3.8941   4.5512   4.5512
     5.0233   5.0233   5.6339   5.6339

          k = 0.1667-1.0585 0.3754 (  4088 PWs)   bands (ev):

   -10.5129 -10.5129 -10.4319 -10.4319   0.7225   0.7225   0.8073   0.8073
     1.2213   1.2213   1.3888   1.3888   1.4703   1.4703   1.5626   1.5626
     2.0239   2.0239   2.0766   2.0766   2.1654   2.1654   2.2318   2.2318
     2.6975   2.6975   3.0373   3.0373   4.3212   4.3212   4.7989   4.7989
     5.0344   5.0344   5.4129   5.4129

          k = 0.1667-1.0585-0.5631 (  4084 PWs)   bands (ev):

   -10.4718 -10.4717 -10.4717 -10.4717   0.7238   0.7238   0.7238   0.7238
     1.3296   1.3296   1.3296   1.3296   1.4729   1.4729   1.4729   1.4729
     2.0652   2.0652   2.0652   2.0652   2.1922   2.1922   2.1922   2.1922
     2.8493   2.8493   2.8494   2.8494   4.7732   4.7732   4.7732   4.7732
     5.1231   5.1231   5.1232   5.1232

          k = 0.1667-0.6736 0.0000 (  4086 PWs)   bands (ev):

   -10.8063 -10.4756 -10.4684 -10.3896   0.7636   0.8237   0.9653   1.1010
     1.2267   1.2971   1.3047   1.4344   1.4974   1.5604   1.5750   1.7335
     1.8492   1.8639   1.9472   1.9670   2.1045   2.2218   2.2376   2.3017
     2.3845   2.7821   3.1864   3.4389   3.6750   4.1319   4.3734   4.7825
     4.9531   5.1579   5.6496   5.9710

          k = 0.1667-0.6736 0.1877 (  4077 PWs)   bands (ev):

   -10.7839 -10.4912 -10.4691 -10.3945   0.7347   0.8456   0.9306   1.1266
     1.1306   1.2325   1.2641   1.4240   1.4371   1.4877   1.5585   1.7202
     1.8678   1.8778   1.9694   1.9995   2.0967   2.1594   2.2339   2.3245
     2.7130   2.7536   3.1613   3.5261   3.7484   4.2925   4.3357   4.8484
     5.0061   5.0622   5.5835   5.9005

          k = 0.1667-0.6736 0.3754 (  4085 PWs)   bands (ev):

   -10.7226 -10.5536 -10.4516 -10.4085   0.6922   0.8091   0.8924   1.0040
     1.1210   1.1829   1.2376   1.3135   1.3288   1.4084   1.6028   1.6906
     1.9201   1.9273   1.9859   2.0245   2.0772   2.0845   2.2700   2.3489
     2.7588   3.0257   3.2000   3.8056   3.8368   4.4109   4.5684   4.7608
     5.0277   5.1695   5.3308   5.7093

          k = 0.1667-0.6736-0.5631 (  4082 PWs)   bands (ev):

   -10.6383 -10.6383 -10.4293 -10.4292   0.7065   0.7065   0.9261   0.9261
     1.1672   1.1672   1.2369   1.2369   1.3234   1.3234   1.6518   1.6518
     1.9683   1.9683   1.9958   1.9958   2.0554   2.0554   2.3194   2.3194
     2.8671   2.8671   3.5837   3.5837   4.2505   4.2506   4.8445   4.8446
     4.9592   4.9593   5.4500   5.4500

          k = 0.1667-0.2887 0.0000 (  4057 PWs)   bands (ev):

   -11.0918 -10.6084 -10.5064 -10.3889   0.8225   0.8449   0.9443   0.9768
     1.1230   1.1619   1.1778   1.2334   1.3084   1.3612   1.6026   1.6959
     1.8813   1.8971   1.9361   2.0177   2.0911   2.1252   2.2448   2.2483
     2.2517   2.6690   3.2900   3.6141   4.2009   4.7999   5.1167   5.2755
     5.4294   5.6460   6.0516   6.3109

          k = 0.1667-0.2887 0.1877 (  4072 PWs)   bands (ev):

   -11.0609 -10.6423 -10.4978 -10.3960   0.7906   0.8211   0.8879   0.9870
     1.0713   1.1046   1.1424   1.2233   1.2897   1.4137   1.5455   1.6759
     1.9127   1.9264   1.9488   2.0196   2.0817   2.0956   2.2511   2.2544
     2.5424   2.6609   3.1986   3.7801   4.3323   4.8690   5.1118   5.1714
     5.3384   5.6175   5.9724   6.2585

          k = 0.1667-0.2887 0.3754 (  4080 PWs)   bands (ev):

   -10.9755 -10.7339 -10.4747 -10.4159   0.7139   0.7417   0.8083   0.9161
     1.0508   1.1274   1.1485   1.1811   1.2416   1.3989   1.4954   1.6312
     1.9538   1.9789   1.9918   2.0225   2.0553   2.0569   2.2677   2.2684
     2.6953   3.0074   3.1582   4.1473   4.5800   4.6530   4.8656   5.1542
     5.3232   5.6927   5.8108   6.1159

          k = 0.1667-0.2887-0.5631 (  4082 PWs)   bands (ev):

   -10.8562 -10.8562 -10.4445 -10.4445   0.6826   0.6826   0.8215   0.8215
     1.1151   1.1151   1.1833   1.1833   1.2471   1.2471   1.5691   1.5691
     2.0063   2.0063   2.0184   2.0184   2.0186   2.0186   2.2768   2.2768
     2.8199   2.8199   3.8805   3.8805   4.5551   4.5551   4.9715   4.9715
     5.5362   5.5362   5.9245   5.9246

          k = 0.3333 0.1925 0.0000 (  4068 PWs)   bands (ev):

   -11.0582 -10.7441 -10.5902 -10.4439   0.7125   0.8505   0.8891   0.9591
     1.0891   1.1159   1.1542   1.2510   1.3341   1.3486   1.5098   1.5672
     1.8800   1.9047   1.9427   2.0240   2.0929   2.1100   2.1338   2.2479
     2.2600   2.4800   3.2899   4.2681   4.8256   4.9068   5.2989   5.4804
     5.4962   5.9902   6.0142   6.2966

          k = 0.3333 0.1925 0.1877 (  4068 PWs)   bands (ev):

   -11.0281 -10.7240 -10.6230 -10.4639   0.6904   0.7846   0.8897   0.9179
     1.0407   1.1027   1.1776   1.2358   1.3143   1.3157   1.4373   1.5344
     1.8993   1.9054   1.9533   2.0289   2.0833   2.0981   2.1020   2.1727
     2.5535   2.7605   3.3950   4.2208   4.8325   4.9842   5.1611   5.4580
     5.5365   5.9044   5.9201   6.2428

          k = 0.3333 0.1925 0.3754 (  4077 PWs)   bands (ev):

   -10.9452 -10.7114 -10.6690 -10.5188   0.6597   0.7091   0.7588   0.7915
     1.0648   1.1415   1.1889   1.2437   1.2633   1.2818   1.3610   1.4487
     1.9449   1.9449   1.9816   2.0420   2.0558   2.0566   2.0830   2.0895
     3.1188   3.1735   3.5359   4.3200   4.5120   5.1576   5.1902   5.2438
     5.6599   5.6884   5.7280   6.0956

          k = 0.3333 0.1925-0.5631 (  4078 PWs)   bands (ev):

   -10.8297 -10.8296 -10.5939 -10.5939   0.6839   0.6839   0.6872   0.6872
     1.1265   1.1265   1.1994   1.1994   1.3070   1.3070   1.3414   1.3414
     2.0017   2.0017   2.0122   2.0122   2.0195   2.0195   2.0612   2.0612
     3.3910   3.3910   3.8751   3.8751   4.7941   4.7941   5.3844   5.3844
     5.4623   5.4624   5.8932   5.8932

          k = 0.3333 0.5774 0.0000 (  4062 PWs)   bands (ev):

   -10.8287 -10.8287 -10.4777 -10.4777   0.8363   0.8363   0.9619   0.9619
     1.0293   1.0293   1.2825   1.2825   1.4874   1.4874   1.5673   1.5673
     1.8288   1.8288   1.9450   1.9450   2.1026   2.1026   2.2410   2.2410
     2.3673   2.3673   4.0404   4.0404   4.1757   4.1757   4.9879   4.9879
     5.7099   5.7099   5.9089   5.9089

          k = 0.3333 0.5774 0.1877 (  4076 PWs)   bands (ev):

   -10.8056 -10.8056 -10.5016 -10.5015   0.7908   0.7908   0.9314   0.9314
     1.0679   1.0679   1.2509   1.2509   1.4233   1.4233   1.4604   1.4604
     1.8517   1.8517   1.9897   1.9897   2.0949   2.0949   2.1623   2.1623
     2.6996   2.6996   4.1363   4.1363   4.1391   4.1391   5.0037   5.0037
     5.6371   5.6371   5.8345   5.8345

          k = 0.3333 0.5774 0.3754 (  4086 PWs)   bands (ev):

   -10.7420 -10.7420 -10.5665 -10.5665   0.7284   0.7284   0.8195   0.8195
     1.1342   1.1342   1.2183   1.2183   1.3170   1.3170   1.3914   1.3914
     1.9130   1.9130   2.0207   2.0207   2.0762   2.0762   2.0872   2.0872
     3.2238   3.2238   3.9723   3.9723   4.4394   4.4394   5.1157   5.1157
     5.3753   5.3753   5.6349   5.6350

          k = 0.3333 0.5774-0.5631 (  4060 PWs)   bands (ev):

   -10.6546 -10.6546 -10.6546 -10.6545   0.7279   0.7279   0.7279   0.7279
     1.1964   1.1964   1.1964   1.1964   1.3172   1.3172   1.3172   1.3172
     1.9931   1.9931   1.9931   1.9931   2.0555   2.0555   2.0555   2.0555
     3.6660   3.6660   3.6660   3.6660   4.8980   4.8980   4.8980   4.8980
     5.3763   5.3763   5.3763   5.3763

          k = 0.3333-0.9623 0.0000 (  4090 PWs)   bands (ev):

   -10.5599 -10.5599 -10.3916 -10.3916   0.8313   0.8313   1.0596   1.0596
     1.1712   1.1712   1.4317   1.4317   1.5254   1.5254   1.6778   1.6778
     1.8922   1.8922   1.9662   1.9662   2.1783   2.1783   2.3768   2.3768
     2.6903   2.6903   3.2185   3.2185   3.8320   3.8320   4.1035   4.1035
     5.0571   5.0571   5.4903   5.4903

          k = 0.3333-0.9623 0.1877 (  4076 PWs)   bands (ev):

   -10.5480 -10.5480 -10.4022 -10.4022   0.8235   0.8235   0.9931   0.9931
     1.1809   1.1809   1.3945   1.3945   1.5112   1.5112   1.6297   1.6297
     1.9019   1.9019   2.0090   2.0090   2.1808   2.1808   2.3414   2.3414
     2.7122   2.7122   3.2691   3.2691   3.9154   3.9154   4.2202   4.2202
     5.0930   5.0930   5.4002   5.4002

          k = 0.3333-0.9623 0.3754 (  4076 PWs)   bands (ev):

   -10.5159 -10.5159 -10.4317 -10.4317   0.7968   0.7968   0.8835   0.8835
     1.1800   1.1800   1.3626   1.3626   1.4692   1.4692   1.5579   1.5579
     1.9505   1.9506   2.0376   2.0376   2.1907   2.1907   2.2686   2.2686
     2.8276   2.8276   3.1862   3.1862   4.2458   4.2458   4.5299   4.5299
     5.0292   5.0292   5.2072   5.2072

          k = 0.3333-0.9623-0.5631 (  4092 PWs)   bands (ev):

   -10.4732 -10.4732 -10.4732 -10.4732   0.8026   0.8026   0.8026   0.8026
     1.2573   1.2573   1.2574   1.2574   1.5017   1.5017   1.5017   1.5017
     2.0094   2.0094   2.0094   2.0094   2.2157   2.2157   2.2157   2.2157
     3.0049   3.0049   3.0049   3.0049   4.6294   4.6294   4.6295   4.6295
     4.9769   4.9769   4.9769   4.9769

          k = 0.3333-0.5774 0.0000 (  4074 PWs)   bands (ev):

   -10.8287 -10.4777 -10.4169 -10.4168   0.8111   0.8366   0.9618   1.0293
     1.2825   1.3075   1.3076   1.4872   1.5468   1.5673   1.6733   1.6734
     1.8287   1.8553   1.9445   1.9450   2.1026   2.2208   2.2208   2.2409
     2.3674   3.0174   3.0175   3.1124   4.0406   4.1759   4.4912   4.4913
     4.9844   4.9876   5.7099   5.9086

          k = 0.3333-0.5774 0.1877 (  4084 PWs)   bands (ev):

   -10.8056 -10.5016 -10.4160 -10.4159   0.7910   0.8420   0.9313   1.0680
     1.2191   1.2192   1.2509   1.4234   1.4554   1.4603   1.7135   1.7135
     1.8517   1.8687   1.9401   1.9897   2.0949   2.1624   2.2556   2.2556
     2.6997   2.9595   2.9596   3.2585   4.1365   4.1393   4.6171   4.6171
     4.8572   5.0033   5.6371   5.8342

          k = 0.3333-0.5774 0.3754 (  4086 PWs)   bands (ev):

   -10.7420 -10.5665 -10.4141 -10.4141   0.7285   0.8195   0.9333   1.0839
     1.0839   1.1342   1.2182   1.2678   1.3170   1.3913   1.7554   1.7554
     1.8901   1.9130   1.9281   2.0208   2.0763   2.0872   2.3310   2.3311
     2.8535   2.8536   3.2238   3.6196   3.9725   4.4396   4.5206   4.8544
     4.8544   5.1154   5.3754   5.6346

          k = 0.3333-0.5774-0.5631 (  4070 PWs)   bands (ev):

   -10.6546 -10.6546 -10.4132 -10.4132   0.7280   0.7280   1.0267   1.0267
     1.0801   1.0802   1.1965   1.1965   1.3170   1.3170   1.7678   1.7678
     1.9105   1.9106   1.9931   1.9931   2.0556   2.0556   2.3740   2.3740
     2.8004   2.8004   3.6661   3.6661   4.0738   4.0738   4.8982   4.8982
     4.9687   4.9687   5.3759   5.3760

          k =-0.5000-0.2887 0.0000 (  4088 PWs)   bands (ev):

   -10.9074 -10.9074 -10.5140 -10.5140   0.7642   0.7642   0.9382   0.9382
     1.1296   1.1296   1.2208   1.2208   1.4464   1.4464   1.4593   1.4593
     1.8469   1.8469   1.9697   1.9697   2.0981   2.0981   2.1736   2.1736
     2.2787   2.2787   4.0251   4.0251   4.7504   4.7504   5.1985   5.1985
     5.8104   5.8104   6.1473   6.1473

          k =-0.5000-0.2887 0.1877 (  4078 PWs)   bands (ev):

   -10.8817 -10.8817 -10.5410 -10.5410   0.7313   0.7313   0.9167   0.9167
     1.1479   1.1479   1.1700   1.1700   1.3550   1.3550   1.4215   1.4215
     1.8685   1.8686   1.9780   1.9780   2.0884   2.0884   2.1190   2.1190
     2.6295   2.6295   4.0774   4.0774   4.6706   4.6706   5.2648   5.2648
     5.7086   5.7086   6.0853   6.0853

          k =-0.5000-0.2887 0.3754 (  4080 PWs)   bands (ev):

   -10.8111 -10.8111 -10.6144 -10.6144   0.6834   0.6834   0.7931   0.7931
     1.1489   1.1489   1.1991   1.1991   1.2649   1.2649   1.3565   1.3565
     1.9229   1.9229   1.9999   1.9999   2.0619   2.0619   2.0630   2.0631
     3.2161   3.2161   4.0792   4.0792   4.6343   4.6343   5.3934   5.3934
     5.4430   5.4430   5.9153   5.9153

          k =-0.5000-0.2887-0.5631 (  4076 PWs)   bands (ev):

   -10.7134 -10.7134 -10.7134 -10.7134   0.6920   0.6920   0.6920   0.6920
     1.1971   1.1971   1.1971   1.1971   1.2745   1.2745   1.2745   1.2745
     1.9927   1.9927   1.9927   1.9927   2.0308   2.0308   2.0308   2.0309
     3.7489   3.7489   3.7489   3.7489   4.9546   4.9546   4.9546   4.9546
     5.6812   5.6812   5.6812   5.6812

          k =-0.5000-1.4434 0.0000 (  4070 PWs)   bands (ev):

   -10.5621 -10.5621 -10.3907 -10.3907   0.8590   0.8590   1.0755   1.0755
     1.2087   1.2087   1.3697   1.3697   1.5945   1.5945   1.7451   1.7451
     1.8179   1.8179   1.8943   1.8943   2.1823   2.1823   2.4048   2.4048
     2.7088   2.7088   3.3827   3.3827   3.7423   3.7423   3.9359   3.9359
     5.1374   5.1374   5.3457   5.3457

          k =-0.5000-1.4434 0.1877 (  4068 PWs)   bands (ev):

   -10.5500 -10.5500 -10.4015 -10.4015   0.8698   0.8698   0.9873   0.9873
     1.2694   1.2694   1.2963   1.2963   1.5547   1.5547   1.6413   1.6413
     1.8416   1.8416   1.9855   1.9855   2.1855   2.1855   2.3666   2.3666
     2.7615   2.7615   3.3770   3.3770   3.9468   3.9468   3.9742   3.9742
     5.1718   5.1718   5.2420   5.2420

          k =-0.5000-1.4434 0.3754 (  4088 PWs)   bands (ev):

   -10.5174 -10.5174 -10.4316 -10.4316   0.8731   0.8731   0.8838   0.8838
     1.1929   1.1929   1.2920   1.2920   1.4914   1.4914   1.5580   1.5580
     1.9107   1.9107   2.0288   2.0288   2.1968   2.1968   2.2843   2.2843
     2.9110   2.9110   3.2777   3.2777   4.1810   4.1810   4.3869   4.3869
     4.9813   4.9813   5.1546   5.1546

          k =-0.5000-1.4434-0.5631 (  4068 PWs)   bands (ev):

   -10.4739 -10.4739 -10.4739 -10.4739   0.8503   0.8503   0.8503   0.8503
     1.2210   1.2210   1.2210   1.2210   1.5052   1.5052   1.5052   1.5052
     1.9909   1.9909   1.9909   1.9909   2.2237   2.2237   2.2237   2.2237
     3.0998   3.0998   3.0998   3.0998   4.4999   4.4999   4.4999   4.4999
     4.9457   4.9457   4.9457   4.9457

          k = 0.3333-0.1925-0.1877 (  4068 PWs)   bands (ev):

   -11.0281 -10.6230 -10.5480 -10.4022   0.7847   0.8234   0.8897   0.9930
     1.0409   1.1025   1.1810   1.2359   1.3142   1.3944   1.5112   1.6298
     1.8993   1.9019   1.9533   2.0089   2.0833   2.0981   2.1807   2.3413
     2.5535   2.7120   3.2690   3.9155   4.2205   4.8328   5.0930   5.1614
     5.4005   5.5361   5.9045   6.2424

          k = 0.3333-0.1925-0.3754 (  4071 PWs)   bands (ev):

   -10.9452 -10.7114 -10.5159 -10.4317   0.7091   0.7588   0.7967   0.8834
     1.0650   1.1413   1.1801   1.1890   1.2631   1.3625   1.4693   1.5579
     1.9449   1.9506   1.9816   2.0376   2.0558   2.0566   2.1906   2.2685
     2.8274   3.1735   3.1860   4.2460   4.5121   4.5301   5.0294   5.1580
     5.2074   5.6602   5.6880   6.0951

          k = 0.6667-0.3849-0.1877 (  4076 PWs)   bands (ev):

   -10.7240 -10.5480 -10.4639 -10.4022   0.6906   0.8235   0.9179   0.9930
     1.1773   1.1809   1.3159   1.3945   1.4373   1.5113   1.5342   1.6297
     1.9019   1.9054   2.0090   2.0289   2.1021   2.1727   2.1807   2.3414
     2.7122   2.7606   3.2690   3.3953   3.9156   4.2202   4.2210   4.9838
     5.0930   5.4003   5.4580   5.9197

          k = 0.6667-0.3849-0.3754 (  4082 PWs)   bands (ev):

   -10.6690 -10.5188 -10.5159 -10.4317   0.6598   0.7916   0.7968   0.8834
     1.1800   1.2435   1.2819   1.3610   1.3625   1.4485   1.4693   1.5578
     1.9449   1.9506   2.0376   2.0420   2.0831   2.0896   2.1906   2.2686
     2.8276   3.1189   3.1861   3.5361   4.2460   4.3202   4.5298   5.0293
     5.1898   5.2072   5.2439   5.7275

          k = 0.1667 0.0962-0.1877 (  4071 PWs)   bands (ev):

   -11.1303 -10.6842 -10.5952 -10.4164   0.7136   0.7678   0.8091   0.9019
     1.0197   1.0613   1.1894   1.2123   1.2401   1.3191   1.5541   1.6170
     1.9367   1.9498   1.9524   2.0815   2.0856   2.0862   2.1228   2.2583
     2.5229   2.6864   3.1385   3.9387   4.7683   5.1629   5.4028   5.5760
     5.7333   5.7937   6.1616   6.3534

          k = 0.1667 0.0962-0.3754 (  4085 PWs)   bands (ev):

   -11.0396 -10.7822 -10.5564 -10.4531   0.6737   0.6940   0.7011   0.7772
     1.0613   1.0931   1.1703   1.1960   1.2669   1.3381   1.4700   1.5119
     1.9710   1.9800   2.0174   2.0562   2.0566   2.0914   2.1113   2.1646
     2.8075   3.1214   3.1468   4.2929   4.6617   4.9971   5.1064   5.5851
     5.6947   5.8659   6.0537   6.2236

          k = 0.5000-0.0962-0.1877 (  4073 PWs)   bands (ev):

   -10.9365 -10.6645 -10.5707 -10.4382   0.7792   0.8179   0.9228   0.9263
     1.0345   1.1567   1.1782   1.3059   1.3161   1.3783   1.4927   1.5507
     1.8521   1.8767   1.9625   2.0034   2.0842   2.1155   2.1287   2.2607
     2.5981   2.8059   3.5723   3.9581   4.4609   4.5302   4.7361   5.3614
     5.4066   5.5766   5.7922   6.0919

          k = 0.5000-0.0962-0.3754 (  4069 PWs)   bands (ev):

   -10.8611 -10.6499 -10.6162 -10.4855   0.7111   0.7630   0.7914   0.8422
     1.0845   1.1757   1.2092   1.2387   1.2600   1.3210   1.4148   1.4497
     1.9129   1.9291   1.9903   2.0411   2.0582   2.0626   2.1235   2.1664
     3.1002   3.2106   3.5546   4.2956   4.3026   4.7014   4.8042   5.2474
     5.3529   5.4438   5.5311   5.9262

          k =-0.8333 0.6736-0.1877 (  4088 PWs)   bands (ev):

   -10.5439 -10.5439 -10.4036 -10.4036   0.7674   0.7674   0.9350   0.9350
     1.1657   1.1657   1.3261   1.3261   1.6000   1.6000   1.6422   1.6422
     1.9535   1.9535   2.0747   2.0747   2.1618   2.1618   2.2727   2.2727
     2.6099   2.6099   3.1862   3.1862   3.8941   3.8941   4.5512   4.5512
     5.0233   5.0233   5.6339   5.6339

          k =-0.8333 0.6736-0.3754 (  4088 PWs)   bands (ev):

   -10.5129 -10.5129 -10.4319 -10.4319   0.7225   0.7225   0.8073   0.8073
     1.2213   1.2213   1.3888   1.3888   1.4703   1.4703   1.5626   1.5626
     2.0239   2.0239   2.0766   2.0766   2.1654   2.1654   2.2318   2.2318
     2.6975   2.6975   3.0373   3.0373   4.3212   4.3212   4.7989   4.7989
     5.0344   5.0344   5.4129   5.4129

          k =-0.5000 0.4811-0.1877 (  4077 PWs)   bands (ev):

   -10.7839 -10.4912 -10.4691 -10.3945   0.7347   0.8456   0.9305   1.1266
     1.1306   1.2325   1.2641   1.4240   1.4371   1.4877   1.5585   1.7202
     1.8678   1.8778   1.9694   1.9995   2.0967   2.1594   2.2339   2.3245
     2.7130   2.7536   3.1613   3.5261   3.7484   4.2925   4.3357   4.8484
     5.0061   5.0622   5.5835   5.9005

          k =-0.5000 0.4811-0.3754 (  4085 PWs)   bands (ev):

   -10.7226 -10.5536 -10.4516 -10.4085   0.6922   0.8091   0.8924   1.0040
     1.1210   1.1829   1.2376   1.3135   1.3288   1.4084   1.6028   1.6906
     1.9201   1.9273   1.9859   2.0245   2.0772   2.0845   2.2700   2.3489
     2.7588   3.0257   3.2001   3.8056   3.8368   4.4109   4.5684   4.7608
     5.0277   5.1695   5.3308   5.7093

          k = 0.3333 0.1925-0.1877 (  4068 PWs)   bands (ev):

   -11.0281 -10.7240 -10.6230 -10.4639   0.6904   0.7846   0.8897   0.9179
     1.0407   1.1027   1.1776   1.2358   1.3143   1.3157   1.4373   1.5344
     1.8993   1.9054   1.9533   2.0289   2.0833   2.0981   2.1020   2.1727
     2.5535   2.7605   3.3950   4.2208   4.8325   4.9842   5.1611   5.4580
     5.5365   5.9044   5.9201   6.2428

          k = 0.3333 0.1925-0.3754 (  4077 PWs)   bands (ev):

   -10.9452 -10.7114 -10.6690 -10.5188   0.6597   0.7091   0.7588   0.7915
     1.0648   1.1415   1.1889   1.2437   1.2633   1.2817   1.3610   1.4487
     1.9449   1.9449   1.9816   2.0420   2.0558   2.0566   2.0830   2.0895
     3.1188   3.1735   3.5359   4.3200   4.5120   5.1576   5.1902   5.2438
     5.6599   5.6884   5.7280   6.0956

          k =-0.6667 0.7698-0.1877 (  4076 PWs)   bands (ev):

   -10.5480 -10.5480 -10.4022 -10.4022   0.8235   0.8235   0.9931   0.9931
     1.1809   1.1809   1.3945   1.3945   1.5112   1.5112   1.6297   1.6297
     1.9019   1.9019   2.0090   2.0090   2.1808   2.1808   2.3414   2.3414
     2.7122   2.7122   3.2691   3.2691   3.9154   3.9154   4.2202   4.2202
     5.0930   5.0930   5.4002   5.4002

          k =-0.6667 0.7698-0.3754 (  4076 PWs)   bands (ev):

   -10.5159 -10.5159 -10.4317 -10.4317   0.7968   0.7968   0.8835   0.8835
     1.1800   1.1800   1.3626   1.3626   1.4692   1.4692   1.5579   1.5579
     1.9506   1.9506   2.0376   2.0376   2.1907   2.1907   2.2686   2.2686
     2.8276   2.8276   3.1862   3.1862   4.2458   4.2459   4.5299   4.5299
     5.0292   5.0292   5.2072   5.2072

     highest occupied level (ev):     6.4376

!    total energy              =    -723.25423118 Ry
     estimated scf accuracy    <          8.3E-09 Ry

     The total energy is the sum of the following terms:
     one-electron contribution =    -315.14279703 Ry
     hartree contribution      =     238.39317270 Ry
     xc contribution           =    -218.90437047 Ry
     ewald contribution        =    -427.60023638 Ry

     convergence has been achieved in  29 iterations

     Forces acting on atoms (cartesian axes, Ry/au):

     atom    1 type  1   force =    -0.00001190   -0.00000687    0.00545373
     atom    2 type  2   force =     0.00000337    0.00000194   -0.00545923
     atom    3 type  1   force =     0.00001298    0.00000749    0.00546354
     atom    4 type  2   force =    -0.00000450   -0.00000260   -0.00545947
     atom    5 type  1   force =    -0.00001281   -0.00000740    0.00545480
     atom    6 type  2   force =     0.00000330    0.00000191   -0.00545923
     atom    7 type  1   force =     0.00001392    0.00000804    0.00546523
     atom    8 type  2   force =    -0.00000436   -0.00000252   -0.00545937
     The non-local contrib.  to forces
     atom    1 type  1   force =     0.00000641    0.00000370   -0.12966833
     atom    2 type  2   force =    -0.00021107   -0.00012186   -0.10988144
     atom    3 type  1   force =    -0.00000667   -0.00000385   -0.12966362
     atom    4 type  2   force =     0.00021061    0.00012159   -0.10988165
     atom    5 type  1   force =     0.00000596    0.00000344   -0.12966752
     atom    6 type  2   force =    -0.00021249   -0.00012268   -0.10988109
     atom    7 type  1   force =    -0.00000626   -0.00000361   -0.12966406
     atom    8 type  2   force =     0.00021148    0.00012210   -0.10988090
     The ionic contribution  to forces
     atom    1 type  1   force =     0.00000000    0.00000000   -1.11546603
     atom    2 type  2   force =    -0.00000000   -0.00000000    1.11546603
     atom    3 type  1   force =    -0.00000000   -0.00000000   -1.11546603
     atom    4 type  2   force =     0.00000000    0.00000000    1.11546603
     atom    5 type  1   force =     0.00000000    0.00000000   -1.11546603
     atom    6 type  2   force =    -0.00000000   -0.00000000    1.11546603
     atom    7 type  1   force =    -0.00000000   -0.00000000   -1.11546603
     atom    8 type  2   force =     0.00000000    0.00000000    1.11546603
     The local contribution  to forces
     atom    1 type  1   force =    -0.00002575   -0.00001487    1.24340315
     atom    2 type  2   force =     0.00021231    0.00012258   -1.01192879
     atom    3 type  1   force =     0.00002534    0.00001463    1.24338785
     atom    4 type  2   force =    -0.00021234   -0.00012260   -1.01193144
     atom    5 type  1   force =    -0.00002366   -0.00001366    1.24340118
     atom    6 type  2   force =     0.00021320    0.00012309   -1.01192991
     atom    7 type  1   force =     0.00002296    0.00001326    1.24338749
     atom    8 type  2   force =    -0.00021285   -0.00012289   -1.01192982
     The core correction contribution to forces
     atom    1 type  1   force =     0.00000499    0.00000288    0.00718337
     atom    2 type  2   force =     0.00000241    0.00000139    0.00088808
     atom    3 type  1   force =    -0.00000503   -0.00000290    0.00718361
     atom    4 type  2   force =    -0.00000241   -0.00000139    0.00088807
     atom    5 type  1   force =     0.00000492    0.00000284    0.00718341
     atom    6 type  2   force =     0.00000243    0.00000140    0.00088807
     atom    7 type  1   force =    -0.00000494   -0.00000285    0.00718360
     atom    8 type  2   force =    -0.00000242   -0.00000140    0.00088807
     The Hubbard contrib.    to forces
     atom    1 type  1   force =     0.00000000    0.00000000    0.00000000
     atom    2 type  2   force =     0.00000000    0.00000000    0.00000000
     atom    3 type  1   force =     0.00000000    0.00000000    0.00000000
     atom    4 type  2   force =     0.00000000    0.00000000    0.00000000
     atom    5 type  1   force =     0.00000000    0.00000000    0.00000000
     atom    6 type  2   force =     0.00000000    0.00000000    0.00000000
     atom    7 type  1   force =     0.00000000    0.00000000    0.00000000
     atom    8 type  2   force =     0.00000000    0.00000000    0.00000000
     The SCF correction term to forces
     atom    1 type  1   force =     0.00000307    0.00000177    0.00000665
     atom    2 type  2   force =     0.00000034    0.00000019    0.00000196
     atom    3 type  1   force =    -0.00000004   -0.00000002    0.00002681
     atom    4 type  2   force =     0.00000026    0.00000015    0.00000459
     atom    5 type  1   force =     0.00000059    0.00000034    0.00000884
     atom    6 type  2   force =     0.00000079    0.00000045    0.00000274
     atom    7 type  1   force =     0.00000277    0.00000160    0.00002931
     atom    8 type  2   force =     0.00000005    0.00000003    0.00000231

     Total force =     0.015441     Total SCF correction =     0.000042

     Writing all to output data dir ./ZnO-3.20-1.78-211.in.save/

     init_run     :      4.63s CPU      4.23s WALL (       1 calls)
     electrons    :    292.31s CPU    239.98s WALL (       1 calls)
     forces       :      1.23s CPU      0.99s WALL (       1 calls)

     Called by init_run:
     wfcinit      :      2.99s CPU      2.56s WALL (       1 calls)
     potinit      :      0.48s CPU      0.49s WALL (       1 calls)
     hinit0       :      0.97s CPU      0.98s WALL (       1 calls)

     Called by electrons:
     c_bands      :    260.63s CPU    212.39s WALL (      29 calls)
     sum_band     :     28.17s CPU     24.65s WALL (      29 calls)
     v_of_rho     :      1.07s CPU      0.96s WALL (      30 calls)
     newd         :      2.22s CPU      1.80s WALL (      30 calls)
     mix_rho      :      0.18s CPU      0.16s WALL (      29 calls)

     Called by c_bands:
     init_us_2    :      1.64s CPU      1.37s WALL (    2400 calls)
     init_us_2:cp :      1.62s CPU      1.36s WALL (    2400 calls)
     cegterg      :    244.31s CPU    198.84s WALL (    1160 calls)

     Called by *egterg:
     cdiaghg      :     34.28s CPU     26.90s WALL (    6921 calls)
     h_psi        :    165.00s CPU    147.53s WALL (    6961 calls)
     s_psi        :     10.38s CPU      5.59s WALL (    6961 calls)
     g_psi        :      0.83s CPU      0.59s WALL (    5761 calls)

     Called by h_psi:
     h_psi:calbec :     10.78s CPU      6.52s WALL (    6961 calls)
     vloc_psi     :    143.32s CPU    134.92s WALL (    6961 calls)
     add_vuspsi   :     10.44s CPU      5.74s WALL (    6961 calls)

     General routines
     calbec       :     13.96s CPU      8.38s WALL (    8281 calls)
     fft          :      0.96s CPU      0.97s WALL (     399 calls)
     ffts         :      0.19s CPU      0.19s WALL (      59 calls)
     fftw         :    145.50s CPU    138.02s WALL (  339882 calls)
     interpolate  :      0.22s CPU      0.22s WALL (      30 calls)

     Parallel routines

     PWSCF        :   4m58.73s CPU   4m 5.99s WALL


   This run was terminated on:  14:34: 3  12Jul2025            

=------------------------------------------------------------------------------=
   JOB DONE.
=------------------------------------------------------------------------------=
Note: The following floating-point exceptions are signalling: IEEE_INVALID_FLAG
Note: The following floating-point exceptions are signalling: IEEE_INVALID_FLAG
