Authorization required, but no authorization protocol specified

Authorization required, but no authorization protocol specified

Authorization required, but no authorization protocol specified

Authorization required, but no authorization protocol specified

Authorization required, but no authorization protocol specified

Authorization required, but no authorization protocol specified

Authorization required, but no authorization protocol specified

Authorization required, but no authorization protocol specified

Authorization required, but no authorization protocol specified

Authorization required, but no authorization protocol specified

Authorization required, but no authorization protocol specified

Authorization required, but no authorization protocol specified

Authorization required, but no authorization protocol specified

Authorization required, but no authorization protocol specified

Authorization required, but no authorization protocol specified

Authorization required, but no authorization protocol specified

Authorization required, but no authorization protocol specified

Authorization required, but no authorization protocol specified


     Program PWSCF v.7.2 starts on 12Jul2025 at 13: 4: 9 

     This program is part of the open-source Quantum ESPRESSO suite
     for quantum simulation of materials; please cite
         "P. Giannozzi et al., J. Phys.:Condens. Matter 21 395502 (2009);
         "P. Giannozzi et al., J. Phys.:Condens. Matter 29 465901 (2017);
         "P. Giannozzi et al., J. Chem. Phys. 152 154105 (2020);
          URL http://www.quantum-espresso.org", 
     in publications or presentations arising from this work. More details at
     http://www.quantum-espresso.org/quote

     Parallel version (MPI), running on    16 processors

     MPI processes distributed on     1 nodes
     48950 MiB available memory on the printing compute node when the environment starts

     Reading input from /home/jvc/QEspresso7.2/ZnO_database/scripts/cell211_strain10%.in/ZnO-3.07-1.68-211.in
Warning: card &CELL ignored
Warning: card / ignored
Warning: card &FCP ignored
Warning: card / ignored
Warning: card &RISM ignored
Warning: card / ignored

     Current dimensions of program PWSCF are:
     Max number of different atomic species (ntypx) = 10
     Max number of k-points (npk) =  40000
     Max angular momentum in pseudopotentials (lmaxx) =  4
     file Zn.upf: wavefunction(s)  3D renormalized
     Found identity + ( -0.5000  0.0000  0.0000) symmetry
     This is a supercell, fractional translations are disabled
     Message from routine setup:
     using ibrav=0 with symmetry is DISCOURAGED, use correct ibrav instead

     K-points division:     npool     =       2
     R & G space division:  proc/nbgrp/npool/nimage =       8
     Subspace diagonalization in iterative solution of the eigenvalue problem:
     a serial algorithm will be used


     Parallelization info
     --------------------
     sticks:   dense  smooth     PW     G-vecs:    dense   smooth      PW
     Min         231     116     36                 9613     3394     608
     Max         232     117     37                 9616     3397     613
     Sum        1853     931    295                76919    27161    4891

     Using Slab Decomposition



     bravais-lattice index     =            0
     lattice parameter (alat)  =      11.6162  a.u.
     unit-cell volume          =     569.7722 (a.u.)^3
     number of atoms/cell      =            8
     number of atomic types    =            2
     number of electrons       =        72.00
     number of Kohn-Sham states=           36
     kinetic-energy cutoff     =      50.0000  Ry
     charge density cutoff     =     400.0000  Ry
     scf convergence threshold =      1.0E-08
     mixing beta               =       0.3000
     number of iterations used =            8  plain     mixing
     Exchange-correlation= PBE
                           (   1   4   3   4   0   0   0)

     celldm(1)=  11.616245  celldm(2)=   0.000000  celldm(3)=   0.000000
     celldm(4)=   0.000000  celldm(5)=   0.000000  celldm(6)=   0.000000

     crystal axes: (cart. coord. in units of alat)
               a(1) = (   1.000000   0.000000   0.000000 )  
               a(2) = (  -0.250000   0.433013   0.000000 )  
               a(3) = (   0.000000   0.000000   0.839466 )  

     reciprocal axes: (cart. coord. in units 2 pi/alat)
               b(1) = (  1.000000  0.577350 -0.000000 )  
               b(2) = (  0.000000  2.309401  0.000000 )  
               b(3) = (  0.000000 -0.000000  1.191233 )  


     PseudoPot. # 1 for Zn read from file:
     /home/jvc/QEspresso7.2/ZnO_database/pseudos/Zn.upf
     MD5 check sum: 7f56cabf9682ed8c977c2f7d0c5985c5
     Pseudo is Ultrasoft + core correction, Zval = 12.0
     Generated using &quot;atomic&quot; code by A. Dal Corso  v.6.2.2
     Using radial grid of 1201 points,  6 beta functions with: 
                l(1) =   0
                l(2) =   0
                l(3) =   1
                l(4) =   1
                l(5) =   2
                l(6) =   2
     Q(r) pseudized with 0 coefficients 


     PseudoPot. # 2 for O  read from file:
     /home/jvc/QEspresso7.2/ZnO_database/pseudos/O.upf
     MD5 check sum: 91400c9766925bcf19f520983a725ff0
     Pseudo is Ultrasoft + core correction, Zval =  6.0
     Generated using &quot;atomic&quot; code by A. Dal Corso  v.6.3MaX
     Using radial grid of 1095 points,  4 beta functions with: 
                l(1) =   0
                l(2) =   0
                l(3) =   1
                l(4) =   1
     Q(r) pseudized with 0 coefficients 


     atomic species   valence    mass     pseudopotential
        Zn            12.00    65.38000     Zn( 1.00)
        O              6.00    15.99900     O ( 1.00)

      2 Sym. Ops. (no inversion) found



   Cartesian axes

     site n.     atom                  positions (alat units)
         1           Zn  tau(   1) = (   0.0000000   0.0000000   0.0000000  )
         2           O   tau(   2) = (   0.0000000   0.2886751   0.1105972  )
         3           Zn  tau(   3) = (   0.0000000   0.2886751   0.4197332  )
         4           O   tau(   4) = (   0.0000000   0.0000000   0.5303303  )
         5           Zn  tau(   5) = (   0.5000000   0.0000000   0.0000000  )
         6           O   tau(   6) = (   0.5000000   0.2886751   0.1105972  )
         7           Zn  tau(   7) = (   0.5000000   0.2886751   0.4197332  )
         8           O   tau(   8) = (   0.5000000   0.0000000   0.5303303  )

     number of k points=    80
                       cart. coord. in units 2pi/alat
        k(    1) = (   0.0000000   0.0000000   0.0000000), wk =   0.0092593
        k(    2) = (   0.0000000   0.0000000   0.1985388), wk =   0.0185185
        k(    3) = (   0.0000000   0.0000000   0.3970777), wk =   0.0185185
        k(    4) = (   0.0000000   0.0000000  -0.5956165), wk =   0.0092593
        k(    5) = (   0.0000000   0.3849002   0.0000000), wk =   0.0370370
        k(    6) = (   0.0000000   0.3849002   0.1985388), wk =   0.0370370
        k(    7) = (   0.0000000   0.3849002   0.3970777), wk =   0.0370370
        k(    8) = (   0.0000000   0.3849002  -0.5956165), wk =   0.0370370
        k(    9) = (   0.0000000   0.7698004   0.0000000), wk =   0.0370370
        k(   10) = (   0.0000000   0.7698004   0.1985388), wk =   0.0370370
        k(   11) = (   0.0000000   0.7698004   0.3970777), wk =   0.0370370
        k(   12) = (   0.0000000   0.7698004  -0.5956165), wk =   0.0370370
        k(   13) = (   0.0000000  -1.1547005   0.0000000), wk =   0.0092593
        k(   14) = (   0.0000000  -1.1547005   0.1985388), wk =   0.0185185
        k(   15) = (   0.0000000  -1.1547005   0.3970777), wk =   0.0185185
        k(   16) = (   0.0000000  -1.1547005  -0.5956165), wk =   0.0092593
        k(   17) = (   0.1666667   0.0962250   0.0000000), wk =   0.0185185
        k(   18) = (   0.1666667   0.0962250   0.1985388), wk =   0.0185185
        k(   19) = (   0.1666667   0.0962250   0.3970777), wk =   0.0185185
        k(   20) = (   0.1666667   0.0962250  -0.5956165), wk =   0.0185185
        k(   21) = (   0.1666667   0.4811252   0.0000000), wk =   0.0370370
        k(   22) = (   0.1666667   0.4811252   0.1985388), wk =   0.0370370
        k(   23) = (   0.1666667   0.4811252   0.3970777), wk =   0.0370370
        k(   24) = (   0.1666667   0.4811252  -0.5956165), wk =   0.0370370
        k(   25) = (   0.1666667   0.8660254   0.0000000), wk =   0.0185185
        k(   26) = (   0.1666667   0.8660254   0.1985388), wk =   0.0370370
        k(   27) = (   0.1666667   0.8660254   0.3970777), wk =   0.0370370
        k(   28) = (   0.1666667   0.8660254  -0.5956165), wk =   0.0185185
        k(   29) = (   0.1666667  -1.0584755   0.0000000), wk =   0.0185185
        k(   30) = (   0.1666667  -1.0584755   0.1985388), wk =   0.0185185
        k(   31) = (   0.1666667  -1.0584755   0.3970777), wk =   0.0185185
        k(   32) = (   0.1666667  -1.0584755  -0.5956165), wk =   0.0185185
        k(   33) = (   0.1666667  -0.6735753   0.0000000), wk =   0.0370370
        k(   34) = (   0.1666667  -0.6735753   0.1985388), wk =   0.0370370
        k(   35) = (   0.1666667  -0.6735753   0.3970777), wk =   0.0370370
        k(   36) = (   0.1666667  -0.6735753  -0.5956165), wk =   0.0370370
        k(   37) = (   0.1666667  -0.2886751   0.0000000), wk =   0.0185185
        k(   38) = (   0.1666667  -0.2886751   0.1985388), wk =   0.0370370
        k(   39) = (   0.1666667  -0.2886751   0.3970777), wk =   0.0370370
        k(   40) = (   0.1666667  -0.2886751  -0.5956165), wk =   0.0185185
        k(   41) = (   0.3333333   0.1924501   0.0000000), wk =   0.0185185
        k(   42) = (   0.3333333   0.1924501   0.1985388), wk =   0.0185185
        k(   43) = (   0.3333333   0.1924501   0.3970777), wk =   0.0185185
        k(   44) = (   0.3333333   0.1924501  -0.5956165), wk =   0.0185185
        k(   45) = (   0.3333333   0.5773503   0.0000000), wk =   0.0185185
        k(   46) = (   0.3333333   0.5773503   0.1985388), wk =   0.0370370
        k(   47) = (   0.3333333   0.5773503   0.3970777), wk =   0.0370370
        k(   48) = (   0.3333333   0.5773503  -0.5956165), wk =   0.0185185
        k(   49) = (   0.3333333  -0.9622504   0.0000000), wk =   0.0185185
        k(   50) = (   0.3333333  -0.9622504   0.1985388), wk =   0.0185185
        k(   51) = (   0.3333333  -0.9622504   0.3970777), wk =   0.0185185
        k(   52) = (   0.3333333  -0.9622504  -0.5956165), wk =   0.0185185
        k(   53) = (   0.3333333  -0.5773503   0.0000000), wk =   0.0185185
        k(   54) = (   0.3333333  -0.5773503   0.1985388), wk =   0.0370370
        k(   55) = (   0.3333333  -0.5773503   0.3970777), wk =   0.0370370
        k(   56) = (   0.3333333  -0.5773503  -0.5956165), wk =   0.0185185
        k(   57) = (  -0.5000000  -0.2886751   0.0000000), wk =   0.0092593
        k(   58) = (  -0.5000000  -0.2886751   0.1985388), wk =   0.0185185
        k(   59) = (  -0.5000000  -0.2886751   0.3970777), wk =   0.0185185
        k(   60) = (  -0.5000000  -0.2886751  -0.5956165), wk =   0.0092593
        k(   61) = (  -0.5000000  -1.4433757   0.0000000), wk =   0.0092593
        k(   62) = (  -0.5000000  -1.4433757   0.1985388), wk =   0.0185185
        k(   63) = (  -0.5000000  -1.4433757   0.3970777), wk =   0.0185185
        k(   64) = (  -0.5000000  -1.4433757  -0.5956165), wk =   0.0092593
        k(   65) = (   0.3333333  -0.1924501  -0.1985388), wk =   0.0370370
        k(   66) = (   0.3333333  -0.1924501  -0.3970777), wk =   0.0370370
        k(   67) = (   0.6666667  -0.3849002  -0.1985388), wk =   0.0370370
        k(   68) = (   0.6666667  -0.3849002  -0.3970777), wk =   0.0370370
        k(   69) = (   0.1666667   0.0962250  -0.1985388), wk =   0.0185185
        k(   70) = (   0.1666667   0.0962250  -0.3970777), wk =   0.0185185
        k(   71) = (   0.5000000  -0.0962250  -0.1985388), wk =   0.0370370
        k(   72) = (   0.5000000  -0.0962250  -0.3970777), wk =   0.0370370
        k(   73) = (  -0.8333333   0.6735753  -0.1985388), wk =   0.0185185
        k(   74) = (  -0.8333333   0.6735753  -0.3970777), wk =   0.0185185
        k(   75) = (  -0.5000000   0.4811252  -0.1985388), wk =   0.0370370
        k(   76) = (  -0.5000000   0.4811252  -0.3970777), wk =   0.0370370
        k(   77) = (   0.3333333   0.1924501  -0.1985388), wk =   0.0185185
        k(   78) = (   0.3333333   0.1924501  -0.3970777), wk =   0.0185185
        k(   79) = (  -0.6666667   0.7698004  -0.1985388), wk =   0.0185185
        k(   80) = (  -0.6666667   0.7698004  -0.3970777), wk =   0.0185185

     Dense  grid:    76919 G-vectors     FFT dimensions: (  75,  40,  64)

     Smooth grid:    27161 G-vectors     FFT dimensions: (  54,  27,  45)

     Estimated max dynamical RAM per process >      33.81 MB

     Estimated total dynamical RAM >     522.25 MB

     Check: negative core charge=   -0.000002

     Initial potential from superposition of free atoms

     starting charge      71.9851, renormalised to      72.0000
     Starting wfcs are   52 randomized atomic wfcs

     total cpu time spent up to now is        3.8 secs

     Self-consistent Calculation

     iteration #  1     ecut=    50.00 Ry     beta= 0.30
     Davidson diagonalization with overlap
     ethr =  1.00E-02,  avg # of iterations =  2.0

     total cpu time spent up to now is        7.8 secs

     total energy              =    -722.90893549 Ry
     estimated scf accuracy    <       1.34428875 Ry

     iteration #  2     ecut=    50.00 Ry     beta= 0.30
     Davidson diagonalization with overlap
     ethr =  1.87E-03,  avg # of iterations =  2.0

     total cpu time spent up to now is       12.5 secs

     total energy              =    -723.03159117 Ry
     estimated scf accuracy    <       0.23241635 Ry

     iteration #  3     ecut=    50.00 Ry     beta= 0.30
     Davidson diagonalization with overlap
     ethr =  3.23E-04,  avg # of iterations =  6.3

     total cpu time spent up to now is       20.9 secs

     total energy              =    -723.14252869 Ry
     estimated scf accuracy    <       0.16633818 Ry

     iteration #  4     ecut=    50.00 Ry     beta= 0.30
     Davidson diagonalization with overlap
     ethr =  2.31E-04,  avg # of iterations =  4.1

     total cpu time spent up to now is       26.6 secs

     total energy              =    -723.21504188 Ry
     estimated scf accuracy    <       0.01098597 Ry

     iteration #  5     ecut=    50.00 Ry     beta= 0.30
     Davidson diagonalization with overlap
     ethr =  1.53E-05,  avg # of iterations = 11.2

     total cpu time spent up to now is       40.4 secs

     total energy              =    -723.33248230 Ry
     estimated scf accuracy    <       0.55597494 Ry

     iteration #  6     ecut=    50.00 Ry     beta= 0.30
     Davidson diagonalization with overlap
     ethr =  1.53E-05,  avg # of iterations =  1.1

     total cpu time spent up to now is       44.1 secs

     total energy              =    -723.39819757 Ry
     estimated scf accuracy    <       0.52554395 Ry

     iteration #  7     ecut=    50.00 Ry     beta= 0.30
     Davidson diagonalization with overlap
     ethr =  1.53E-05,  avg # of iterations =  4.6

     total cpu time spent up to now is       50.0 secs

     total energy              =    -722.96817669 Ry
     estimated scf accuracy    <       0.72020966 Ry

     iteration #  8     ecut=    50.00 Ry     beta= 0.30
     Davidson diagonalization with overlap
     ethr =  1.53E-05,  avg # of iterations = 13.2

     total cpu time spent up to now is       66.0 secs

     total energy              =    -723.21892721 Ry
     estimated scf accuracy    <       0.11922581 Ry

     iteration #  9     ecut=    50.00 Ry     beta= 0.30
     Davidson diagonalization with overlap
     ethr =  1.53E-05,  avg # of iterations =  1.4

     total cpu time spent up to now is       69.8 secs

     total energy              =    -723.20186260 Ry
     estimated scf accuracy    <       0.10746975 Ry

     iteration # 10     ecut=    50.00 Ry     beta= 0.30
     Davidson diagonalization with overlap
     ethr =  1.53E-05,  avg # of iterations =  2.1

     total cpu time spent up to now is       74.3 secs

     total energy              =    -723.17171971 Ry
     estimated scf accuracy    <       0.06991575 Ry

     iteration # 11     ecut=    50.00 Ry     beta= 0.30
     Davidson diagonalization with overlap
     ethr =  1.53E-05,  avg # of iterations =  8.3

     total cpu time spent up to now is       84.3 secs

     total energy              =    -723.19208721 Ry
     estimated scf accuracy    <       0.00130667 Ry

     iteration # 12     ecut=    50.00 Ry     beta= 0.30
     Davidson diagonalization with overlap
     ethr =  1.81E-06,  avg # of iterations =  4.5

     total cpu time spent up to now is       89.6 secs

     total energy              =    -723.19233514 Ry
     estimated scf accuracy    <       0.00152697 Ry

     iteration # 13     ecut=    50.00 Ry     beta= 0.30
     Davidson diagonalization with overlap
     ethr =  1.81E-06,  avg # of iterations =  1.0

     total cpu time spent up to now is       93.2 secs

     total energy              =    -723.19181094 Ry
     estimated scf accuracy    <       0.00166420 Ry

     iteration # 14     ecut=    50.00 Ry     beta= 0.30
     Davidson diagonalization with overlap
     ethr =  1.81E-06,  avg # of iterations =  1.8

     total cpu time spent up to now is       97.1 secs

     total energy              =    -723.19200715 Ry
     estimated scf accuracy    <       0.00068136 Ry

     iteration # 15     ecut=    50.00 Ry     beta= 0.30
     Davidson diagonalization with overlap
     ethr =  9.46E-07,  avg # of iterations =  1.0

     total cpu time spent up to now is      100.7 secs

     total energy              =    -723.19205627 Ry
     estimated scf accuracy    <       0.00090201 Ry

     iteration # 16     ecut=    50.00 Ry     beta= 0.30
     Davidson diagonalization with overlap
     ethr =  9.46E-07,  avg # of iterations =  1.0

     total cpu time spent up to now is      104.3 secs

     total energy              =    -723.19191377 Ry
     estimated scf accuracy    <       0.00084660 Ry

     iteration # 17     ecut=    50.00 Ry     beta= 0.30
     Davidson diagonalization with overlap
     ethr =  9.46E-07,  avg # of iterations =  1.1

     total cpu time spent up to now is      107.9 secs

     total energy              =    -723.19183879 Ry
     estimated scf accuracy    <       0.00043595 Ry

     iteration # 18     ecut=    50.00 Ry     beta= 0.30
     Davidson diagonalization with overlap
     ethr =  6.05E-07,  avg # of iterations =  1.6

     total cpu time spent up to now is      111.8 secs

     total energy              =    -723.19178906 Ry
     estimated scf accuracy    <       0.00020285 Ry

     iteration # 19     ecut=    50.00 Ry     beta= 0.30
     Davidson diagonalization with overlap
     ethr =  2.82E-07,  avg # of iterations =  4.1

     total cpu time spent up to now is      117.6 secs

     total energy              =    -723.19186282 Ry
     estimated scf accuracy    <       0.00000010 Ry

     iteration # 20     ecut=    50.00 Ry     beta= 0.30
     Davidson diagonalization with overlap
     c_bands:  3 eigenvalues not converged
     c_bands:  1 eigenvalues not converged
     c_bands:  1 eigenvalues not converged
     c_bands:  1 eigenvalues not converged
     c_bands:  1 eigenvalues not converged
     c_bands:  2 eigenvalues not converged
     c_bands:  1 eigenvalues not converged
     c_bands:  2 eigenvalues not converged
     ethr =  1.41E-10,  avg # of iterations = 16.2

     total cpu time spent up to now is      138.1 secs

     total energy              =    -723.19186484 Ry
     estimated scf accuracy    <       0.00002331 Ry

     iteration # 21     ecut=    50.00 Ry     beta= 0.30
     Davidson diagonalization with overlap
     c_bands:  1 eigenvalues not converged
     c_bands:  1 eigenvalues not converged
     ethr =  1.41E-10,  avg # of iterations = 14.0

     total cpu time spent up to now is      155.4 secs

     End of self-consistent calculation

          k = 0.0000 0.0000 0.0000 (  3399 PWs)   bands (ev):

    -9.9294  -9.0694  -9.0295  -8.7697   2.3941   2.4345   2.5589   2.7500
     2.8905   2.8908   3.1282   3.1568   3.1570   3.4308   3.4863   3.8536
     4.3969   4.4248   4.4248   4.6725   4.6783   4.6784   4.7472   4.8617
     4.9526   5.2606   5.4071   6.0253   6.6530   7.6194   8.2907   8.2910
     8.3368   9.0870   9.2342   9.2346

          k = 0.0000 0.0000 0.1985 (  3410 PWs)   bands (ev):

    -9.8758  -9.1313  -9.0099  -8.7846   2.3539   2.3714   2.4569   2.6863
     2.9021   2.9023   3.1318   3.1320   3.1643   3.4269   3.4607   3.7867
     4.4467   4.4467   4.4818   4.6673   4.6673   4.6747   4.7341   4.8570
     5.2236   5.2256   5.3656   6.2917   6.7877   7.6900   8.2342   8.3545
     8.3548   8.5207   9.1717   9.1721

          k = 0.0000 0.0000 0.3971 (  3426 PWs)   bands (ev):

    -9.7266  -9.2972  -8.9578  -8.8274   2.2496   2.2779   2.3205   2.5347
     2.9382   2.9384   3.0697   3.0699   3.2700   3.4189   3.4284   3.6227
     4.5029   4.5030   4.6315   4.6315   4.6343   4.6811   4.7108   4.8315
     5.1971   5.2816   5.9004   6.8791   7.1279   7.6570   7.7227   7.9511
     8.5284   8.5287   9.0004   9.0007

          k = 0.0000 0.0000-0.5956 (  3402 PWs)   bands (ev):

    -9.5161  -9.5160  -8.8904  -8.8903   2.1944   2.1944   2.3860   2.3861
     2.9978   2.9979   2.9980   2.9981   3.4159   3.4159   3.4322   3.4323
     4.5729   4.5729   4.5730   4.5730   4.6925   4.6926   4.7597   4.7598
     5.2157   5.2158   6.7604   6.7605   7.4467   7.4467   7.5522   7.5522
     8.7651   8.7652   8.7654   8.7655

          k = 0.0000 0.3849 0.0000 (  3390 PWs)   bands (ev):

    -9.7373  -9.0413  -8.9764  -8.7644   2.5440   2.5807   2.7853   2.8018
     2.8527   2.9740   3.1014   3.1271   3.2984   3.3559   3.5704   3.8309
     4.3358   4.3750   4.4052   4.4265   4.6909   4.7119   4.7712   4.9316
     4.9426   5.1221   5.6512   6.0474   6.3623   7.3022   7.6389   7.9108
     8.0074   8.1220   8.8811   9.0336

          k = 0.0000 0.3849 0.1985 (  3405 PWs)   bands (ev):

    -9.6889  -9.0300  -9.0206  -8.7806   2.4975   2.5035   2.6399   2.6953
     2.9077   2.9897   3.0878   3.1321   3.2693   3.3080   3.5642   3.7482
     4.3697   4.3712   4.4470   4.5410   4.6760   4.6994   4.7699   5.0095
     5.0615   5.2415   5.7606   6.1180   6.5055   7.3695   7.6669   7.9235
     7.9570   7.9886   8.7455   8.9602

          k = 0.0000 0.3849 0.3971 (  3414 PWs)   bands (ev):

    -9.5548  -9.1745  -8.9656  -8.8268   2.3772   2.3987   2.4658   2.4888
     2.9639   3.0363   3.0954   3.0978   3.1963   3.2567   3.5441   3.6208
     4.4557   4.4644   4.5009   4.6001   4.6334   4.6447   4.7824   4.9243
     5.2492   5.6917   5.9554   6.4911   6.9311   7.3814   7.4913   7.7074
     7.8203   8.1988   8.3938   8.7589

          k = 0.0000 0.3849-0.5956 (  3410 PWs)   bands (ev):

    -9.3673  -9.3672  -8.8940  -8.8939   2.3595   2.3596   2.3702   2.3702
     3.0291   3.0292   3.1098   3.1098   3.1760   3.1760   3.5500   3.5501
     4.5566   4.5566   4.5624   4.5624   4.5697   4.5698   4.8301   4.8301
     5.4874   5.4875   6.7600   6.7600   6.9476   6.9476   7.5602   7.5603
     7.9873   7.9874   8.4809   8.4810

          k = 0.0000 0.7698 0.0000 (  3388 PWs)   bands (ev):

    -9.3037  -9.0413  -8.8111  -8.7644   2.3478   2.5441   2.7942   2.8018
     3.0956   3.1013   3.2188   3.3559   3.4746   3.5705   3.6403   3.8308
     4.2955   4.3750   4.4052   4.5386   4.6743   4.7175   4.7712   4.9316
     5.1221   5.1393   5.6512   5.6962   6.0474   6.3622   6.8928   7.1131
     7.6389   8.0073   8.2056   8.5873

          k = 0.0000 0.7698 0.1985 (  3397 PWs)   bands (ev):

    -9.2702  -9.0206  -8.8433  -8.7806   2.3071   2.4976   2.6465   2.6953
     3.0877   3.1241   3.2056   3.3080   3.4166   3.5642   3.5929   3.7481
     4.3352   4.3698   4.5410   4.5491   4.7020   4.7495   4.7699   5.0096
     5.0615   5.3303   5.7607   5.8285   6.1180   6.5054   6.8165   7.2230
     7.6668   7.9235   8.1908   8.4944

          k = 0.0000 0.7698 0.3971 (  3399 PWs)   bands (ev):

    -9.1788  -8.9656  -8.9320  -8.8268   2.2356   2.3881   2.3988   2.4889
     3.0977   3.2061   3.2128   3.2567   3.3322   3.4736   3.5441   3.6207
     4.4441   4.4645   4.5779   4.6001   4.6641   4.6985   4.7825   4.9243
     5.2493   5.6918   5.7252   6.1137   6.4910   6.8531   6.9311   7.4912
     7.5103   7.8203   7.9789   8.2387

          k = 0.0000 0.7698-0.5956 (  3390 PWs)   bands (ev):

    -9.0548  -9.0547  -8.8940  -8.8939   2.2391   2.2391   2.3702   2.3703
     3.1760   3.1760   3.2590   3.2591   3.3307   3.3308   3.5500   3.5500
     4.5624   4.5625   4.5776   4.5777   4.6190   4.6191   4.8301   4.8301
     5.4875   5.4875   6.0131   6.0132   6.9474   6.9475   7.4355   7.4355
     7.5602   7.5602   7.8818   7.8819

          k = 0.0000-1.1547 0.0000 (  3372 PWs)   bands (ev):

    -9.0295  -9.0295  -8.7697  -8.7697   2.4346   2.4346   2.5590   2.5591
     3.1280   3.1280   3.4309   3.4309   3.4863   3.4863   3.8534   3.8534
     4.3969   4.3969   4.6725   4.6725   4.7473   4.7473   4.8618   4.8618
     5.2607   5.2607   5.4072   5.4072   6.0253   6.0253   6.6528   6.6528
     7.6193   7.6194   8.3365   8.3366

          k = 0.0000-1.1547 0.1985 (  3380 PWs)   bands (ev):

    -9.0099  -9.0099  -8.7847  -8.7846   2.3715   2.3715   2.4571   2.4571
     3.1642   3.1642   3.4269   3.4269   3.4607   3.4607   3.7866   3.7866
     4.4818   4.4818   4.6747   4.6748   4.7341   4.7341   4.8571   4.8571
     5.2257   5.2257   5.3657   5.3657   6.2917   6.2917   6.7875   6.7875
     7.6899   7.6900   8.2340   8.2340

          k = 0.0000-1.1547 0.3971 (  3376 PWs)   bands (ev):

    -8.9578  -8.9578  -8.8275  -8.8274   2.2497   2.2497   2.2780   2.2780
     3.2698   3.2698   3.4190   3.4190   3.4285   3.4285   3.6225   3.6225
     4.6343   4.6343   4.6811   4.6811   4.7108   4.7108   4.8316   4.8316
     5.1972   5.1972   5.2817   5.2817   6.8791   6.8791   7.1276   7.1276
     7.7227   7.7227   7.9508   7.9508

          k = 0.0000-1.1547-0.5956 (  3400 PWs)   bands (ev):

    -8.8904  -8.8904  -8.8903  -8.8902   2.1945   2.1945   2.1945   2.1945
     3.4160   3.4160   3.4160   3.4160   3.4320   3.4320   3.4321   3.4321
     4.6925   4.6926   4.6926   4.6926   4.7598   4.7598   4.7599   4.7599
     5.2158   5.2158   5.2158   5.2158   7.4467   7.4467   7.4467   7.4468
     7.5519   7.5519   7.5520   7.5520

          k = 0.1667 0.0962 0.0000 (  3413 PWs)   bands (ev):

    -9.8791  -9.1119  -9.0442  -8.7730   2.3579   2.4700   2.6727   2.7770
     2.8343   2.9140   3.1212   3.1423   3.1934   3.3858   3.4880   3.7931
     4.3927   4.4009   4.4222   4.6288   4.6822   4.6915   4.7370   4.9160
     4.9442   5.0426   5.4086   6.3414   6.7840   7.8052   8.0124   8.1892
     8.4062   8.7682   9.0385   9.1823

          k = 0.1667 0.0962 0.1985 (  3411 PWs)   bands (ev):

    -9.8268  -9.1040  -9.0875  -8.7937   2.3081   2.4103   2.5510   2.6824
     2.8792   2.9266   3.1240   3.1556   3.1675   3.3644   3.4632   3.7327
     4.4257   4.4439   4.4441   4.6334   4.6698   4.6768   4.7236   4.8769
     5.1091   5.2263   5.5703   6.4016   6.9107   7.8539   8.0744   8.2568
     8.3063   8.3837   8.9803   9.1167

          k = 0.1667 0.0962 0.3971 (  3413 PWs)   bands (ev):

    -9.6814  -9.2644  -9.0218  -8.8518   2.2182   2.3308   2.3437   2.5215
     2.9332   2.9653   3.0690   3.1032   3.2546   3.3507   3.4167   3.5825
     4.4896   4.5004   4.5483   4.6317   4.6350   4.6468   4.6955   4.7742
     5.2898   5.6298   5.9170   6.8288   7.2347   7.6237   7.8114   8.0307
     8.2701   8.4406   8.7861   8.9370

          k = 0.1667 0.0962-0.5956 (  3412 PWs)   bands (ev):

    -9.4767  -9.4766  -8.9350  -8.9349   2.2038   2.2038   2.3840   2.3840
     2.9981   2.9981   3.0278   3.0279   3.3724   3.3725   3.4061   3.4062
     4.5674   4.5674   4.5706   4.5707   4.6630   4.6631   4.6681   4.6681
     5.4828   5.4828   6.7719   6.7719   7.4386   7.4386   7.6436   7.6436
     8.5236   8.5237   8.6898   8.6899

          k = 0.1667 0.4811 0.0000 (  3401 PWs)   bands (ev):

    -9.6087  -9.2169  -8.9197  -8.7876   2.5208   2.5578   2.7375   2.7854
     2.9162   3.0752   3.0860   3.1676   3.2842   3.3934   3.5616   3.6695
     4.2558   4.2969   4.4265   4.4288   4.6948   4.7137   4.7339   4.8463
     4.9788   5.1941   5.8287   6.3687   6.7561   6.8548   7.4087   7.8646
     8.0941   8.2254   8.7221   8.8464

          k = 0.1667 0.4811 0.1985 (  3411 PWs)   bands (ev):

    -9.5642  -9.1871  -8.9674  -8.8149   2.4647   2.4976   2.6360   2.6537
     2.9497   3.0528   3.0858   3.1944   3.2090   3.3617   3.4947   3.6160
     4.2984   4.3381   4.4560   4.5394   4.6794   4.7203   4.7247   4.8607
     5.2700   5.3224   6.0033   6.4369   6.7410   6.9349   7.4103   7.8240
     8.0676   8.1438   8.6103   8.7641

          k = 0.1667 0.4811 0.3971 (  3414 PWs)   bands (ev):

    -9.4413  -9.1062  -9.0966  -8.8910   2.3614   2.3795   2.4281   2.4559
     3.0004   3.0689   3.1107   3.1616   3.1738   3.2830   3.4333   3.5096
     4.4218   4.4367   4.5098   4.6036   4.6359   4.6601   4.7060   4.7760
     5.6619   5.9755   6.1775   6.7248   6.9406   7.0751   7.3182   7.8011
     7.9366   7.9752   8.2363   8.5391

          k = 0.1667 0.4811-0.5956 (  3404 PWs)   bands (ev):

    -9.2705  -9.2705  -8.9974  -8.9973   2.3353   2.3353   2.3354   2.3354
     3.0557   3.0558   3.1486   3.1486   3.1975   3.1975   3.4286   3.4286
     4.5544   4.5545   4.5620   4.5620   4.5759   4.5760   4.6993   4.6993
     5.9642   5.9642   6.6745   6.6745   7.2041   7.2041   7.6050   7.6050
     7.6883   7.6883   8.2350   8.2350

          k = 0.1667 0.8660 0.0000 (  3396 PWs)   bands (ev):

    -9.1786  -9.1786  -8.7814  -8.7814   2.3898   2.3898   2.7615   2.7615
     3.0828   3.0829   3.3230   3.3230   3.5156   3.5157   3.7368   3.7368
     4.3533   4.3533   4.4991   4.4991   4.7335   4.7335   4.8351   4.8352
     5.1580   5.1580   5.5128   5.5128   6.5722   6.5723   6.7250   6.7250
     7.9663   7.9663   8.3684   8.3684

          k = 0.1667 0.8660 0.1985 (  3402 PWs)   bands (ev):

    -9.1507  -9.1507  -8.8064  -8.8063   2.3440   2.3440   2.6329   2.6330
     3.1094   3.1094   3.2917   3.2917   3.4772   3.4772   3.6744   3.6744
     4.3708   4.3708   4.5711   4.5712   4.7221   4.7221   4.8483   4.8483
     5.2381   5.2381   5.7081   5.7081   6.5376   6.5376   6.8549   6.8549
     7.9870   7.9870   8.2679   8.2679

          k = 0.1667 0.8660 0.3971 (  3394 PWs)   bands (ev):

    -9.0752  -9.0751  -8.8760  -8.8760   2.2619   2.2619   2.3953   2.3953
     3.1819   3.1819   3.2699   3.2699   3.4229   3.4229   3.5410   3.5410
     4.4684   4.4684   4.6158   4.6158   4.6975   4.6975   4.7642   4.7642
     5.4865   5.4865   5.8927   5.8927   6.7886   6.7886   7.1739   7.1739
     7.8634   7.8634   8.0064   8.0064

          k = 0.1667 0.8660-0.5956 (  3388 PWs)   bands (ev):

    -8.9742  -8.9742  -8.9741  -8.9740   2.2559   2.2559   2.2559   2.2559
     3.2574   3.2575   3.2575   3.2575   3.4239   3.4239   3.4239   3.4240
     4.5873   4.5873   4.5873   4.5873   4.6880   4.6880   4.6881   4.6881
     5.7336   5.7336   5.7336   5.7336   7.3671   7.3672   7.3672   7.3672
     7.6472   7.6472   7.6472   7.6473

          k = 0.1667-1.0585 0.0000 (  3364 PWs)   bands (ev):

    -9.0335  -9.0335  -8.7679  -8.7678   2.4488   2.4488   2.6667   2.6667
     3.1090   3.1090   3.4345   3.4345   3.4707   3.4707   3.8496   3.8496
     4.3907   4.3907   4.6009   4.6009   4.7583   4.7584   4.9032   4.9032
     5.1657   5.1657   5.4907   5.4907   6.0563   6.0564   6.5651   6.5651
     7.6067   7.6068   8.2331   8.2331

          k = 0.1667-1.0585 0.1985 (  3368 PWs)   bands (ev):

    -9.0136  -9.0135  -8.7832  -8.7832   2.3924   2.3924   2.5536   2.5536
     3.1296   3.1296   3.4084   3.4084   3.4748   3.4748   3.7785   3.7785
     4.4596   4.4596   4.6160   4.6161   4.7516   4.7516   4.9048   4.9048
     5.1333   5.1333   5.5191   5.5191   6.2490   6.2490   6.7059   6.7059
     7.6719   7.6719   8.1293   8.1293

          k = 0.1667-1.0585 0.3971 (  3392 PWs)   bands (ev):

    -8.9605  -8.9604  -8.8272  -8.8272   2.2840   2.2840   2.3528   2.3528
     3.2024   3.2024   3.3744   3.3744   3.4732   3.4732   3.6266   3.6266
     4.5676   4.5676   4.6371   4.6371   4.7537   4.7537   4.8671   4.8671
     5.1758   5.1758   5.4376   5.4376   6.7667   6.7667   7.0793   7.0793
     7.6594   7.6594   7.8766   7.8767

          k = 0.1667-1.0585-0.5956 (  3412 PWs)   bands (ev):

    -8.8916  -8.8916  -8.8916  -8.8914   2.2472   2.2472   2.2473   2.2473
     3.3079   3.3079   3.3080   3.3080   3.5058   3.5058   3.5058   3.5058
     4.6278   4.6278   4.6279   4.6279   4.7993   4.7993   4.7993   4.7993
     5.2991   5.2991   5.2991   5.2991   7.2884   7.2885   7.2885   7.2885
     7.5550   7.5550   7.5551   7.5551

          k = 0.1667-0.6736 0.0000 (  3400 PWs)   bands (ev):

    -9.3910  -8.9174  -8.8373  -8.7757   2.4278   2.6281   2.8202   3.0129
     3.0557   3.1922   3.1922   3.3104   3.4035   3.5589   3.6652   3.8923
     4.2568   4.3117   4.4042   4.4698   4.6774   4.7020   4.7135   4.7426
     5.0967   5.2837   5.4043   5.7512   6.0625   6.5324   6.9815   7.2687
     7.2889   7.6021   8.3878   8.5940

          k = 0.1667-0.6736 0.1985 (  3403 PWs)   bands (ev):

    -9.3540  -8.9052  -8.8742  -8.7824   2.3824   2.6310   2.6727   2.8980
     3.0453   3.0853   3.1587   3.2865   3.3602   3.5182   3.6750   3.8257
     4.3063   4.3461   4.4915   4.5113   4.6944   4.7501   4.7693   4.7713
     5.2671   5.3345   5.5234   5.7014   6.1690   6.7153   6.9620   7.2967
     7.3137   7.5549   8.3390   8.5010

          k = 0.1667-0.6736 0.3971 (  3402 PWs)   bands (ev):

    -9.2526  -8.9753  -8.8739  -8.8029   2.2988   2.4218   2.5935   2.6735
     2.9632   3.1036   3.1558   3.1807   3.3025   3.4189   3.6874   3.7542
     4.4210   4.4230   4.5121   4.5569   4.6566   4.6907   4.8643   5.0099
     5.1651   5.4952   5.8868   5.9758   6.4185   6.9003   6.9255   7.2597
     7.5201   7.6392   8.0612   8.2473

          k = 0.1667-0.6736-0.5956 (  3412 PWs)   bands (ev):

    -9.1140  -9.1139  -8.8357  -8.8356   2.2871   2.2871   2.5607   2.5607
     3.0353   3.0353   3.1546   3.1546   3.3162   3.3163   3.7117   3.7118
     4.4799   4.4799   4.5594   4.5594   4.6115   4.6116   4.9942   4.9943
     5.2926   5.2926   6.2835   6.2835   6.4693   6.4694   7.4437   7.4437
     7.5665   7.5666   7.9042   7.9043

          k = 0.1667-0.2887 0.0000 (  3401 PWs)   bands (ev):

    -9.7830  -8.9977  -8.9623  -8.7696   2.5583   2.5998   2.7283   2.8348
     2.8681   2.9697   3.0963   3.1249   3.2635   3.3861   3.5212   3.8888
     4.3615   4.3635   4.4174   4.5289   4.6868   4.7109   4.7767   4.8069
     4.9392   5.3145   5.5914   5.6485   6.5094   7.3501   7.5787   7.8856
     7.9276   8.3547   8.9364   9.0619

          k = 0.1667-0.2887 0.1985 (  3398 PWs)   bands (ev):

    -9.7333  -9.0533  -8.9469  -8.7798   2.5029   2.5202   2.6369   2.7284
     2.8811   2.9762   3.0676   3.1243   3.2362   3.3768   3.5435   3.8129
     4.3916   4.4341   4.4409   4.5440   4.6731   4.6947   4.7970   4.8296
     5.2355   5.2581   5.5260   5.8817   6.6919   7.4037   7.6508   7.8416
     7.8931   8.2105   8.8102   8.9900

          k = 0.1667-0.2887 0.3971 (  3410 PWs)   bands (ev):

    -9.5954  -9.2030  -8.9066  -8.8099   2.3768   2.4270   2.4835   2.5020
     2.9426   3.0108   3.0799   3.0868   3.1674   3.3024   3.5786   3.6927
     4.4680   4.4976   4.5230   4.5620   4.6316   4.6429   4.8841   4.8882
     5.1931   5.3790   5.9451   6.3476   7.1322   7.2739   7.5059   7.7417
     7.8542   8.2564   8.5141   8.7935

          k = 0.1667-0.2887-0.5956 (  3428 PWs)   bands (ev):

    -9.4022  -9.4022  -8.8557  -8.8556   2.3718   2.3718   2.3901   2.3901
     3.0073   3.0073   3.0893   3.0893   3.1775   3.1776   3.6194   3.6195
     4.5582   4.5583   4.5604   4.5605   4.5684   4.5684   4.9374   4.9374
     5.2299   5.2299   6.7742   6.7742   6.8489   6.8489   7.5569   7.5569
     8.1535   8.1535   8.5276   8.5277

          k = 0.3333 0.1925 0.0000 (  3400 PWs)   bands (ev):

    -9.7373  -9.3037  -8.9764  -8.8111   2.3476   2.5807   2.7852   2.7941
     2.8527   2.9742   3.0958   3.1270   3.2188   3.2985   3.4746   3.6405
     4.2954   4.3358   4.4265   4.5386   4.6744   4.6909   4.7119   4.7175
     4.9426   5.1392   5.6961   6.8926   7.1133   7.3020   7.9110   8.1218
     8.2056   8.5875   8.8811   9.0339

          k = 0.3333 0.1925 0.1985 (  3412 PWs)   bands (ev):

    -9.6889  -9.2702  -9.0300  -8.8433   2.3070   2.5035   2.6399   2.6464
     2.9076   2.9899   3.1243   3.1320   3.2055   3.2694   3.4165   3.5930
     4.3352   4.3712   4.4470   4.5490   4.6761   4.6994   4.7020   4.7495
     5.2415   5.3303   5.8283   6.8163   7.2232   7.3693   7.9569   7.9888
     8.1908   8.4947   8.7454   8.9605

          k = 0.3333 0.1925 0.3971 (  3413 PWs)   bands (ev):

    -9.5548  -9.1788  -9.1745  -8.9320   2.2355   2.3771   2.3880   2.4658
     2.9638   3.0365   3.0953   3.1964   3.2063   3.2128   3.3321   3.4738
     4.4441   4.4557   4.5008   4.5779   4.6334   4.6447   4.6641   4.6985
     5.7251   5.9554   6.1136   6.8531   7.3812   7.5105   7.7073   7.9789
     8.1990   8.2389   8.3936   8.7591

          k = 0.3333 0.1925-0.5956 (  3416 PWs)   bands (ev):

    -9.3673  -9.3672  -9.0547  -9.0547   2.2390   2.2390   2.3595   2.3595
     3.0290   3.0291   3.1099   3.1100   3.2590   3.2590   3.3309   3.3309
     4.5566   4.5566   4.5697   4.5698   4.5776   4.5776   4.6190   4.6191
     6.0130   6.0131   6.7600   6.7600   7.4354   7.4354   7.8820   7.8821
     7.9871   7.9872   8.4812   8.4813

          k = 0.3333 0.5774 0.0000 (  3394 PWs)   bands (ev):

    -9.4224  -9.4223  -8.8475  -8.8475   2.5292   2.5292   2.7402   2.7402
     3.0060   3.0060   3.1902   3.1903   3.3629   3.3630   3.5243   3.5243
     4.2593   4.2593   4.4377   4.4377   4.7061   4.7061   4.7284   4.7284
     5.0853   5.0853   6.3551   6.3552   6.7763   6.7764   7.3975   7.3975
     8.4646   8.4647   8.5358   8.5359

          k = 0.3333 0.5774 0.1985 (  3418 PWs)   bands (ev):

    -9.3842  -9.3841  -8.8861  -8.8860   2.4713   2.4713   2.6364   2.6364
     3.0214   3.0214   3.1220   3.1220   3.3383   3.3383   3.4883   3.4883
     4.3052   4.3052   4.4958   4.4958   4.6913   4.6914   4.7581   4.7581
     5.3346   5.3346   6.4663   6.4663   6.8007   6.8007   7.3662   7.3662
     8.4051   8.4051   8.4377   8.4377

          k = 0.3333 0.5774 0.3971 (  3412 PWs)   bands (ev):

    -9.2794  -9.2793  -8.9915  -8.9915   2.3629   2.3629   2.4257   2.4257
     3.0578   3.0578   3.0998   3.0999   3.3005   3.3005   3.4005   3.4005
     4.4206   4.4207   4.5514   4.5514   4.6548   4.6549   4.6931   4.6931
     5.9377   5.9377   6.7061   6.7061   6.8358   6.8358   7.4698   7.4699
     8.1113   8.1114   8.1746   8.1746

          k = 0.3333 0.5774-0.5956 (  3420 PWs)   bands (ev):

    -9.1357  -9.1357  -9.1356  -9.1355   2.3216   2.3216   2.3216   2.3217
     3.0951   3.0951   3.0951   3.0951   3.3152   3.3152   3.3152   3.3153
     4.5570   4.5570   4.5571   4.5571   4.6111   4.6111   4.6112   4.6112
     6.4117   6.4117   6.4117   6.4117   7.4530   7.4530   7.4530   7.4530
     7.8473   7.8473   7.8473   7.8474

          k = 0.3333-0.9623 0.0000 (  3378 PWs)   bands (ev):

    -9.0413  -9.0412  -8.7644  -8.7644   2.5441   2.5441   2.8019   2.8020
     3.1013   3.1013   3.3559   3.3559   3.5705   3.5705   3.8308   3.8308
     4.3750   4.3750   4.4052   4.4052   4.7712   4.7713   4.9316   4.9317
     5.1221   5.1221   5.6512   5.6512   6.0473   6.0473   6.3623   6.3623
     7.6388   7.6389   8.0072   8.0073

          k = 0.3333-0.9623 0.1985 (  3390 PWs)   bands (ev):

    -9.0207  -9.0206  -8.7806  -8.7806   2.4976   2.4976   2.6954   2.6954
     3.0877   3.0877   3.3080   3.3080   3.5642   3.5642   3.7481   3.7481
     4.3697   4.3697   4.5410   4.5410   4.7700   4.7700   5.0096   5.0096
     5.0615   5.0615   5.7607   5.7607   6.1179   6.1179   6.5055   6.5055
     7.6668   7.6668   7.9234   7.9234

          k = 0.3333-0.9623 0.3971 (  3400 PWs)   bands (ev):

    -8.9657  -8.9656  -8.8268  -8.8267   2.3988   2.3988   2.4889   2.4889
     3.0977   3.0977   3.2567   3.2567   3.5441   3.5441   3.6207   3.6207
     4.4644   4.4644   4.6001   4.6001   4.7825   4.7825   4.9244   4.9244
     5.2493   5.2493   5.6918   5.6918   6.4909   6.4909   6.9311   6.9311
     7.4911   7.4911   7.8203   7.8203

          k = 0.3333-0.9623-0.5956 (  3384 PWs)   bands (ev):

    -8.8940  -8.8940  -8.8940  -8.8939   2.3703   2.3703   2.3703   2.3703
     3.1759   3.1760   3.1760   3.1760   3.5500   3.5500   3.5500   3.5500
     4.5624   4.5624   4.5625   4.5625   4.8301   4.8302   4.8302   4.8302
     5.4875   5.4875   5.4875   5.4875   6.9474   6.9474   6.9474   6.9475
     7.5602   7.5602   7.5602   7.5603

          k = 0.3333-0.5774 0.0000 (  3407 PWs)   bands (ev):

    -9.4223  -8.8475  -8.8260  -8.8260   2.5294   2.6373   2.7401   3.0060
     3.1902   3.2300   3.2300   3.3630   3.3836   3.5242   3.7834   3.7834
     4.2592   4.2954   4.4378   4.4714   4.5351   4.5352   4.7061   4.7283
     5.0853   5.2012   5.5475   5.5476   6.3552   6.7764   6.9717   6.9718
     7.3328   7.3974   8.4646   8.5357

          k = 0.3333-0.5774 0.1985 (  3395 PWs)   bands (ev):

    -9.3841  -8.8861  -8.8231  -8.8230   2.4715   2.6364   2.6689   3.0213
     3.0641   3.0641   3.1219   3.2941   3.3384   3.4882   3.8067   3.8067
     4.3052   4.3162   4.4622   4.4958   4.6664   4.6665   4.6914   4.7581
     5.3346   5.3573   5.4837   5.4838   6.4664   6.8008   7.1253   7.1254
     7.1818   7.3660   8.4051   8.4375

          k = 0.3333-0.5774 0.3971 (  3398 PWs)   bands (ev):

    -9.2794  -8.9915  -8.8174  -8.8173   2.3630   2.4258   2.7616   2.8138
     2.8138   3.0578   3.0998   3.1035   3.3005   3.4004   3.8198   3.8199
     4.3563   4.4206   4.4360   4.5515   4.6549   4.6931   4.9130   4.9131
     5.3377   5.3378   5.7545   5.9377   6.7062   6.7859   6.8359   7.4243
     7.4243   7.4697   8.1114   8.1744

          k = 0.3333-0.5774-0.5956 (  3420 PWs)   bands (ev):

    -9.1357  -9.1356  -8.8145  -8.8144   2.3217   2.3217   2.7100   2.7100
     2.9113   2.9114   3.0951   3.0951   3.3151   3.3152   3.8209   3.8209
     4.3982   4.3983   4.5570   4.5571   4.6112   4.6112   5.1095   5.1095
     5.1806   5.1807   6.2689   6.2690   6.4118   6.4118   7.4530   7.4531
     7.5723   7.5723   7.8471   7.8472

          k =-0.5000-0.2887 0.0000 (  3394 PWs)   bands (ev):

    -9.5311  -9.5310  -8.8883  -8.8882   2.4497   2.4497   2.8632   2.8632
     3.0212   3.0212   3.0440   3.0440   3.2526   3.2526   3.4577   3.4577
     4.2619   4.2619   4.4621   4.4621   4.6908   4.6908   4.7020   4.7021
     5.0108   5.0108   6.4496   6.4496   7.4954   7.4954   7.5234   7.5235
     8.5983   8.5984   8.8186   8.8186

          k =-0.5000-0.2887 0.1985 (  3406 PWs)   bands (ev):

    -9.4891  -9.4890  -8.9322  -8.9322   2.4033   2.4033   2.6814   2.6814
     3.0338   3.0339   3.0652   3.0653   3.2455   3.2455   3.4216   3.4216
     4.3142   4.3142   4.4786   4.4786   4.6857   4.6857   4.7210   4.7210
     5.2880   5.2880   6.5351   6.5351   7.3835   7.3835   7.6160   7.6160
     8.5071   8.5071   8.7353   8.7353

          k =-0.5000-0.2887 0.3971 (  3416 PWs)   bands (ev):

    -9.3734  -9.3734  -9.0517  -9.0517   2.3164   2.3164   2.4270   2.4270
     3.0672   3.0672   3.1273   3.1273   3.1943   3.1943   3.3309   3.3309
     4.4251   4.4251   4.5231   4.5231   4.6418   4.6418   4.6635   4.6636
     5.9616   5.9616   6.7283   6.7284   7.2036   7.2037   7.8626   7.8627
     8.1444   8.1444   8.5063   8.5063

          k =-0.5000-0.2887-0.5956 (  3412 PWs)   bands (ev):

    -9.2136  -9.2136  -9.2135  -9.2134   2.3007   2.3007   2.3007   2.3008
     3.1248   3.1248   3.1249   3.1249   3.2219   3.2219   3.2220   3.2220
     4.5525   4.5525   4.5526   4.5526   4.5825   4.5825   4.5826   4.5826
     6.5376   6.5377   6.5377   6.5377   7.5507   7.5507   7.5507   7.5507
     8.1887   8.1887   8.1887   8.1888

          k =-0.5000-1.4434 0.0000 (  3390 PWs)   bands (ev):

    -9.0451  -9.0450  -8.7628  -8.7627   2.6576   2.6576   2.7567   2.7567
     3.1542   3.1542   3.3144   3.3144   3.7223   3.7223   3.7630   3.7630
     4.2455   4.2455   4.3724   4.3724   4.7752   4.7752   4.9151   4.9151
     5.1626   5.1626   5.7429   5.7429   6.0589   6.0589   6.1971   6.1971
     7.7445   7.7445   7.8232   7.8233

          k =-0.5000-1.4434 0.1985 (  3400 PWs)   bands (ev):

    -9.0241  -9.0241  -8.7794  -8.7794   2.6351   2.6351   2.6594   2.6594
     3.1754   3.1754   3.1828   3.1828   3.6700   3.6700   3.6765   3.6765
     4.2962   4.2962   4.5222   4.5222   4.7749   4.7749   5.0200   5.0200
     5.0982   5.0982   5.8519   5.8519   6.1517   6.1517   6.2920   6.2920
     7.7002   7.7002   7.8020   7.8020

          k =-0.5000-1.4434 0.3971 (  3384 PWs)   bands (ev):

    -8.9682  -8.9682  -8.8266  -8.8266   2.5036   2.5036   2.5314   2.5314
     3.0635   3.0635   3.1686   3.1687   3.5919   3.5919   3.5955   3.5955
     4.4200   4.4201   4.5904   4.5904   4.7894   4.7894   4.9460   4.9460
     5.3281   5.3281   5.8332   5.8332   6.3391   6.3391   6.7841   6.7841
     7.4241   7.4241   7.8120   7.8120

          k =-0.5000-1.4434-0.5956 (  3392 PWs)   bands (ev):

    -8.8953  -8.8952  -8.8952  -8.8951   2.4464   2.4464   2.4464   2.4464
     3.1033   3.1033   3.1033   3.1033   3.5627   3.5627   3.5627   3.5628
     4.5404   4.5404   4.5404   4.5404   4.8406   4.8406   4.8406   4.8406
     5.6087   5.6087   5.6088   5.6088   6.7491   6.7491   6.7491   6.7492
     7.5627   7.5627   7.5627   7.5627

          k = 0.3333-0.1925-0.1985 (  3405 PWs)   bands (ev):

    -9.6889  -9.0300  -9.0206  -8.7806   2.4975   2.5035   2.6399   2.6953
     2.9077   2.9897   3.0878   3.1321   3.2693   3.3080   3.5642   3.7482
     4.3697   4.3712   4.4470   4.5410   4.6760   4.6994   4.7699   5.0095
     5.0615   5.2415   5.7606   6.1180   6.5055   7.3695   7.6669   7.9235
     7.9570   7.9886   8.7455   8.9602

          k = 0.3333-0.1925-0.3971 (  3414 PWs)   bands (ev):

    -9.5548  -9.1745  -8.9656  -8.8268   2.3772   2.3987   2.4658   2.4888
     2.9639   3.0364   3.0954   3.0978   3.1963   3.2567   3.5441   3.6208
     4.4557   4.4644   4.5009   4.6001   4.6334   4.6447   4.7824   4.9243
     5.2492   5.6917   5.9554   6.4911   6.9311   7.3813   7.4913   7.7074
     7.8203   8.1988   8.3938   8.7589

          k = 0.6667-0.3849-0.1985 (  3397 PWs)   bands (ev):

    -9.2702  -9.0206  -8.8433  -8.7806   2.3071   2.4976   2.6464   2.6953
     3.0877   3.1241   3.2056   3.3080   3.4166   3.5642   3.5929   3.7481
     4.3352   4.3698   4.5410   4.5491   4.7020   4.7495   4.7699   5.0096
     5.0615   5.3303   5.7607   5.8285   6.1180   6.5054   6.8165   7.2230
     7.6668   7.9235   8.1908   8.4944

          k = 0.6667-0.3849-0.3971 (  3399 PWs)   bands (ev):

    -9.1788  -8.9656  -8.9320  -8.8268   2.2356   2.3881   2.3988   2.4889
     3.0977   3.2061   3.2128   3.2567   3.3322   3.4736   3.5441   3.6207
     4.4441   4.4645   4.5780   4.6001   4.6641   4.6985   4.7824   4.9243
     5.2493   5.6918   5.7252   6.1137   6.4910   6.8532   6.9311   7.4912
     7.5103   7.8203   7.9789   8.2387

          k = 0.1667 0.0962-0.1985 (  3411 PWs)   bands (ev):

    -9.8268  -9.1040  -9.0875  -8.7937   2.3081   2.4103   2.5510   2.6824
     2.8792   2.9266   3.1240   3.1556   3.1675   3.3644   3.4632   3.7327
     4.4257   4.4439   4.4441   4.6335   4.6698   4.6768   4.7236   4.8768
     5.1091   5.2263   5.5704   6.4016   6.9107   7.8539   8.0744   8.2568
     8.3063   8.3837   8.9803   9.1167

          k = 0.1667 0.0962-0.3971 (  3413 PWs)   bands (ev):

    -9.6814  -9.2644  -9.0218  -8.8518   2.2182   2.3308   2.3437   2.5215
     2.9332   2.9653   3.0690   3.1032   3.2546   3.3508   3.4167   3.5825
     4.4896   4.5004   4.5483   4.6317   4.6350   4.6468   4.6954   4.7742
     5.2898   5.6298   5.9170   6.8288   7.2347   7.6237   7.8114   8.0307
     8.2701   8.4406   8.7861   8.9370

          k = 0.5000-0.0962-0.1985 (  3411 PWs)   bands (ev):

    -9.5642  -9.1871  -8.9674  -8.8149   2.4647   2.4976   2.6360   2.6537
     2.9497   3.0528   3.0858   3.1944   3.2091   3.3617   3.4947   3.6160
     4.2984   4.3381   4.4560   4.5394   4.6794   4.7203   4.7247   4.8607
     5.2700   5.3224   6.0033   6.4369   6.7410   6.9349   7.4103   7.8240
     8.0675   8.1438   8.6103   8.7641

          k = 0.5000-0.0962-0.3971 (  3414 PWs)   bands (ev):

    -9.4413  -9.1062  -9.0966  -8.8910   2.3614   2.3795   2.4281   2.4559
     3.0004   3.0689   3.1107   3.1616   3.1738   3.2830   3.4333   3.5096
     4.4218   4.4367   4.5098   4.6036   4.6359   4.6601   4.7060   4.7760
     5.6619   5.9755   6.1775   6.7248   6.9406   7.0751   7.3182   7.8011
     7.9366   7.9753   8.2363   8.5391

          k =-0.8333 0.6736-0.1985 (  3368 PWs)   bands (ev):

    -9.0136  -9.0135  -8.7832  -8.7832   2.3924   2.3924   2.5536   2.5536
     3.1296   3.1296   3.4084   3.4084   3.4748   3.4748   3.7785   3.7785
     4.4596   4.4596   4.6161   4.6161   4.7516   4.7516   4.9048   4.9048
     5.1333   5.1333   5.5191   5.5191   6.2490   6.2490   6.7059   6.7059
     7.6719   7.6719   8.1293   8.1293

          k =-0.8333 0.6736-0.3971 (  3392 PWs)   bands (ev):

    -8.9605  -8.9604  -8.8272  -8.8272   2.2840   2.2840   2.3528   2.3528
     3.2024   3.2024   3.3744   3.3744   3.4732   3.4732   3.6266   3.6266
     4.5675   4.5676   4.6371   4.6371   4.7537   4.7537   4.8671   4.8671
     5.1758   5.1758   5.4376   5.4376   6.7667   6.7667   7.0793   7.0793
     7.6594   7.6595   7.8766   7.8766

          k =-0.5000 0.4811-0.1985 (  3403 PWs)   bands (ev):

    -9.3540  -8.9052  -8.8742  -8.7824   2.3824   2.6310   2.6727   2.8980
     3.0452   3.0853   3.1587   3.2865   3.3602   3.5182   3.6750   3.8258
     4.3063   4.3461   4.4915   4.5113   4.6944   4.7501   4.7693   4.7713
     5.2671   5.3345   5.5234   5.7014   6.1691   6.7153   6.9620   7.2967
     7.3137   7.5549   8.3390   8.5010

          k =-0.5000 0.4811-0.3971 (  3402 PWs)   bands (ev):

    -9.2526  -8.9753  -8.8739  -8.8029   2.2988   2.4218   2.5935   2.6735
     2.9632   3.1036   3.1558   3.1807   3.3025   3.4189   3.6874   3.7542
     4.4210   4.4230   4.5121   4.5569   4.6566   4.6907   4.8643   5.0099
     5.1651   5.4952   5.8868   5.9758   6.4185   6.9003   6.9255   7.2597
     7.5201   7.6392   8.0612   8.2473

          k = 0.3333 0.1925-0.1985 (  3412 PWs)   bands (ev):

    -9.6889  -9.2702  -9.0300  -8.8433   2.3070   2.5035   2.6399   2.6464
     2.9076   2.9899   3.1243   3.1320   3.2055   3.2694   3.4165   3.5930
     4.3352   4.3712   4.4470   4.5490   4.6761   4.6994   4.7020   4.7495
     5.2415   5.3303   5.8283   6.8164   7.2232   7.3693   7.9569   7.9888
     8.1908   8.4947   8.7454   8.9605

          k = 0.3333 0.1925-0.3971 (  3413 PWs)   bands (ev):

    -9.5548  -9.1788  -9.1745  -8.9320   2.2355   2.3771   2.3880   2.4658
     2.9638   3.0365   3.0953   3.1964   3.2063   3.2128   3.3321   3.4738
     4.4441   4.4557   4.5008   4.5779   4.6334   4.6447   4.6641   4.6985
     5.7251   5.9554   6.1136   6.8531   7.3813   7.5105   7.7072   7.9788
     8.1990   8.2389   8.3936   8.7591

          k =-0.6667 0.7698-0.1985 (  3390 PWs)   bands (ev):

    -9.0207  -9.0206  -8.7806  -8.7806   2.4976   2.4976   2.6954   2.6954
     3.0877   3.0877   3.3080   3.3080   3.5642   3.5642   3.7481   3.7481
     4.3697   4.3697   4.5410   4.5410   4.7700   4.7700   5.0096   5.0096
     5.0615   5.0616   5.7607   5.7607   6.1178   6.1179   6.5055   6.5055
     7.6668   7.6668   7.9234   7.9234

          k =-0.6667 0.7698-0.3971 (  3400 PWs)   bands (ev):

    -8.9657  -8.9656  -8.8268  -8.8267   2.3988   2.3988   2.4889   2.4889
     3.0977   3.0977   3.2567   3.2567   3.5441   3.5441   3.6207   3.6207
     4.4644   4.4644   4.6001   4.6001   4.7825   4.7825   4.9244   4.9244
     5.2493   5.2493   5.6918   5.6918   6.4909   6.4909   6.9311   6.9311
     7.4911   7.4911   7.8203   7.8203

     highest occupied level (ev):     9.2346

!    total energy              =    -723.19186912 Ry
     estimated scf accuracy    <          7.4E-09 Ry

     The total energy is the sum of the following terms:
     one-electron contribution =    -274.21212991 Ry
     hartree contribution      =     224.30339103 Ry
     xc contribution           =    -219.73017890 Ry
     ewald contribution        =    -453.55295134 Ry

     convergence has been achieved in  21 iterations

     Forces acting on atoms (cartesian axes, Ry/au):

     atom    1 type  1   force =    -0.00001537   -0.00000887   -0.00315368
     atom    2 type  2   force =     0.00000062    0.00000036    0.00314994
     atom    3 type  1   force =     0.00001565    0.00000904   -0.00312691
     atom    4 type  2   force =    -0.00000240   -0.00000139    0.00314674
     atom    5 type  1   force =    -0.00000556   -0.00000321   -0.00315440
     atom    6 type  2   force =     0.00000169    0.00000098    0.00315227
     atom    7 type  1   force =     0.00000685    0.00000395   -0.00316241
     atom    8 type  2   force =    -0.00000148   -0.00000086    0.00314847
     The non-local contrib.  to forces
     atom    1 type  1   force =     0.00002822    0.00001629   -0.04933752
     atom    2 type  2   force =    -0.00017242   -0.00009954   -0.04368476
     atom    3 type  1   force =    -0.00002208   -0.00001275   -0.04933008
     atom    4 type  2   force =     0.00016715    0.00009651   -0.04370471
     atom    5 type  1   force =     0.00002409    0.00001391   -0.04932937
     atom    6 type  2   force =    -0.00016252   -0.00009383   -0.04367685
     atom    7 type  1   force =    -0.00002934   -0.00001694   -0.04933295
     atom    8 type  2   force =     0.00016975    0.00009800   -0.04369815
     The ionic contribution  to forces
     atom    1 type  1   force =     0.00000000    0.00000000   -0.52146268
     atom    2 type  2   force =    -0.00000000   -0.00000000    0.52146268
     atom    3 type  1   force =    -0.00000000   -0.00000000   -0.52146268
     atom    4 type  2   force =     0.00000000    0.00000000    0.52146268
     atom    5 type  1   force =     0.00000000    0.00000000   -0.52146268
     atom    6 type  2   force =    -0.00000000   -0.00000000    0.52146268
     atom    7 type  1   force =    -0.00000000   -0.00000000   -0.52146268
     atom    8 type  2   force =     0.00000000    0.00000000    0.52146268
     The local contribution  to forces
     atom    1 type  1   force =    -0.00004681   -0.00002703    0.56461660
     atom    2 type  2   force =     0.00014501    0.00008372   -0.47493257
     atom    3 type  1   force =     0.00003907    0.00002256    0.56460441
     atom    4 type  2   force =    -0.00017741   -0.00010243   -0.47492719
     atom    5 type  1   force =    -0.00004593   -0.00002652    0.56460342
     atom    6 type  2   force =     0.00017008    0.00009820   -0.47496293
     atom    7 type  1   force =     0.00005362    0.00003096    0.56462732
     atom    8 type  2   force =    -0.00017805   -0.00010280   -0.47495106
     The core correction contribution to forces
     atom    1 type  1   force =     0.00000332    0.00000197    0.00305852
     atom    2 type  2   force =     0.00000186    0.00000107    0.00032442
     atom    3 type  1   force =    -0.00000396   -0.00000232    0.00305755
     atom    4 type  2   force =    -0.00000194   -0.00000112    0.00032473
     atom    5 type  1   force =     0.00000434    0.00000250    0.00305881
     atom    6 type  2   force =     0.00000182    0.00000106    0.00032418
     atom    7 type  1   force =    -0.00000385   -0.00000220    0.00305757
     atom    8 type  2   force =    -0.00000195   -0.00000113    0.00032455
     The Hubbard contrib.    to forces
     atom    1 type  1   force =     0.00000000    0.00000000    0.00000000
     atom    2 type  2   force =     0.00000000    0.00000000    0.00000000
     atom    3 type  1   force =     0.00000000    0.00000000    0.00000000
     atom    4 type  2   force =     0.00000000    0.00000000    0.00000000
     atom    5 type  1   force =     0.00000000    0.00000000    0.00000000
     atom    6 type  2   force =     0.00000000    0.00000000    0.00000000
     atom    7 type  1   force =     0.00000000    0.00000000    0.00000000
     atom    8 type  2   force =     0.00000000    0.00000000    0.00000000
     The SCF correction term to forces
     atom    1 type  1   force =     0.00000133    0.00000077   -0.00004022
     atom    2 type  2   force =     0.00002763    0.00001595   -0.00003145
     atom    3 type  1   force =     0.00000409    0.00000236   -0.00000774
     atom    4 type  2   force =     0.00001124    0.00000649   -0.00002040
     atom    5 type  1   force =     0.00001340    0.00000773   -0.00003621
     atom    6 type  2   force =    -0.00000623   -0.00000360   -0.00000645
     atom    7 type  1   force =    -0.00001213   -0.00000700   -0.00006330
     atom    8 type  2   force =     0.00001023    0.00000591   -0.00000118

     Total force =     0.008908     Total SCF correction =     0.000101

     Writing all to output data dir ./ZnO-3.07-1.68-211.in.save/

     init_run     :      3.90s CPU      3.41s WALL (       1 calls)
     electrons    :    197.00s CPU    151.66s WALL (       1 calls)
     forces       :      1.05s CPU      0.83s WALL (       1 calls)

     Called by init_run:
     wfcinit      :      2.53s CPU      2.01s WALL (       1 calls)
     potinit      :      0.57s CPU      0.57s WALL (       1 calls)
     hinit0       :      0.66s CPU      0.68s WALL (       1 calls)

     Called by electrons:
     c_bands      :    178.22s CPU    136.32s WALL (      21 calls)
     sum_band     :     16.85s CPU     13.74s WALL (      21 calls)
     v_of_rho     :      0.64s CPU      0.57s WALL (      22 calls)
     newd         :      1.17s CPU      0.94s WALL (      22 calls)
     mix_rho      :      0.10s CPU      0.09s WALL (      21 calls)

     Called by c_bands:
     init_us_2    :      1.00s CPU      0.84s WALL (    1760 calls)
     init_us_2:cp :      0.99s CPU      0.83s WALL (    1760 calls)
     cegterg      :    169.24s CPU    128.88s WALL (     840 calls)

     Called by *egterg:
     cdiaghg      :     25.81s CPU     20.30s WALL (    4980 calls)
     h_psi        :    112.63s CPU     91.79s WALL (    5020 calls)
     s_psi        :      7.22s CPU      3.87s WALL (    5020 calls)
     g_psi        :      0.68s CPU      0.42s WALL (    4140 calls)

     Called by h_psi:
     h_psi:calbec :      7.49s CPU      4.44s WALL (    5020 calls)
     vloc_psi     :     97.50s CPU     83.12s WALL (    5020 calls)
     add_vuspsi   :      7.30s CPU      3.97s WALL (    5020 calls)

     General routines
     calbec       :      9.57s CPU      5.63s WALL (    6020 calls)
     fft          :      0.55s CPU      0.54s WALL (     295 calls)
     ffts         :      0.11s CPU      0.11s WALL (      43 calls)
     fftw         :     96.55s CPU     83.08s WALL (  275482 calls)
     interpolate  :      0.13s CPU      0.13s WALL (      22 calls)

     Parallel routines

     PWSCF        :   3m22.51s CPU   2m36.66s WALL


   This run was terminated on:  13: 6:45  12Jul2025            

=------------------------------------------------------------------------------=
   JOB DONE.
=------------------------------------------------------------------------------=
Note: The following floating-point exceptions are signalling: IEEE_INVALID_FLAG
Note: The following floating-point exceptions are signalling: IEEE_INVALID_FLAG
