Authorization required, but no authorization protocol specified

Authorization required, but no authorization protocol specified

Authorization required, but no authorization protocol specified

Authorization required, but no authorization protocol specified

Authorization required, but no authorization protocol specified

Authorization required, but no authorization protocol specified

Authorization required, but no authorization protocol specified

Authorization required, but no authorization protocol specified

Authorization required, but no authorization protocol specified

Authorization required, but no authorization protocol specified

Authorization required, but no authorization protocol specified

Authorization required, but no authorization protocol specified

Authorization required, but no authorization protocol specified

Authorization required, but no authorization protocol specified

Authorization required, but no authorization protocol specified

Authorization required, but no authorization protocol specified

Authorization required, but no authorization protocol specified

Authorization required, but no authorization protocol specified


     Program PWSCF v.7.2 starts on 12Jul2025 at 17:16:28 

     This program is part of the open-source Quantum ESPRESSO suite
     for quantum simulation of materials; please cite
         "P. Giannozzi et al., J. Phys.:Condens. Matter 21 395502 (2009);
         "P. Giannozzi et al., J. Phys.:Condens. Matter 29 465901 (2017);
         "P. Giannozzi et al., J. Chem. Phys. 152 154105 (2020);
          URL http://www.quantum-espresso.org", 
     in publications or presentations arising from this work. More details at
     http://www.quantum-espresso.org/quote

     Parallel version (MPI), running on    16 processors

     MPI processes distributed on     1 nodes
     53230 MiB available memory on the printing compute node when the environment starts

     Reading input from /home/jvc/QEspresso7.2/ZnO_database/scripts/cell211_strain10%.in/ZnO-3.47-1.61-211.in
Warning: card &CELL ignored
Warning: card / ignored
Warning: card &FCP ignored
Warning: card / ignored
Warning: card &RISM ignored
Warning: card / ignored

     Current dimensions of program PWSCF are:
     Max number of different atomic species (ntypx) = 10
     Max number of k-points (npk) =  40000
     Max angular momentum in pseudopotentials (lmaxx) =  4
     file Zn.upf: wavefunction(s)  3D renormalized
     Found identity + ( -0.5000  0.0000  0.0000) symmetry
     This is a supercell, fractional translations are disabled
     Message from routine setup:
     using ibrav=0 with symmetry is DISCOURAGED, use correct ibrav instead

     K-points division:     npool     =       2
     R & G space division:  proc/nbgrp/npool/nimage =       8
     Subspace diagonalization in iterative solution of the eigenvalue problem:
     a serial algorithm will be used


     Parallelization info
     --------------------
     sticks:   dense  smooth     PW     G-vecs:    dense   smooth      PW
     Min         295     146     46                13263     4682     808
     Max         296     148     47                13266     4685     811
     Sum        2365    1179    373               106111    37465    6471

     Using Slab Decomposition



     bravais-lattice index     =            0
     lattice parameter (alat)  =      13.0992  a.u.
     unit-cell volume          =     785.6009 (a.u.)^3
     number of atoms/cell      =            8
     number of atomic types    =            2
     number of electrons       =        72.00
     number of Kohn-Sham states=           36
     kinetic-energy cutoff     =      50.0000  Ry
     charge density cutoff     =     400.0000  Ry
     scf convergence threshold =      1.0E-08
     mixing beta               =       0.3000
     number of iterations used =            8  plain     mixing
     Exchange-correlation= PBE
                           (   1   4   3   4   0   0   0)

     celldm(1)=  13.099170  celldm(2)=   0.000000  celldm(3)=   0.000000
     celldm(4)=   0.000000  celldm(5)=   0.000000  celldm(6)=   0.000000

     crystal axes: (cart. coord. in units of alat)
               a(1) = (   1.000000   0.000000   0.000000 )  
               a(2) = (  -0.250000   0.433013   0.000000 )  
               a(3) = (   0.000000   0.000000   0.807179 )  

     reciprocal axes: (cart. coord. in units 2 pi/alat)
               b(1) = (  1.000000  0.577350 -0.000000 )  
               b(2) = (  0.000000  2.309401  0.000000 )  
               b(3) = (  0.000000 -0.000000  1.238882 )  


     PseudoPot. # 1 for Zn read from file:
     /home/jvc/QEspresso7.2/ZnO_database/pseudos/Zn.upf
     MD5 check sum: 7f56cabf9682ed8c977c2f7d0c5985c5
     Pseudo is Ultrasoft + core correction, Zval = 12.0
     Generated using &quot;atomic&quot; code by A. Dal Corso  v.6.2.2
     Using radial grid of 1201 points,  6 beta functions with: 
                l(1) =   0
                l(2) =   0
                l(3) =   1
                l(4) =   1
                l(5) =   2
                l(6) =   2
     Q(r) pseudized with 0 coefficients 


     PseudoPot. # 2 for O  read from file:
     /home/jvc/QEspresso7.2/ZnO_database/pseudos/O.upf
     MD5 check sum: 91400c9766925bcf19f520983a725ff0
     Pseudo is Ultrasoft + core correction, Zval =  6.0
     Generated using &quot;atomic&quot; code by A. Dal Corso  v.6.3MaX
     Using radial grid of 1095 points,  4 beta functions with: 
                l(1) =   0
                l(2) =   0
                l(3) =   1
                l(4) =   1
     Q(r) pseudized with 0 coefficients 


     atomic species   valence    mass     pseudopotential
        Zn            12.00    65.38000     Zn( 1.00)
        O              6.00    15.99900     O ( 1.00)

      2 Sym. Ops. (no inversion) found



   Cartesian axes

     site n.     atom                  positions (alat units)
         1           Zn  tau(   1) = (   0.0000000   0.0000000   0.0000000  )
         2           O   tau(   2) = (   0.0000000   0.2886751   0.0985546  )
         3           Zn  tau(   3) = (   0.0000000   0.2886751   0.4035896  )
         4           O   tau(   4) = (   0.0000000   0.0000000   0.5021442  )
         5           Zn  tau(   5) = (   0.5000000   0.0000000   0.0000000  )
         6           O   tau(   6) = (   0.5000000   0.2886751   0.0985546  )
         7           Zn  tau(   7) = (   0.5000000   0.2886751   0.4035896  )
         8           O   tau(   8) = (   0.5000000   0.0000000   0.5021442  )

     number of k points=    80
                       cart. coord. in units 2pi/alat
        k(    1) = (   0.0000000   0.0000000   0.0000000), wk =   0.0092593
        k(    2) = (   0.0000000   0.0000000   0.2064804), wk =   0.0185185
        k(    3) = (   0.0000000   0.0000000   0.4129608), wk =   0.0185185
        k(    4) = (   0.0000000   0.0000000  -0.6194412), wk =   0.0092593
        k(    5) = (   0.0000000   0.3849002   0.0000000), wk =   0.0370370
        k(    6) = (   0.0000000   0.3849002   0.2064804), wk =   0.0370370
        k(    7) = (   0.0000000   0.3849002   0.4129608), wk =   0.0370370
        k(    8) = (   0.0000000   0.3849002  -0.6194412), wk =   0.0370370
        k(    9) = (   0.0000000   0.7698004   0.0000000), wk =   0.0370370
        k(   10) = (   0.0000000   0.7698004   0.2064804), wk =   0.0370370
        k(   11) = (   0.0000000   0.7698004   0.4129608), wk =   0.0370370
        k(   12) = (   0.0000000   0.7698004  -0.6194412), wk =   0.0370370
        k(   13) = (   0.0000000  -1.1547005   0.0000000), wk =   0.0092593
        k(   14) = (   0.0000000  -1.1547005   0.2064804), wk =   0.0185185
        k(   15) = (   0.0000000  -1.1547005   0.4129608), wk =   0.0185185
        k(   16) = (   0.0000000  -1.1547005  -0.6194412), wk =   0.0092593
        k(   17) = (   0.1666667   0.0962250   0.0000000), wk =   0.0185185
        k(   18) = (   0.1666667   0.0962250   0.2064804), wk =   0.0185185
        k(   19) = (   0.1666667   0.0962250   0.4129608), wk =   0.0185185
        k(   20) = (   0.1666667   0.0962250  -0.6194412), wk =   0.0185185
        k(   21) = (   0.1666667   0.4811252   0.0000000), wk =   0.0370370
        k(   22) = (   0.1666667   0.4811252   0.2064804), wk =   0.0370370
        k(   23) = (   0.1666667   0.4811252   0.4129608), wk =   0.0370370
        k(   24) = (   0.1666667   0.4811252  -0.6194412), wk =   0.0370370
        k(   25) = (   0.1666667   0.8660254   0.0000000), wk =   0.0185185
        k(   26) = (   0.1666667   0.8660254   0.2064804), wk =   0.0370370
        k(   27) = (   0.1666667   0.8660254   0.4129608), wk =   0.0370370
        k(   28) = (   0.1666667   0.8660254  -0.6194412), wk =   0.0185185
        k(   29) = (   0.1666667  -1.0584755   0.0000000), wk =   0.0185185
        k(   30) = (   0.1666667  -1.0584755   0.2064804), wk =   0.0185185
        k(   31) = (   0.1666667  -1.0584755   0.4129608), wk =   0.0185185
        k(   32) = (   0.1666667  -1.0584755  -0.6194412), wk =   0.0185185
        k(   33) = (   0.1666667  -0.6735753   0.0000000), wk =   0.0370370
        k(   34) = (   0.1666667  -0.6735753   0.2064804), wk =   0.0370370
        k(   35) = (   0.1666667  -0.6735753   0.4129608), wk =   0.0370370
        k(   36) = (   0.1666667  -0.6735753  -0.6194412), wk =   0.0370370
        k(   37) = (   0.1666667  -0.2886751   0.0000000), wk =   0.0185185
        k(   38) = (   0.1666667  -0.2886751   0.2064804), wk =   0.0370370
        k(   39) = (   0.1666667  -0.2886751   0.4129608), wk =   0.0370370
        k(   40) = (   0.1666667  -0.2886751  -0.6194412), wk =   0.0185185
        k(   41) = (   0.3333333   0.1924501   0.0000000), wk =   0.0185185
        k(   42) = (   0.3333333   0.1924501   0.2064804), wk =   0.0185185
        k(   43) = (   0.3333333   0.1924501   0.4129608), wk =   0.0185185
        k(   44) = (   0.3333333   0.1924501  -0.6194412), wk =   0.0185185
        k(   45) = (   0.3333333   0.5773503   0.0000000), wk =   0.0185185
        k(   46) = (   0.3333333   0.5773503   0.2064804), wk =   0.0370370
        k(   47) = (   0.3333333   0.5773503   0.4129608), wk =   0.0370370
        k(   48) = (   0.3333333   0.5773503  -0.6194412), wk =   0.0185185
        k(   49) = (   0.3333333  -0.9622504   0.0000000), wk =   0.0185185
        k(   50) = (   0.3333333  -0.9622504   0.2064804), wk =   0.0185185
        k(   51) = (   0.3333333  -0.9622504   0.4129608), wk =   0.0185185
        k(   52) = (   0.3333333  -0.9622504  -0.6194412), wk =   0.0185185
        k(   53) = (   0.3333333  -0.5773503   0.0000000), wk =   0.0185185
        k(   54) = (   0.3333333  -0.5773503   0.2064804), wk =   0.0370370
        k(   55) = (   0.3333333  -0.5773503   0.4129608), wk =   0.0370370
        k(   56) = (   0.3333333  -0.5773503  -0.6194412), wk =   0.0185185
        k(   57) = (  -0.5000000  -0.2886751   0.0000000), wk =   0.0092593
        k(   58) = (  -0.5000000  -0.2886751   0.2064804), wk =   0.0185185
        k(   59) = (  -0.5000000  -0.2886751   0.4129608), wk =   0.0185185
        k(   60) = (  -0.5000000  -0.2886751  -0.6194412), wk =   0.0092593
        k(   61) = (  -0.5000000  -1.4433757   0.0000000), wk =   0.0092593
        k(   62) = (  -0.5000000  -1.4433757   0.2064804), wk =   0.0185185
        k(   63) = (  -0.5000000  -1.4433757   0.4129608), wk =   0.0185185
        k(   64) = (  -0.5000000  -1.4433757  -0.6194412), wk =   0.0092593
        k(   65) = (   0.3333333  -0.1924501  -0.2064804), wk =   0.0370370
        k(   66) = (   0.3333333  -0.1924501  -0.4129608), wk =   0.0370370
        k(   67) = (   0.6666667  -0.3849002  -0.2064804), wk =   0.0370370
        k(   68) = (   0.6666667  -0.3849002  -0.4129608), wk =   0.0370370
        k(   69) = (   0.1666667   0.0962250  -0.2064804), wk =   0.0185185
        k(   70) = (   0.1666667   0.0962250  -0.4129608), wk =   0.0185185
        k(   71) = (   0.5000000  -0.0962250  -0.2064804), wk =   0.0370370
        k(   72) = (   0.5000000  -0.0962250  -0.4129608), wk =   0.0370370
        k(   73) = (  -0.8333333   0.6735753  -0.2064804), wk =   0.0185185
        k(   74) = (  -0.8333333   0.6735753  -0.4129608), wk =   0.0185185
        k(   75) = (  -0.5000000   0.4811252  -0.2064804), wk =   0.0370370
        k(   76) = (  -0.5000000   0.4811252  -0.4129608), wk =   0.0370370
        k(   77) = (   0.3333333   0.1924501  -0.2064804), wk =   0.0185185
        k(   78) = (   0.3333333   0.1924501  -0.4129608), wk =   0.0185185
        k(   79) = (  -0.6666667   0.7698004  -0.2064804), wk =   0.0185185
        k(   80) = (  -0.6666667   0.7698004  -0.4129608), wk =   0.0185185

     Dense  grid:   106111 G-vectors     FFT dimensions: (  90,  45,  72)

     Smooth grid:    37465 G-vectors     FFT dimensions: (  60,  30,  48)

     Estimated max dynamical RAM per process >      45.65 MB

     Estimated total dynamical RAM >     704.51 MB

     Check: negative core charge=   -0.000002

     Initial potential from superposition of free atoms

     starting charge      71.9851, renormalised to      72.0000
     Starting wfcs are   52 randomized atomic wfcs

     total cpu time spent up to now is        4.7 secs

     Self-consistent Calculation

     iteration #  1     ecut=    50.00 Ry     beta= 0.30
     Davidson diagonalization with overlap
     ethr =  1.00E-02,  avg # of iterations =  1.5

     total cpu time spent up to now is        9.5 secs

     total energy              =    -722.83639446 Ry
     estimated scf accuracy    <       1.54562376 Ry

     iteration #  2     ecut=    50.00 Ry     beta= 0.30
     Davidson diagonalization with overlap
     ethr =  2.15E-03,  avg # of iterations =  2.2

     total cpu time spent up to now is       15.6 secs

     total energy              =    -723.07646994 Ry
     estimated scf accuracy    <       0.17211200 Ry

     iteration #  3     ecut=    50.00 Ry     beta= 0.30
     Davidson diagonalization with overlap
     ethr =  2.39E-04,  avg # of iterations =  7.0

     total cpu time spent up to now is       25.7 secs

     total energy              =    -723.09736268 Ry
     estimated scf accuracy    <       0.20583127 Ry

     iteration #  4     ecut=    50.00 Ry     beta= 0.30
     Davidson diagonalization with overlap
     ethr =  2.39E-04,  avg # of iterations = 10.2

     total cpu time spent up to now is       40.2 secs

     total energy              =    -723.27989513 Ry
     estimated scf accuracy    <       1.06272899 Ry

     iteration #  5     ecut=    50.00 Ry     beta= 0.30
     Davidson diagonalization with overlap
     ethr =  2.39E-04,  avg # of iterations =  2.0

     total cpu time spent up to now is       45.4 secs

     total energy              =    -723.06853917 Ry
     estimated scf accuracy    <       0.68544276 Ry

     iteration #  6     ecut=    50.00 Ry     beta= 0.30
     Davidson diagonalization with overlap
     ethr =  2.39E-04,  avg # of iterations =  5.9

     total cpu time spent up to now is       54.6 secs

     total energy              =    -723.19533838 Ry
     estimated scf accuracy    <       0.00804054 Ry

     iteration #  7     ecut=    50.00 Ry     beta= 0.30
     Davidson diagonalization with overlap
     ethr =  1.12E-05,  avg # of iterations =  9.9

     total cpu time spent up to now is       67.6 secs

     total energy              =    -723.22464271 Ry
     estimated scf accuracy    <       0.04558905 Ry

     iteration #  8     ecut=    50.00 Ry     beta= 0.30
     Davidson diagonalization with overlap
     ethr =  1.12E-05,  avg # of iterations =  3.6

     total cpu time spent up to now is       73.8 secs

     total energy              =    -723.22710861 Ry
     estimated scf accuracy    <       0.06905776 Ry

     iteration #  9     ecut=    50.00 Ry     beta= 0.30
     Davidson diagonalization with overlap
     ethr =  1.12E-05,  avg # of iterations =  2.0

     total cpu time spent up to now is       79.1 secs

     total energy              =    -723.21516171 Ry
     estimated scf accuracy    <       0.07977790 Ry

     iteration # 10     ecut=    50.00 Ry     beta= 0.30
     Davidson diagonalization with overlap
     ethr =  1.12E-05,  avg # of iterations =  2.0

     total cpu time spent up to now is       84.2 secs

     total energy              =    -723.19916345 Ry
     estimated scf accuracy    <       0.05898195 Ry

     iteration # 11     ecut=    50.00 Ry     beta= 0.30
     Davidson diagonalization with overlap
     ethr =  1.12E-05,  avg # of iterations =  5.5

     total cpu time spent up to now is       92.9 secs

     total energy              =    -723.20420488 Ry
     estimated scf accuracy    <       0.00568714 Ry

     iteration # 12     ecut=    50.00 Ry     beta= 0.30
     Davidson diagonalization with overlap
     ethr =  7.90E-06,  avg # of iterations =  1.9

     total cpu time spent up to now is       97.9 secs

     total energy              =    -723.20352558 Ry
     estimated scf accuracy    <       0.00333606 Ry

     iteration # 13     ecut=    50.00 Ry     beta= 0.30
     Davidson diagonalization with overlap
     ethr =  4.63E-06,  avg # of iterations =  4.1

     total cpu time spent up to now is      104.2 secs

     total energy              =    -723.20373039 Ry
     estimated scf accuracy    <       0.00043266 Ry

     iteration # 14     ecut=    50.00 Ry     beta= 0.30
     Davidson diagonalization with overlap
     ethr =  6.01E-07,  avg # of iterations = 10.4

     total cpu time spent up to now is      118.6 secs

     total energy              =    -723.20508611 Ry
     estimated scf accuracy    <       0.00413152 Ry

     iteration # 15     ecut=    50.00 Ry     beta= 0.30
     Davidson diagonalization with overlap
     ethr =  6.01E-07,  avg # of iterations =  1.2

     total cpu time spent up to now is      123.3 secs

     total energy              =    -723.20411351 Ry
     estimated scf accuracy    <       0.00365718 Ry

     iteration # 16     ecut=    50.00 Ry     beta= 0.30
     Davidson diagonalization with overlap
     ethr =  6.01E-07,  avg # of iterations =  5.4

     total cpu time spent up to now is      131.9 secs

     total energy              =    -723.20431811 Ry
     estimated scf accuracy    <       0.00052047 Ry

     iteration # 17     ecut=    50.00 Ry     beta= 0.30
     Davidson diagonalization with overlap
     ethr =  6.01E-07,  avg # of iterations =  1.9

     total cpu time spent up to now is      136.9 secs

     total energy              =    -723.20413800 Ry
     estimated scf accuracy    <       0.00030713 Ry

     iteration # 18     ecut=    50.00 Ry     beta= 0.30
     Davidson diagonalization with overlap
     ethr =  4.27E-07,  avg # of iterations =  6.2

     total cpu time spent up to now is      146.4 secs

     total energy              =    -723.20424746 Ry
     estimated scf accuracy    <       0.00030514 Ry

     iteration # 19     ecut=    50.00 Ry     beta= 0.30
     Davidson diagonalization with overlap
     ethr =  4.24E-07,  avg # of iterations =  2.0

     total cpu time spent up to now is      151.8 secs

     total energy              =    -723.20424084 Ry
     estimated scf accuracy    <       0.00005502 Ry

     iteration # 20     ecut=    50.00 Ry     beta= 0.30
     Davidson diagonalization with overlap
     ethr =  7.64E-08,  avg # of iterations =  8.2

     total cpu time spent up to now is      163.6 secs

     total energy              =    -723.20432888 Ry
     estimated scf accuracy    <       0.00018723 Ry

     iteration # 21     ecut=    50.00 Ry     beta= 0.30
     Davidson diagonalization with overlap
     ethr =  7.64E-08,  avg # of iterations =  1.1

     total cpu time spent up to now is      168.3 secs

     total energy              =    -723.20431694 Ry
     estimated scf accuracy    <       0.00012384 Ry

     iteration # 22     ecut=    50.00 Ry     beta= 0.30
     Davidson diagonalization with overlap
     ethr =  7.64E-08,  avg # of iterations =  2.0

     total cpu time spent up to now is      173.7 secs

     total energy              =    -723.20430901 Ry
     estimated scf accuracy    <       0.00006178 Ry

     iteration # 23     ecut=    50.00 Ry     beta= 0.30
     Davidson diagonalization with overlap
     ethr =  7.64E-08,  avg # of iterations =  2.1

     total cpu time spent up to now is      178.9 secs

     total energy              =    -723.20431195 Ry
     estimated scf accuracy    <       0.00002873 Ry

     iteration # 24     ecut=    50.00 Ry     beta= 0.30
     Davidson diagonalization with overlap
     ethr =  3.99E-08,  avg # of iterations =  2.1

     total cpu time spent up to now is      184.1 secs

     total energy              =    -723.20431134 Ry
     estimated scf accuracy    <       0.00002250 Ry

     iteration # 25     ecut=    50.00 Ry     beta= 0.30
     Davidson diagonalization with overlap
     ethr =  3.12E-08,  avg # of iterations =  2.0

     total cpu time spent up to now is      189.2 secs

     total energy              =    -723.20430964 Ry
     estimated scf accuracy    <       0.00001476 Ry

     iteration # 26     ecut=    50.00 Ry     beta= 0.30
     Davidson diagonalization with overlap
     ethr =  2.05E-08,  avg # of iterations =  5.8

     total cpu time spent up to now is      196.4 secs

     total energy              =    -723.20431317 Ry
     estimated scf accuracy    <       0.00000071 Ry

     iteration # 27     ecut=    50.00 Ry     beta= 0.30
     Davidson diagonalization with overlap
     ethr =  9.85E-10,  avg # of iterations =  7.2

     total cpu time spent up to now is      206.1 secs

     total energy              =    -723.20431394 Ry
     estimated scf accuracy    <       0.00000003 Ry

     iteration # 28     ecut=    50.00 Ry     beta= 0.30
     Davidson diagonalization with overlap
     ethr =  4.50E-11,  avg # of iterations =  8.3

     total cpu time spent up to now is      218.1 secs

     total energy              =    -723.20431496 Ry
     estimated scf accuracy    <       0.00000029 Ry

     iteration # 29     ecut=    50.00 Ry     beta= 0.30
     Davidson diagonalization with overlap
     c_bands:  1 eigenvalues not converged
     c_bands:  1 eigenvalues not converged
     c_bands:  1 eigenvalues not converged
     c_bands:  1 eigenvalues not converged
     ethr =  4.50E-11,  avg # of iterations = 15.6

     total cpu time spent up to now is      239.5 secs

     total energy              =    -723.20431413 Ry
     estimated scf accuracy    <       0.00000885 Ry

     iteration # 30     ecut=    50.00 Ry     beta= 0.30
     Davidson diagonalization with overlap
     ethr =  4.50E-11,  avg # of iterations = 13.6

     total cpu time spent up to now is      257.8 secs

     total energy              =    -723.20431412 Ry
     estimated scf accuracy    <       0.00000239 Ry

     iteration # 31     ecut=    50.00 Ry     beta= 0.30
     Davidson diagonalization with overlap
     ethr =  4.50E-11,  avg # of iterations =  7.7

     total cpu time spent up to now is      269.3 secs

     total energy              =    -723.20431379 Ry
     estimated scf accuracy    <       0.00000108 Ry

     iteration # 32     ecut=    50.00 Ry     beta= 0.30
     Davidson diagonalization with overlap
     ethr =  4.50E-11,  avg # of iterations = 11.6

     total cpu time spent up to now is      285.0 secs

     total energy              =    -723.20431398 Ry
     estimated scf accuracy    <       0.00000003 Ry

     iteration # 33     ecut=    50.00 Ry     beta= 0.30
     Davidson diagonalization with overlap
     ethr =  3.48E-11,  avg # of iterations =  7.6

     total cpu time spent up to now is      296.8 secs

     total energy              =    -723.20431413 Ry
     estimated scf accuracy    <       0.00000036 Ry

     iteration # 34     ecut=    50.00 Ry     beta= 0.30
     Davidson diagonalization with overlap
     ethr =  3.48E-11,  avg # of iterations =  7.2

     total cpu time spent up to now is      307.1 secs

     total energy              =    -723.20431401 Ry
     estimated scf accuracy    <       0.00000092 Ry

     iteration # 35     ecut=    50.00 Ry     beta= 0.30
     Davidson diagonalization with overlap
     ethr =  3.48E-11,  avg # of iterations =  5.7

     total cpu time spent up to now is      315.6 secs

     total energy              =    -723.20431383 Ry
     estimated scf accuracy    <       0.00000045 Ry

     iteration # 36     ecut=    50.00 Ry     beta= 0.30
     Davidson diagonalization with overlap
     ethr =  3.48E-11,  avg # of iterations = 11.0

     total cpu time spent up to now is      330.5 secs

     End of self-consistent calculation

          k = 0.0000 0.0000 0.0000 (  4665 PWs)   bands (ev):

   -12.1266 -11.6904 -11.6686 -11.5493  -0.4455  -0.4000  -0.3997  -0.3895
    -0.2670  -0.2668  -0.2357  -0.1693   0.0157   0.1193   0.1697   0.1794
     0.2679   0.2680   0.3423   0.3773   0.3991   0.3992   0.4273   0.4770
     0.7328   1.1379   1.6541   2.3499   2.9430   3.6005   3.9891   3.9928
     3.9933   4.5449   4.5812   4.5817

          k = 0.0000 0.0000 0.2065 (  4682 PWs)   bands (ev):

   -12.0970 -11.7003 -11.6800 -11.5577  -0.4646  -0.4082  -0.3950  -0.3948
    -0.2801  -0.2799  -0.2471  -0.2162  -0.0617   0.0149   0.0920   0.1487
     0.2797   0.2797   0.3689   0.3786   0.3936   0.3936   0.4189   0.4770
     1.1114   1.1153   1.5661   2.5867   3.0188   3.6805   3.9221   3.9438
     4.0331   4.0337   4.5427   4.5433

          k = 0.0000 0.0000 0.4130 (  4706 PWs)   bands (ev):

   -12.0152 -11.7862 -11.6521 -11.5814  -0.4967  -0.4406  -0.3909  -0.3785
    -0.3783  -0.3129  -0.3127  -0.3125  -0.1592   0.0191   0.0212   0.0951
     0.3097   0.3098   0.3756   0.3756   0.3830   0.4035   0.4201   0.4731
     1.1253   1.3881   1.7643   3.0848   3.1998   3.2196   3.7382   3.7417
     4.1427   4.1433   4.4370   4.4375

          k = 0.0000 0.0000-0.6194 (  4716 PWs)   bands (ev):

   -11.9017 -11.9017 -11.6158 -11.6158  -0.4847  -0.4847  -0.4291  -0.4291
    -0.3495  -0.3495  -0.3494  -0.3494  -0.0745  -0.0745   0.0469   0.0469
     0.3456   0.3456   0.3456   0.3456   0.3909   0.3909   0.4566   0.4566
     1.2256   1.2256   2.4732   2.4732   3.4828   3.4828   3.5402   3.5402
     4.2908   4.2908   4.2914   4.2914

          k = 0.0000 0.3849 0.0000 (  4683 PWs)   bands (ev):

   -12.0318 -11.6945 -11.6281 -11.5469  -0.4522  -0.3967  -0.3454  -0.3353
    -0.2421  -0.2393  -0.1823  -0.1000  -0.0001   0.1219   0.1477   0.1648
     0.2346   0.2683   0.2754   0.3184   0.4054   0.4411   0.5296   0.5788
     0.8614   1.2823   1.7415   2.3519   2.6326   3.1742   3.5040   3.6051
     3.7243   3.7327   4.4033   4.4429

          k = 0.0000 0.3849 0.2065 (  4691 PWs)   bands (ev):

   -12.0053 -11.6836 -11.6556 -11.5558  -0.4655  -0.3994  -0.3419  -0.3381
    -0.2614  -0.2526  -0.1973  -0.1503  -0.0109  -0.0092   0.0867   0.1063
     0.2543   0.2790   0.2793   0.3474   0.3983   0.4412   0.4451   0.5660
     1.2380   1.2690   1.7077   2.4637   2.7993   3.1549   3.4292   3.5893
     3.7353   3.7817   4.3337   4.3964

          k = 0.0000 0.3849 0.4130 (  4696 PWs)   bands (ev):

   -11.9325 -11.7305 -11.6547 -11.5808  -0.4892  -0.4151  -0.3870  -0.3216
    -0.3155  -0.2965  -0.2347  -0.2062  -0.1814  -0.0308   0.0149   0.0306
     0.2982   0.3082   0.3241   0.3633   0.3770   0.3971   0.4526   0.5302
     1.3126   1.5785   1.8242   2.7230   2.8615   3.2001   3.3939   3.5397
     3.7957   3.9141   4.1188   4.2688

          k = 0.0000 0.3849-0.6194 (  4696 PWs)   bands (ev):

   -11.8320 -11.8320 -11.6167 -11.6167  -0.4725  -0.4725  -0.4033  -0.4033
    -0.2788  -0.2788  -0.2762  -0.2762  -0.1122  -0.1122  -0.0015  -0.0015
     0.3445   0.3445   0.3498   0.3498   0.3559   0.3559   0.4860   0.4860
     1.4280   1.4280   2.3875   2.3875   3.0429   3.0429   3.6373   3.6373
     3.8168   3.8168   4.0927   4.0927

          k = 0.0000 0.7698 0.0000 (  4693 PWs)   bands (ev):

   -11.8215 -11.6945 -11.5607 -11.5469  -0.4753  -0.3966  -0.2792  -0.2612
    -0.2394  -0.1000  -0.0668  -0.0001   0.0108   0.1219   0.1322   0.1476
     0.2583   0.2755   0.3178   0.3184   0.4176   0.4411   0.5712   0.5789
     1.2825   1.3040   1.7416   1.9176   2.3520   2.5616   2.6324   3.2137
     3.6050   3.7242   3.9791   4.1460

          k = 0.0000 0.7698 0.2065 (  4682 PWs)   bands (ev):

   -11.8036 -11.6836 -11.5776 -11.5558  -0.4907  -0.3994  -0.3125  -0.2527
    -0.2461  -0.1503  -0.0806  -0.0107  -0.0091   0.0619   0.0867   0.1063
     0.2632   0.2791   0.3236   0.3474   0.4091   0.4412   0.5189   0.5661
     1.2692   1.4057   1.7078   2.0079   2.4637   2.6073   2.7991   3.2796
     3.5891   3.7353   3.9903   4.0856

          k = 0.0000 0.7698 0.4130 (  4688 PWs)   bands (ev):

   -11.7549 -11.6547 -11.6243 -11.5808  -0.5151  -0.4151  -0.4067  -0.3216
    -0.2029  -0.1815  -0.1060  -0.0672  -0.0548  -0.0308   0.0148   0.0307
     0.3145   0.3242   0.3395   0.3633   0.3879   0.4492   0.4526   0.5302
     1.3127   1.5786   1.5798   1.9599   2.7229   2.9883   3.2001   3.3937
     3.4560   3.7957   3.8838   3.9198

          k = 0.0000 0.7698-0.6194 (  4680 PWs)   bands (ev):

   -11.6891 -11.6891 -11.6167 -11.6167  -0.4954  -0.4954  -0.4033  -0.4033
    -0.1383  -0.1383  -0.1123  -0.1123  -0.1045  -0.1045  -0.0014  -0.0014
     0.3559   0.3560   0.3628   0.3628   0.3820   0.3820   0.4860   0.4860
     1.4281   1.4282   1.7733   1.7733   3.0428   3.0428   3.5179   3.5179
     3.6373   3.6373   3.6904   3.6904

          k = 0.0000-1.1547 0.0000 (  4664 PWs)   bands (ev):

   -11.6904 -11.6904 -11.5493 -11.5493  -0.4455  -0.4455  -0.2359  -0.2359
    -0.1693  -0.1693   0.0158   0.0158   0.1192   0.1192   0.1698   0.1698
     0.3424   0.3424   0.3773   0.3773   0.4273   0.4273   0.4771   0.4771
     1.1381   1.1381   1.6543   1.6543   2.3499   2.3500   2.9427   2.9427
     3.6005   3.6005   3.9887   3.9887

          k = 0.0000-1.1547 0.2065 (  4684 PWs)   bands (ev):

   -11.6800 -11.6800 -11.5577 -11.5577  -0.4645  -0.4645  -0.2471  -0.2471
    -0.2163  -0.2163   0.0150   0.0150   0.0919   0.0919   0.1488   0.1488
     0.3690   0.3690   0.3787   0.3787   0.4189   0.4189   0.4771   0.4771
     1.1116   1.1116   1.5663   1.5663   2.5867   2.5867   3.0185   3.0185
     3.6805   3.6805   3.9217   3.9217

          k = 0.0000-1.1547 0.4130 (  4672 PWs)   bands (ev):

   -11.6521 -11.6521 -11.5814 -11.5814  -0.4967  -0.4967  -0.3909  -0.3909
    -0.1593  -0.1593   0.0190   0.0190   0.0213   0.0213   0.0952   0.0952
     0.3831   0.3831   0.4035   0.4035   0.4202   0.4202   0.4732   0.4732
     1.1255   1.1255   1.3882   1.3882   3.0849   3.0849   3.2192   3.2192
     3.7378   3.7378   3.7417   3.7417

          k = 0.0000-1.1547-0.6194 (  4680 PWs)   bands (ev):

   -11.6158 -11.6158 -11.6158 -11.6158  -0.4847  -0.4847  -0.4847  -0.4847
    -0.0746  -0.0746  -0.0746  -0.0746   0.0470   0.0470   0.0470   0.0470
     0.3909   0.3909   0.3909   0.3909   0.4567   0.4567   0.4567   0.4567
     1.2258   1.2258   1.2258   1.2258   3.4825   3.4825   3.4825   3.4825
     3.5403   3.5403   3.5403   3.5403

          k = 0.1667 0.0962 0.0000 (  4675 PWs)   bands (ev):

   -12.1017 -11.7297 -11.6575 -11.5484  -0.4551  -0.4192  -0.3847  -0.3699
    -0.2632  -0.2446  -0.2413  -0.2204   0.0454   0.0900   0.0958   0.1680
     0.2589   0.2667   0.3008   0.3583   0.4011   0.4243   0.4496   0.5540
     0.7554   1.2309   1.7058   2.3481   3.0171   3.7252   3.7697   3.9230
     4.0318   4.0637   4.5106   4.5455

          k = 0.1667 0.0962 0.2065 (  4695 PWs)   bands (ev):

   -12.0728 -11.7167 -11.6881 -11.5597  -0.4733  -0.4313  -0.3792  -0.3718
    -0.2799  -0.2752  -0.2584  -0.2229  -0.0484   0.0311   0.0644   0.0647
     0.2723   0.2782   0.3204   0.3609   0.3948   0.4085   0.4159   0.5289
     1.1458   1.2099   1.7017   2.5387   3.0900   3.7120   3.7837   3.8458
     3.9657   3.9666   4.4553   4.5047

          k = 0.1667 0.0962 0.4130 (  4710 PWs)   bands (ev):

   -11.9933 -11.7712 -11.6818 -11.5910  -0.5032  -0.4579  -0.3977  -0.3656
    -0.3614  -0.3420  -0.2920  -0.2655  -0.1698  -0.0037   0.0018   0.0229
     0.3059   0.3083   0.3677   0.3686   0.3759   0.3810   0.3984   0.4773
     1.2626   1.5690   1.7844   3.0338   3.1236   3.2839   3.7875   3.7901
     3.9572   4.0817   4.3178   4.3929

          k = 0.1667 0.0962-0.6194 (  4714 PWs)   bands (ev):

   -11.8831 -11.8831 -11.6355 -11.6355  -0.4890  -0.4890  -0.4451  -0.4451
    -0.3305  -0.3305  -0.3276  -0.3276  -0.0908  -0.0907  -0.0017  -0.0017
     0.3449   0.3449   0.3463   0.3463   0.3814   0.3814   0.4226   0.4226
     1.3977   1.3977   2.4620   2.4620   3.5287   3.5287   3.5392   3.5392
     4.1352   4.1352   4.2383   4.2383

          k = 0.1667 0.4811 0.0000 (  4693 PWs)   bands (ev):

   -11.9690 -11.7793 -11.6041 -11.5521  -0.4552  -0.3860  -0.3343  -0.3065
    -0.3045  -0.2186  -0.2003  -0.1197  -0.0917   0.0644   0.1698   0.1740
     0.2199   0.2261   0.2719   0.3066   0.4082   0.4240   0.5560   0.5899
     0.9973   1.3494   2.0178   2.4091   2.8257   2.8384   3.0655   3.5812
     3.8603   3.9044   4.2997   4.3104

          k = 0.1667 0.4811 0.2065 (  4694 PWs)   bands (ev):

   -11.9448 -11.7634 -11.6286 -11.5666  -0.4698  -0.3977  -0.3374  -0.3228
    -0.3057  -0.2360  -0.2047  -0.1357  -0.1038   0.0199   0.0384   0.0724
     0.2375   0.2432   0.2854   0.3364   0.4005   0.4182   0.4734   0.5490
     1.3243   1.4225   2.0119   2.5841   2.8170   2.8833   3.0704   3.6065
     3.7873   3.9368   4.2446   4.2656

          k = 0.1667 0.4811 0.4130 (  4698 PWs)   bands (ev):

   -11.8784 -11.7205 -11.6958 -11.6068  -0.4949  -0.4321  -0.3920  -0.3686
    -0.2901  -0.2616  -0.1939  -0.1756  -0.1614  -0.1254  -0.0707  -0.0266
     0.2955   0.3057   0.3125   0.3570   0.3784   0.4082   0.4134   0.4821
     1.5651   1.8295   1.9000   2.6128   2.9890   3.1141   3.2868   3.5886
     3.7215   3.8961   4.0425   4.1184

          k = 0.1667 0.4811-0.6194 (  4704 PWs)   bands (ev):

   -11.7873 -11.7873 -11.6630 -11.6630  -0.4774  -0.4774  -0.4299  -0.4299
    -0.2646  -0.2646  -0.2098  -0.2098  -0.1537  -0.1537  -0.0909  -0.0909
     0.3453   0.3453   0.3576   0.3576   0.3585   0.3585   0.4213   0.4213
     1.7313   1.7313   2.2691   2.2691   3.2727   3.2727   3.6182   3.6182
     3.6636   3.6636   3.9252   3.9252

          k = 0.1667 0.8660 0.0000 (  4694 PWs)   bands (ev):

   -11.7613 -11.7613 -11.5504 -11.5504  -0.4414  -0.4414  -0.2592  -0.2592
    -0.2266  -0.2266  -0.0169  -0.0169   0.0683   0.0683   0.1185   0.1185
     0.2740   0.2740   0.3301   0.3301   0.4236   0.4236   0.5779   0.5779
     1.3184   1.3184   1.7978   1.7978   2.4118   2.4118   2.9692   2.9692
     3.8264   3.8265   3.9883   3.9883

          k = 0.1667 0.8660 0.2065 (  4686 PWs)   bands (ev):

   -11.7465 -11.7465 -11.5637 -11.5637  -0.4573  -0.4573  -0.2821  -0.2821
    -0.2303  -0.2303  -0.0303  -0.0303   0.0422   0.0422   0.0657   0.0657
     0.2780   0.2780   0.3447   0.3447   0.4167   0.4167   0.5411   0.5411
     1.3315   1.3315   1.8456   1.8456   2.5465   2.5465   3.0431   3.0431
     3.8555   3.8555   3.9328   3.9328

          k = 0.1667 0.8660 0.4130 (  4676 PWs)   bands (ev):

   -11.7064 -11.7064 -11.6008 -11.6008  -0.4850  -0.4850  -0.3827  -0.3827
    -0.1876  -0.1876  -0.0546  -0.0546  -0.0317  -0.0317  -0.0141  -0.0141
     0.3260   0.3260   0.3611   0.3611   0.4036   0.4036   0.4768   0.4768
     1.4229   1.4229   1.7490   1.7490   2.9894   2.9894   3.2556   3.2556
     3.7088   3.7088   3.8642   3.8642

          k = 0.1667 0.8660-0.6194 (  4700 PWs)   bands (ev):

   -11.6528 -11.6528 -11.6528 -11.6528  -0.4702  -0.4702  -0.4701  -0.4701
    -0.1148  -0.1148  -0.1148  -0.1148  -0.0543  -0.0543  -0.0543  -0.0543
     0.3661   0.3661   0.3661   0.3661   0.4170   0.4170   0.4170   0.4170
     1.5767   1.5767   1.5767   1.5767   3.4069   3.4069   3.4069   3.4069
     3.6101   3.6101   3.6101   3.6101

          k = 0.1667-1.0585 0.0000 (  4684 PWs)   bands (ev):

   -11.6918 -11.6918 -11.5485 -11.5485  -0.4307  -0.4307  -0.2411  -0.2411
    -0.1461  -0.1461   0.0487   0.0487   0.0894   0.0894   0.1537   0.1537
     0.3130   0.3130   0.3590   0.3590   0.4365   0.4365   0.5183   0.5183
     1.1794   1.1794   1.6816   1.6816   2.3499   2.3499   2.8479   2.8479
     3.5999   3.5999   3.9006   3.9006

          k = 0.1667-1.0585 0.2065 (  4682 PWs)   bands (ev):

   -11.6812 -11.6812 -11.5570 -11.5570  -0.4464  -0.4464  -0.2333  -0.2333
    -0.2127  -0.2127   0.0362   0.0362   0.0736   0.0736   0.1227   0.1227
     0.3349   0.3349   0.3644   0.3644   0.4343   0.4343   0.5132   0.5132
     1.1538   1.1538   1.6135   1.6135   2.5553   2.5553   2.9440   2.9440
     3.6710   3.6711   3.8369   3.8369

          k = 0.1667-1.0585 0.4130 (  4690 PWs)   bands (ev):

   -11.6530 -11.6530 -11.5812 -11.5812  -0.4745  -0.4745  -0.3652  -0.3652
    -0.1717  -0.1717   0.0135   0.0135   0.0254   0.0254   0.0633   0.0633
     0.3632   0.3632   0.3752   0.3752   0.4420   0.4420   0.4961   0.4961
     1.1778   1.1778   1.4498   1.4498   2.9590   2.9590   3.2338   3.2338
     3.5936   3.5936   3.7824   3.7824

          k = 0.1667-1.0585-0.6194 (  4688 PWs)   bands (ev):

   -11.6161 -11.6161 -11.6161 -11.6161  -0.4606  -0.4606  -0.4606  -0.4606
    -0.0856  -0.0856  -0.0856  -0.0856   0.0332   0.0332   0.0332   0.0332
     0.3747   0.3747   0.3747   0.3747   0.4692   0.4692   0.4692   0.4692
     1.2875   1.2875   1.2875   1.2875   3.3069   3.3069   3.3069   3.3069
     3.6065   3.6065   3.6065   3.6065

          k = 0.1667-0.6736 0.0000 (  4690 PWs)   bands (ev):

   -11.8635 -11.6329 -11.5706 -11.5572  -0.4560  -0.3914  -0.3018  -0.2703
    -0.1729  -0.1338  -0.0464  -0.0203   0.1147   0.1635   0.1700   0.1998
     0.2280   0.2641   0.2974   0.3042   0.4148   0.4635   0.5421   0.5710
     1.2352   1.3420   1.6234   1.9533   2.2019   2.6794   2.7952   3.2482
     3.3499   3.4518   4.0886   4.1383

          k = 0.1667-0.6736 0.2065 (  4684 PWs)   bands (ev):

   -11.8436 -11.6267 -11.5898 -11.5611  -0.4712  -0.3731  -0.3198  -0.2654
    -0.2046  -0.1471  -0.1018  -0.0402   0.0574   0.0753   0.1271   0.1645
     0.2401   0.2766   0.3111   0.3253   0.4066   0.4795   0.5106   0.5598
     1.3144   1.4272   1.5772   2.0370   2.2515   2.7112   2.9832   3.2984
     3.3079   3.5149   4.0597   4.0996

          k = 0.1667-0.6736 0.4130 (  4683 PWs)   bands (ev):

   -11.7893 -11.6428 -11.6106 -11.5726  -0.4969  -0.3952  -0.3389  -0.2639
    -0.2342  -0.1981  -0.1693  -0.1008  -0.0867  -0.0228   0.0839   0.1109
     0.3001   0.3039   0.3306   0.3321   0.3861   0.4415   0.5210   0.5758
     1.3014   1.4604   1.7126   2.1704   2.3039   3.0266   3.0377   3.3898
     3.4563   3.6880   3.8847   3.9677

          k = 0.1667-0.6736-0.6194 (  4686 PWs)   bands (ev):

   -11.7157 -11.7157 -11.5904 -11.5904  -0.4793  -0.4793  -0.3232  -0.3232
    -0.1895  -0.1895  -0.1460  -0.1460  -0.1371  -0.1371   0.0845   0.0845
     0.3213   0.3213   0.3539   0.3539   0.3773   0.3773   0.5604   0.5604
     1.3545   1.3545   1.9592   1.9592   2.6690   2.6690   3.5219   3.5219
     3.6704   3.6704   3.7120   3.7120

          k = 0.1667-0.2887 0.0000 (  4703 PWs)   bands (ev):

   -12.0543 -11.6563 -11.6373 -11.5520  -0.4380  -0.4011  -0.3634  -0.3429
    -0.2544  -0.2253  -0.2007  -0.0382   0.0890   0.0921   0.1628   0.1720
     0.2437   0.2654   0.2964   0.3353   0.4037   0.4813   0.4851   0.5123
     0.8212   1.2209   1.6717   2.2132   2.7411   3.4402   3.4412   3.5077
     3.6650   3.8535   4.4403   4.4600

          k = 0.1667-0.2887 0.2065 (  4689 PWs)   bands (ev):

   -12.0270 -11.6658 -11.6482 -11.5578  -0.4518  -0.4015  -0.3587  -0.3434
    -0.2748  -0.2270  -0.2148  -0.1333  -0.0230   0.0777   0.0797   0.1342
     0.2601   0.2777   0.3208   0.3407   0.3968   0.4346   0.4910   0.4982
     1.1955   1.2078   1.5898   2.3373   2.9181   3.3621   3.4758   3.4997
     3.6456   3.8539   4.3734   4.4150

          k = 0.1667-0.2887 0.4130 (  4697 PWs)   bands (ev):

   -11.9519 -11.7434 -11.6269 -11.5747  -0.4776  -0.4114  -0.3768  -0.3326
    -0.3215  -0.2929  -0.2496  -0.2228  -0.1960   0.0101   0.0624   0.0765
     0.3006   0.3075   0.3428   0.3475   0.3762   0.3923   0.5115   0.5217
     1.2012   1.4285   1.8152   2.6178   2.9555   3.2825   3.3127   3.6686
     3.7362   3.9503   4.1831   4.2917

          k = 0.1667-0.2887-0.6194 (  4678 PWs)   bands (ev):

   -11.8483 -11.8483 -11.5997 -11.5997  -0.4628  -0.4628  -0.3929  -0.3929
    -0.3099  -0.3099  -0.2799  -0.2799  -0.1080  -0.1080   0.0614   0.0614
     0.3439   0.3439   0.3489   0.3489   0.3492   0.3492   0.5264   0.5264
     1.2856   1.2856   2.4202   2.4202   2.9584   2.9584   3.6493   3.6493
     3.9123   3.9123   4.1257   4.1257

          k = 0.3333 0.1925 0.0000 (  4688 PWs)   bands (ev):

   -12.0318 -11.8215 -11.6281 -11.5607  -0.4754  -0.4524  -0.3452  -0.3353
    -0.2792  -0.2611  -0.2422  -0.1822  -0.0669   0.0109   0.1322   0.1648
     0.2347   0.2583   0.2683   0.3178   0.4055   0.4176   0.5296   0.5712
     0.8614   1.3039   1.9174   2.5615   3.1739   3.2141   3.5037   3.7331
     3.9791   4.1464   4.4033   4.4433

          k = 0.3333 0.1925 0.2065 (  4685 PWs)   bands (ev):

   -12.0053 -11.8036 -11.6556 -11.5776  -0.4908  -0.4656  -0.3420  -0.3380
    -0.3126  -0.2615  -0.2460  -0.1971  -0.0807  -0.0109  -0.0105   0.0618
     0.2543   0.2632   0.2792   0.3236   0.3983   0.4091   0.4451   0.5189
     1.2380   1.4056   2.0077   2.6071   3.1546   3.2800   3.4289   3.7820
     3.9903   4.0860   4.3336   4.3968

          k = 0.3333 0.1925 0.4130 (  4706 PWs)   bands (ev):

   -11.9325 -11.7549 -11.7305 -11.6243  -0.5151  -0.4893  -0.4067  -0.3871
    -0.3154  -0.2966  -0.2346  -0.2062  -0.2028  -0.1061  -0.0671  -0.0549
     0.2982   0.3082   0.3145   0.3395   0.3770   0.3879   0.3970   0.4492
     1.5797   1.8242   1.9597   2.8614   2.9882   3.4564   3.5394   3.8837
     3.9145   3.9201   4.1186   4.2692

          k = 0.3333 0.1925-0.6194 (  4700 PWs)   bands (ev):

   -11.8320 -11.8320 -11.6891 -11.6891  -0.4954  -0.4954  -0.4726  -0.4726
    -0.2786  -0.2786  -0.2763  -0.2763  -0.1382  -0.1382  -0.1046  -0.1046
     0.3445   0.3445   0.3498   0.3498   0.3627   0.3627   0.3820   0.3820
     1.7731   1.7731   2.3874   2.3874   3.5177   3.5178   3.6908   3.6908
     3.8165   3.8165   4.0931   4.0931

          k = 0.3333 0.5774 0.0000 (  4690 PWs)   bands (ev):

   -11.8785 -11.8785 -11.5745 -11.5745  -0.4168  -0.4168  -0.3457  -0.3457
    -0.2540  -0.2540  -0.1715  -0.1715  -0.0283  -0.0283   0.1860   0.1860
     0.2052   0.2052   0.2873   0.2873   0.4135   0.4135   0.5715   0.5715
     1.2054   1.2054   2.4909   2.4909   2.5600   2.5600   3.2552   3.2552
     4.0903   4.0903   4.1318   4.1318

          k = 0.3333 0.5774 0.2065 (  4682 PWs)   bands (ev):

   -11.8579 -11.8579 -11.5946 -11.5946  -0.4365  -0.4365  -0.3479  -0.3479
    -0.2569  -0.2569  -0.1853  -0.1853  -0.0475  -0.0475   0.0499   0.0499
     0.2330   0.2330   0.3072   0.3072   0.4055   0.4055   0.5092   0.5092
     1.4269   1.4269   2.4359   2.4359   2.7004   2.7004   3.2757   3.2757
     4.0265   4.0265   4.1227   4.1227

          k = 0.3333 0.5774 0.4130 (  4714 PWs)   bands (ev):

   -11.8018 -11.8018 -11.6497 -11.6497  -0.4710  -0.4710  -0.3883  -0.3883
    -0.2503  -0.2503  -0.2084  -0.2084  -0.1167  -0.1167  -0.0955  -0.0955
     0.2966   0.2966   0.3302   0.3302   0.3858   0.3858   0.4407   0.4407
     1.7626   1.7626   2.2719   2.2719   3.0941   3.0941   3.3936   3.3936
     3.8553   3.8553   3.9796   3.9796

          k = 0.3333 0.5774-0.6194 (  4716 PWs)   bands (ev):

   -11.7255 -11.7255 -11.7255 -11.7255  -0.4605  -0.4605  -0.4605  -0.4605
    -0.2265  -0.2265  -0.2265  -0.2265  -0.1431  -0.1431  -0.1431  -0.1431
     0.3513   0.3513   0.3513   0.3513   0.3778   0.3778   0.3778   0.3778
     2.0406   2.0406   2.0406   2.0406   3.5368   3.5368   3.5368   3.5368
     3.6763   3.6763   3.6763   3.6763

          k = 0.3333-0.9623 0.0000 (  4688 PWs)   bands (ev):

   -11.6945 -11.6945 -11.5469 -11.5469  -0.3967  -0.3967  -0.2394  -0.2394
    -0.0999  -0.0999  -0.0001  -0.0001   0.1219   0.1219   0.1476   0.1476
     0.2754   0.2754   0.3184   0.3184   0.4412   0.4412   0.5789   0.5789
     1.2826   1.2826   1.7417   1.7417   2.3518   2.3518   2.6324   2.6324
     3.6049   3.6050   3.7241   3.7241

          k = 0.3333-0.9623 0.2065 (  4688 PWs)   bands (ev):

   -11.6836 -11.6836 -11.5558 -11.5558  -0.3994  -0.3994  -0.2527  -0.2527
    -0.1503  -0.1503  -0.0091  -0.0091   0.0867   0.0867   0.1062   0.1062
     0.2790   0.2790   0.3474   0.3474   0.4413   0.4413   0.5661   0.5661
     1.2692   1.2692   1.7079   1.7079   2.4635   2.4635   2.7992   2.7992
     3.5890   3.5890   3.7353   3.7353

          k = 0.3333-0.9623 0.4130 (  4678 PWs)   bands (ev):

   -11.6547 -11.6547 -11.5808 -11.5808  -0.4151  -0.4151  -0.3216  -0.3216
    -0.1815  -0.1815  -0.0307  -0.0307   0.0147   0.0147   0.0307   0.0307
     0.3241   0.3241   0.3633   0.3633   0.4527   0.4527   0.5302   0.5302
     1.3127   1.3127   1.5787   1.5787   2.7227   2.7227   3.2001   3.2001
     3.3936   3.3936   3.7957   3.7957

          k = 0.3333-0.9623-0.6194 (  4676 PWs)   bands (ev):

   -11.6167 -11.6167 -11.6167 -11.6167  -0.4033  -0.4033  -0.4033  -0.4033
    -0.1123  -0.1123  -0.1123  -0.1123  -0.0014  -0.0014  -0.0014  -0.0014
     0.3560   0.3560   0.3560   0.3560   0.4860   0.4860   0.4860   0.4860
     1.4282   1.4282   1.4282   1.4282   3.0427   3.0427   3.0427   3.0427
     3.6373   3.6373   3.6373   3.6373

          k = 0.3333-0.5774 0.0000 (  4697 PWs)   bands (ev):

   -11.8785 -11.5857 -11.5857 -11.5745  -0.4166  -0.3952  -0.3458  -0.2541
    -0.1715  -0.0995  -0.0994  -0.0284   0.1755   0.1860   0.2052   0.2267
     0.2268   0.2747   0.2874   0.3107   0.4135   0.4853   0.4853   0.5715
     1.2055   1.5184   1.5184   1.6468   2.4911   2.5602   3.1013   3.1014
     3.2549   3.2924   4.0900   4.1317

          k = 0.3333-0.5774 0.2065 (  4690 PWs)   bands (ev):

   -11.8579 -11.5946 -11.5845 -11.5845  -0.4364  -0.3703  -0.3480  -0.2569
    -0.1852  -0.1434  -0.1433  -0.0476   0.0499   0.1169   0.1962   0.1962
     0.2330   0.2670   0.3072   0.3072   0.4055   0.5092   0.5216   0.5217
     1.4270   1.4619   1.4620   1.7778   2.4361   2.7006   3.1847   3.2574
     3.2574   3.2754   4.0262   4.1227

          k = 0.3333-0.5774 0.4130 (  4682 PWs)   bands (ev):

   -11.8018 -11.6497 -11.5820 -11.5820  -0.4709  -0.3883  -0.2964  -0.2503
    -0.2325  -0.2325  -0.2085  -0.1167  -0.0956  -0.0267   0.1604   0.1604
     0.2708   0.2966   0.2971   0.3303   0.3858   0.4408   0.5735   0.5736
     1.3754   1.3755   1.7627   2.1006   2.2720   2.8955   3.0942   3.3933
     3.5461   3.5461   3.8550   3.9796

          k = 0.3333-0.5774-0.6194 (  4680 PWs)   bands (ev):

   -11.7255 -11.7255 -11.5808 -11.5808  -0.4604  -0.4604  -0.2768  -0.2768
    -0.2265  -0.2265  -0.1777  -0.1777  -0.1432  -0.1432   0.1484   0.1484
     0.2834   0.2834   0.3513   0.3513   0.3778   0.3778   0.5941   0.5941
     1.3410   1.3410   2.0407   2.0407   2.5041   2.5041   3.5368   3.5368
     3.6761   3.6761   3.6834   3.6834

          k =-0.5000-0.2887 0.0000 (  4690 PWs)   bands (ev):

   -11.9313 -11.9313 -11.5910 -11.5910  -0.4780  -0.4780  -0.3080  -0.3080
    -0.2980  -0.2980  -0.1774  -0.1774  -0.0900  -0.0900   0.1751   0.1751
     0.2157   0.2157   0.2836   0.2836   0.4110   0.4110   0.5620   0.5620
     1.0830   1.0830   2.4897   2.4897   2.9921   2.9921   3.4753   3.4753
     4.2226   4.2226   4.2978   4.2978

          k =-0.5000-0.2887 0.2065 (  4678 PWs)   bands (ev):

   -11.9085 -11.9085 -11.6138 -11.6138  -0.4914  -0.4914  -0.3288  -0.3288
    -0.2872  -0.2872  -0.1923  -0.1922  -0.1075  -0.1075   0.0389   0.0389
     0.2402   0.2402   0.2927   0.2927   0.4030   0.4030   0.4853   0.4853
     1.3686   1.3686   2.5270   2.5270   2.9596   2.9596   3.5325   3.5325
     4.1847   4.1847   4.2441   4.2441

          k =-0.5000-0.2887 0.4130 (  4706 PWs)   bands (ev):

   -11.8463 -11.8463 -11.6760 -11.6760  -0.5129  -0.5129  -0.4041  -0.4041
    -0.2558  -0.2558  -0.2159  -0.2158  -0.1526  -0.1526  -0.1334  -0.1334
     0.2956   0.2956   0.3169   0.3169   0.3803   0.3803   0.4207   0.4207
     1.7995   1.7995   2.4284   2.4284   3.1465   3.1465   3.6867   3.6867
     3.9829   3.9829   4.0968   4.0968

          k =-0.5000-0.2887-0.6194 (  4712 PWs)   bands (ev):

   -11.7612 -11.7612 -11.7611 -11.7611  -0.4919  -0.4919  -0.4919  -0.4919
    -0.2076  -0.2076  -0.2076  -0.2076  -0.2021  -0.2021  -0.2021  -0.2021
     0.3490   0.3490   0.3490   0.3490   0.3600   0.3600   0.3600   0.3600
     2.1549   2.1549   2.1549   2.1549   3.5840   3.5840   3.5840   3.5840
     3.8935   3.8935   3.8935   3.8935

          k =-0.5000-1.4434 0.0000 (  4682 PWs)   bands (ev):

   -11.6958 -11.6958 -11.5462 -11.5462  -0.3783  -0.3783  -0.2250  -0.2250
    -0.0740  -0.0740  -0.0597  -0.0597   0.1334   0.1334   0.2026   0.2026
     0.2297   0.2297   0.2966   0.2966   0.4425   0.4425   0.6030   0.6030
     1.3522   1.3522   1.7718   1.7718   2.3556   2.3556   2.5080   2.5080
     3.5921   3.5921   3.6508   3.6508

          k =-0.5000-1.4434 0.2065 (  4706 PWs)   bands (ev):

   -11.6848 -11.6848 -11.5552 -11.5552  -0.3661  -0.3661  -0.2661  -0.2661
    -0.0864  -0.0864  -0.0847  -0.0847   0.0971   0.0971   0.1205   0.1205
     0.2424   0.2424   0.3418   0.3418   0.4429   0.4429   0.5861   0.5861
     1.3539   1.3539   1.7458   1.7458   2.4001   2.4001   2.7315   2.7315
     3.5042   3.5042   3.7282   3.7282

          k =-0.5000-1.4434 0.4130 (  4680 PWs)   bands (ev):

   -11.6555 -11.6555 -11.5806 -11.5806  -0.3504  -0.3504  -0.3404  -0.3404
    -0.1483  -0.1482  -0.0946  -0.0946   0.0153   0.0153   0.0167   0.0167
     0.3090   0.3090   0.3602   0.3602   0.4559   0.4559   0.5434   0.5434
     1.4051   1.4051   1.6440   1.6440   2.5964   2.5964   3.1337   3.1337
     3.3307   3.3307   3.8010   3.8010

          k =-0.5000-1.4434-0.6194 (  4656 PWs)   bands (ev):

   -11.6171 -11.6171 -11.6170 -11.6170  -0.3667  -0.3667  -0.3667  -0.3667
    -0.1322  -0.1322  -0.1322  -0.1322  -0.0210  -0.0210  -0.0210  -0.0210
     0.3502   0.3502   0.3502   0.3502   0.4929   0.4929   0.4929   0.4929
     1.5124   1.5124   1.5124   1.5124   2.9059   2.9059   2.9059   2.9059
     3.6448   3.6448   3.6448   3.6448

          k = 0.3333-0.1925-0.2065 (  4691 PWs)   bands (ev):

   -12.0053 -11.6836 -11.6556 -11.5558  -0.4655  -0.3994  -0.3419  -0.3381
    -0.2614  -0.2526  -0.1973  -0.1503  -0.0109  -0.0092   0.0867   0.1063
     0.2543   0.2790   0.2793   0.3474   0.3983   0.4412   0.4451   0.5660
     1.2380   1.2690   1.7077   2.4637   2.7993   3.1549   3.4292   3.5893
     3.7353   3.7817   4.3337   4.3964

          k = 0.3333-0.1925-0.4130 (  4696 PWs)   bands (ev):

   -11.9325 -11.7305 -11.6547 -11.5808  -0.4892  -0.4151  -0.3870  -0.3216
    -0.3155  -0.2965  -0.2347  -0.2062  -0.1814  -0.0308   0.0149   0.0306
     0.2982   0.3082   0.3241   0.3633   0.3770   0.3971   0.4526   0.5302
     1.3126   1.5785   1.8242   2.7230   2.8615   3.2001   3.3939   3.5397
     3.7957   3.9141   4.1188   4.2688

          k = 0.6667-0.3849-0.2065 (  4682 PWs)   bands (ev):

   -11.8036 -11.6836 -11.5776 -11.5558  -0.4907  -0.3994  -0.3125  -0.2527
    -0.2461  -0.1503  -0.0806  -0.0107  -0.0091   0.0619   0.0867   0.1063
     0.2632   0.2791   0.3236   0.3474   0.4091   0.4412   0.5189   0.5661
     1.2692   1.4057   1.7078   2.0079   2.4637   2.6073   2.7991   3.2796
     3.5891   3.7353   3.9903   4.0856

          k = 0.6667-0.3849-0.4130 (  4688 PWs)   bands (ev):

   -11.7549 -11.6547 -11.6243 -11.5808  -0.5151  -0.4151  -0.4067  -0.3216
    -0.2029  -0.1815  -0.1060  -0.0672  -0.0548  -0.0308   0.0148   0.0307
     0.3145   0.3242   0.3395   0.3633   0.3879   0.4492   0.4526   0.5302
     1.3127   1.5786   1.5798   1.9599   2.7229   2.9883   3.2000   3.3937
     3.4560   3.7957   3.8838   3.9198

          k = 0.1667 0.0962-0.2065 (  4695 PWs)   bands (ev):

   -12.0728 -11.7167 -11.6881 -11.5597  -0.4732  -0.4313  -0.3792  -0.3718
    -0.2799  -0.2752  -0.2584  -0.2229  -0.0484   0.0311   0.0644   0.0647
     0.2723   0.2782   0.3204   0.3609   0.3948   0.4085   0.4159   0.5289
     1.1458   1.2099   1.7017   2.5387   3.0900   3.7120   3.7837   3.8458
     3.9657   3.9666   4.4553   4.5047

          k = 0.1667 0.0962-0.4130 (  4710 PWs)   bands (ev):

   -11.9933 -11.7712 -11.6818 -11.5910  -0.5032  -0.4579  -0.3977  -0.3656
    -0.3614  -0.3420  -0.2920  -0.2655  -0.1698  -0.0037   0.0018   0.0229
     0.3059   0.3083   0.3677   0.3686   0.3759   0.3810   0.3984   0.4773
     1.2626   1.5690   1.7844   3.0338   3.1236   3.2839   3.7875   3.7901
     3.9572   4.0817   4.3178   4.3929

          k = 0.5000-0.0962-0.2065 (  4694 PWs)   bands (ev):

   -11.9448 -11.7634 -11.6286 -11.5666  -0.4698  -0.3977  -0.3374  -0.3228
    -0.3057  -0.2360  -0.2047  -0.1357  -0.1038   0.0199   0.0384   0.0724
     0.2375   0.2432   0.2854   0.3364   0.4005   0.4182   0.4734   0.5490
     1.3243   1.4225   2.0119   2.5840   2.8170   2.8833   3.0704   3.6065
     3.7873   3.9368   4.2446   4.2656

          k = 0.5000-0.0962-0.4130 (  4698 PWs)   bands (ev):

   -11.8784 -11.7205 -11.6958 -11.6068  -0.4949  -0.4321  -0.3920  -0.3686
    -0.2901  -0.2616  -0.1939  -0.1756  -0.1614  -0.1254  -0.0707  -0.0266
     0.2955   0.3057   0.3125   0.3570   0.3784   0.4082   0.4134   0.4821
     1.5651   1.8295   1.9000   2.6128   2.9890   3.1141   3.2868   3.5886
     3.7215   3.8961   4.0425   4.1184

          k =-0.8333 0.6736-0.2065 (  4682 PWs)   bands (ev):

   -11.6812 -11.6812 -11.5570 -11.5570  -0.4464  -0.4464  -0.2333  -0.2333
    -0.2127  -0.2127   0.0362   0.0362   0.0736   0.0736   0.1227   0.1227
     0.3349   0.3349   0.3644   0.3644   0.4343   0.4343   0.5132   0.5132
     1.1538   1.1538   1.6135   1.6135   2.5553   2.5553   2.9440   2.9441
     3.6710   3.6711   3.8369   3.8369

          k =-0.8333 0.6736-0.4130 (  4690 PWs)   bands (ev):

   -11.6530 -11.6530 -11.5812 -11.5812  -0.4745  -0.4745  -0.3652  -0.3652
    -0.1717  -0.1717   0.0135   0.0135   0.0254   0.0254   0.0633   0.0633
     0.3632   0.3632   0.3752   0.3752   0.4420   0.4420   0.4961   0.4961
     1.1778   1.1778   1.4498   1.4498   2.9590   2.9590   3.2338   3.2338
     3.5936   3.5936   3.7824   3.7824

          k =-0.5000 0.4811-0.2065 (  4684 PWs)   bands (ev):

   -11.8436 -11.6267 -11.5898 -11.5611  -0.4712  -0.3731  -0.3198  -0.2654
    -0.2046  -0.1471  -0.1018  -0.0402   0.0574   0.0753   0.1271   0.1645
     0.2401   0.2766   0.3111   0.3253   0.4066   0.4795   0.5106   0.5598
     1.3144   1.4272   1.5772   2.0370   2.2515   2.7112   2.9832   3.2984
     3.3079   3.5149   4.0597   4.0996

          k =-0.5000 0.4811-0.4130 (  4683 PWs)   bands (ev):

   -11.7893 -11.6428 -11.6106 -11.5726  -0.4969  -0.3952  -0.3389  -0.2639
    -0.2342  -0.1981  -0.1693  -0.1008  -0.0867  -0.0228   0.0839   0.1109
     0.3001   0.3039   0.3306   0.3321   0.3861   0.4415   0.5210   0.5758
     1.3014   1.4604   1.7126   2.1704   2.3039   3.0266   3.0377   3.3898
     3.4563   3.6880   3.8847   3.9677

          k = 0.3333 0.1925-0.2065 (  4685 PWs)   bands (ev):

   -12.0053 -11.8036 -11.6556 -11.5776  -0.4908  -0.4656  -0.3420  -0.3380
    -0.3126  -0.2615  -0.2460  -0.1971  -0.0807  -0.0109  -0.0105   0.0618
     0.2543   0.2632   0.2792   0.3236   0.3983   0.4091   0.4451   0.5189
     1.2380   1.4056   2.0077   2.6071   3.1546   3.2800   3.4289   3.7820
     3.9903   4.0860   4.3336   4.3968

          k = 0.3333 0.1925-0.4130 (  4706 PWs)   bands (ev):

   -11.9325 -11.7549 -11.7305 -11.6243  -0.5151  -0.4893  -0.4067  -0.3871
    -0.3154  -0.2966  -0.2346  -0.2062  -0.2028  -0.1061  -0.0671  -0.0549
     0.2982   0.3082   0.3145   0.3395   0.3770   0.3879   0.3970   0.4492
     1.5797   1.8242   1.9597   2.8614   2.9882   3.4564   3.5394   3.8837
     3.9145   3.9201   4.1186   4.2692

          k =-0.6667 0.7698-0.2065 (  4688 PWs)   bands (ev):

   -11.6836 -11.6836 -11.5558 -11.5558  -0.3994  -0.3994  -0.2527  -0.2527
    -0.1503  -0.1503  -0.0091  -0.0091   0.0867   0.0867   0.1062   0.1062
     0.2790   0.2790   0.3474   0.3474   0.4413   0.4413   0.5661   0.5661
     1.2692   1.2692   1.7079   1.7079   2.4635   2.4635   2.7992   2.7992
     3.5890   3.5890   3.7353   3.7353

          k =-0.6667 0.7698-0.4130 (  4678 PWs)   bands (ev):

   -11.6547 -11.6547 -11.5808 -11.5808  -0.4151  -0.4151  -0.3216  -0.3216
    -0.1815  -0.1815  -0.0307  -0.0307   0.0147   0.0147   0.0307   0.0307
     0.3241   0.3241   0.3633   0.3633   0.4527   0.4527   0.5302   0.5302
     1.3127   1.3127   1.5787   1.5787   2.7227   2.7227   3.2001   3.2001
     3.3936   3.3936   3.7957   3.7957

     highest occupied level (ev):     4.5817

!    total energy              =    -723.20431393 Ry
     estimated scf accuracy    <          8.1E-09 Ry

     The total energy is the sum of the following terms:
     one-electron contribution =    -348.24064096 Ry
     hartree contribution      =     250.75240855 Ry
     xc contribution           =    -218.44332356 Ry
     ewald contribution        =    -407.27275796 Ry

     convergence has been achieved in  36 iterations

     Forces acting on atoms (cartesian axes, Ry/au):

     atom    1 type  1   force =     0.00000204    0.00000118    0.00074470
     atom    2 type  2   force =    -0.00000302   -0.00000175   -0.00074725
     atom    3 type  1   force =    -0.00000206   -0.00000119    0.00074830
     atom    4 type  2   force =     0.00000225    0.00000130   -0.00074800
     atom    5 type  1   force =     0.00000320    0.00000185    0.00075184
     atom    6 type  2   force =    -0.00000285   -0.00000165   -0.00074750
     atom    7 type  1   force =    -0.00000251   -0.00000145    0.00074538
     atom    8 type  2   force =     0.00000296    0.00000171   -0.00074747
     The non-local contrib.  to forces
     atom    1 type  1   force =    -0.00000224   -0.00000129    0.00994028
     atom    2 type  2   force =    -0.00019344   -0.00011168   -0.00060003
     atom    3 type  1   force =     0.00000177    0.00000102    0.00994048
     atom    4 type  2   force =     0.00019356    0.00011175   -0.00060133
     atom    5 type  1   force =    -0.00000117   -0.00000067    0.00994123
     atom    6 type  2   force =    -0.00019221   -0.00011097   -0.00059952
     atom    7 type  1   force =     0.00000193    0.00000111    0.00993943
     atom    8 type  2   force =     0.00019311    0.00011149   -0.00060078
     The ionic contribution  to forces
     atom    1 type  1   force =     0.00000000    0.00000000   -0.01849175
     atom    2 type  2   force =    -0.00000000   -0.00000000    0.01849175
     atom    3 type  1   force =    -0.00000000   -0.00000000   -0.01849175
     atom    4 type  2   force =     0.00000000    0.00000000    0.01849175
     atom    5 type  1   force =     0.00000000    0.00000000   -0.01849175
     atom    6 type  2   force =    -0.00000000   -0.00000000    0.01849175
     atom    7 type  1   force =    -0.00000000   -0.00000000   -0.01849175
     atom    8 type  2   force =     0.00000000    0.00000000    0.01849175
     The local contribution  to forces
     atom    1 type  1   force =    -0.00000354   -0.00000204    0.01000367
     atom    2 type  2   force =     0.00018814    0.00010862   -0.01865543
     atom    3 type  1   force =     0.00000533    0.00000307    0.01000212
     atom    4 type  2   force =    -0.00018653   -0.00010769   -0.01865302
     atom    5 type  1   force =    -0.00000675   -0.00000390    0.00999954
     atom    6 type  2   force =     0.00018668    0.00010778   -0.01865674
     atom    7 type  1   force =     0.00000449    0.00000259    0.01000497
     atom    8 type  2   force =    -0.00018646   -0.00010765   -0.01865372
     The core correction contribution to forces
     atom    1 type  1   force =     0.00000549    0.00000317   -0.00070754
     atom    2 type  2   force =     0.00000218    0.00000126    0.00002063
     atom    3 type  1   force =    -0.00000560   -0.00000324   -0.00070756
     atom    4 type  2   force =    -0.00000218   -0.00000126    0.00002066
     atom    5 type  1   force =     0.00000560    0.00000324   -0.00070757
     atom    6 type  2   force =     0.00000216    0.00000125    0.00002062
     atom    7 type  1   force =    -0.00000554   -0.00000320   -0.00070758
     atom    8 type  2   force =    -0.00000217   -0.00000125    0.00002065
     The Hubbard contrib.    to forces
     atom    1 type  1   force =     0.00000000    0.00000000    0.00000000
     atom    2 type  2   force =     0.00000000    0.00000000    0.00000000
     atom    3 type  1   force =     0.00000000    0.00000000    0.00000000
     atom    4 type  2   force =     0.00000000    0.00000000    0.00000000
     atom    5 type  1   force =     0.00000000    0.00000000    0.00000000
     atom    6 type  2   force =     0.00000000    0.00000000    0.00000000
     atom    7 type  1   force =     0.00000000    0.00000000    0.00000000
     atom    8 type  2   force =     0.00000000    0.00000000    0.00000000
     The SCF correction term to forces
     atom    1 type  1   force =     0.00000262    0.00000151    0.00000232
     atom    2 type  2   force =     0.00000038    0.00000022   -0.00000190
     atom    3 type  1   force =    -0.00000327   -0.00000189    0.00000729
     atom    4 type  2   force =    -0.00000232   -0.00000134   -0.00000378
     atom    5 type  1   force =     0.00000579    0.00000334    0.00001267
     atom    6 type  2   force =     0.00000080    0.00000046   -0.00000134
     atom    7 type  1   force =    -0.00000311   -0.00000180    0.00000258
     atom    8 type  2   force =    -0.00000123   -0.00000071   -0.00000308

     Total force =     0.002114     Total SCF correction =     0.000019

     Writing all to output data dir ./ZnO-3.47-1.61-211.in.save/

     init_run     :      4.78s CPU      4.32s WALL (       1 calls)
     electrons    :    402.40s CPU    325.90s WALL (       1 calls)
     forces       :      1.34s CPU      1.09s WALL (       1 calls)

     Called by init_run:
     wfcinit      :      3.08s CPU      2.59s WALL (       1 calls)
     potinit      :      0.69s CPU      0.70s WALL (       1 calls)
     hinit0       :      0.79s CPU      0.80s WALL (       1 calls)

     Called by electrons:
     c_bands      :    362.53s CPU    291.15s WALL (      36 calls)
     sum_band     :     35.17s CPU     30.80s WALL (      36 calls)
     v_of_rho     :      1.66s CPU      1.47s WALL (      37 calls)
     newd         :      2.73s CPU      2.21s WALL (      37 calls)
     mix_rho      :      0.25s CPU      0.23s WALL (      36 calls)

     Called by c_bands:
     init_us_2    :      2.27s CPU      1.93s WALL (    2960 calls)
     init_us_2:cp :      2.25s CPU      1.92s WALL (    2960 calls)
     cegterg      :    341.44s CPU    273.51s WALL (    1440 calls)

     Called by *egterg:
     cdiaghg      :     49.53s CPU     38.89s WALL (    9697 calls)
     h_psi        :    219.69s CPU    195.27s WALL (    9737 calls)
     s_psi        :     16.14s CPU      8.61s WALL (    9737 calls)
     g_psi        :      1.32s CPU      0.92s WALL (    8257 calls)

     Called by h_psi:
     h_psi:calbec :     16.44s CPU      9.82s WALL (    9737 calls)
     vloc_psi     :    186.23s CPU    176.03s WALL (    9737 calls)
     add_vuspsi   :     16.31s CPU      8.88s WALL (    9737 calls)

     General routines
     calbec       :     20.80s CPU     12.34s WALL (   11337 calls)
     fft          :      1.13s CPU      1.10s WALL (     490 calls)
     ffts         :      0.25s CPU      0.25s WALL (      73 calls)
     fftw         :    183.29s CPU    175.02s WALL (  449854 calls)
     interpolate  :      0.30s CPU      0.30s WALL (      37 calls)

     Parallel routines

     PWSCF        :   6m49.22s CPU   5m32.31s WALL


   This run was terminated on:  17:22: 1  12Jul2025            

=------------------------------------------------------------------------------=
   JOB DONE.
=------------------------------------------------------------------------------=
Note: The following floating-point exceptions are signalling: IEEE_INVALID_FLAG
Note: The following floating-point exceptions are signalling: IEEE_INVALID_FLAG
