Authorization required, but no authorization protocol specified

Authorization required, but no authorization protocol specified

Authorization required, but no authorization protocol specified

Authorization required, but no authorization protocol specified

Authorization required, but no authorization protocol specified

Authorization required, but no authorization protocol specified

Authorization required, but no authorization protocol specified

Authorization required, but no authorization protocol specified

Authorization required, but no authorization protocol specified

Authorization required, but no authorization protocol specified

Authorization required, but no authorization protocol specified

Authorization required, but no authorization protocol specified

Authorization required, but no authorization protocol specified

Authorization required, but no authorization protocol specified

Authorization required, but no authorization protocol specified

Authorization required, but no authorization protocol specified

Authorization required, but no authorization protocol specified

Authorization required, but no authorization protocol specified


     Program PWSCF v.7.2 starts on 12Jul2025 at 12:13:11 

     This program is part of the open-source Quantum ESPRESSO suite
     for quantum simulation of materials; please cite
         "P. Giannozzi et al., J. Phys.:Condens. Matter 21 395502 (2009);
         "P. Giannozzi et al., J. Phys.:Condens. Matter 29 465901 (2017);
         "P. Giannozzi et al., J. Chem. Phys. 152 154105 (2020);
          URL http://www.quantum-espresso.org", 
     in publications or presentations arising from this work. More details at
     http://www.quantum-espresso.org/quote

     Parallel version (MPI), running on    16 processors

     MPI processes distributed on     1 nodes
     50467 MiB available memory on the printing compute node when the environment starts

     Reading input from /home/jvc/QEspresso7.2/ZnO_database/scripts/cell211_strain10%.in/ZnO-2.94-1.74-211.in
Warning: card &CELL ignored
Warning: card / ignored
Warning: card &FCP ignored
Warning: card / ignored
Warning: card &RISM ignored
Warning: card / ignored

     Current dimensions of program PWSCF are:
     Max number of different atomic species (ntypx) = 10
     Max number of k-points (npk) =  40000
     Max angular momentum in pseudopotentials (lmaxx) =  4
     file Zn.upf: wavefunction(s)  3D renormalized
     Found identity + ( -0.5000  0.0000  0.0000) symmetry
     This is a supercell, fractional translations are disabled
     Message from routine setup:
     using ibrav=0 with symmetry is DISCOURAGED, use correct ibrav instead

     K-points division:     npool     =       2
     R & G space division:  proc/nbgrp/npool/nimage =       8
     Subspace diagonalization in iterative solution of the eigenvalue problem:
     a serial algorithm will be used


     Parallelization info
     --------------------
     sticks:   dense  smooth     PW     G-vecs:    dense   smooth      PW
     Min         213     107     34                 8765     3103     560
     Max         214     108     35                 8769     3106     563
     Sum        1707     859    275                70139    24841    4487

     Using Slab Decomposition



     bravais-lattice index     =            0
     lattice parameter (alat)  =      11.1219  a.u.
     unit-cell volume          =     519.3207 (a.u.)^3
     number of atoms/cell      =            8
     number of atomic types    =            2
     number of electrons       =        72.00
     number of Kohn-Sham states=           36
     kinetic-energy cutoff     =      50.0000  Ry
     charge density cutoff     =     400.0000  Ry
     scf convergence threshold =      1.0E-08
     mixing beta               =       0.3000
     number of iterations used =            8  plain     mixing
     Exchange-correlation= PBE
                           (   1   4   3   4   0   0   0)

     celldm(1)=  11.121937  celldm(2)=   0.000000  celldm(3)=   0.000000
     celldm(4)=   0.000000  celldm(5)=   0.000000  celldm(6)=   0.000000

     crystal axes: (cart. coord. in units of alat)
               a(1) = (   1.000000   0.000000   0.000000 )  
               a(2) = (  -0.250000   0.433013   0.000000 )  
               a(3) = (   0.000000   0.000000   0.871754 )  

     reciprocal axes: (cart. coord. in units 2 pi/alat)
               b(1) = (  1.000000  0.577350 -0.000000 )  
               b(2) = (  0.000000  2.309401  0.000000 )  
               b(3) = (  0.000000 -0.000000  1.147113 )  


     PseudoPot. # 1 for Zn read from file:
     /home/jvc/QEspresso7.2/ZnO_database/pseudos/Zn.upf
     MD5 check sum: 7f56cabf9682ed8c977c2f7d0c5985c5
     Pseudo is Ultrasoft + core correction, Zval = 12.0
     Generated using &quot;atomic&quot; code by A. Dal Corso  v.6.2.2
     Using radial grid of 1201 points,  6 beta functions with: 
                l(1) =   0
                l(2) =   0
                l(3) =   1
                l(4) =   1
                l(5) =   2
                l(6) =   2
     Q(r) pseudized with 0 coefficients 


     PseudoPot. # 2 for O  read from file:
     /home/jvc/QEspresso7.2/ZnO_database/pseudos/O.upf
     MD5 check sum: 91400c9766925bcf19f520983a725ff0
     Pseudo is Ultrasoft + core correction, Zval =  6.0
     Generated using &quot;atomic&quot; code by A. Dal Corso  v.6.3MaX
     Using radial grid of 1095 points,  4 beta functions with: 
                l(1) =   0
                l(2) =   0
                l(3) =   1
                l(4) =   1
     Q(r) pseudized with 0 coefficients 


     atomic species   valence    mass     pseudopotential
        Zn            12.00    65.38000     Zn( 1.00)
        O              6.00    15.99900     O ( 1.00)

      2 Sym. Ops. (no inversion) found



   Cartesian axes

     site n.     atom                  positions (alat units)
         1           Zn  tau(   1) = (   0.0000000   0.0000000   0.0000000  )
         2           O   tau(   2) = (   0.0000000   0.2886751   0.1223456  )
         3           Zn  tau(   3) = (   0.0000000   0.2886751   0.4358768  )
         4           O   tau(   4) = (   0.0000000   0.0000000   0.5582224  )
         5           Zn  tau(   5) = (   0.5000000   0.0000000   0.0000000  )
         6           O   tau(   6) = (   0.5000000   0.2886751   0.1223456  )
         7           Zn  tau(   7) = (   0.5000000   0.2886751   0.4358768  )
         8           O   tau(   8) = (   0.5000000   0.0000000   0.5582224  )

     number of k points=    80
                       cart. coord. in units 2pi/alat
        k(    1) = (   0.0000000   0.0000000   0.0000000), wk =   0.0092593
        k(    2) = (   0.0000000   0.0000000   0.1911855), wk =   0.0185185
        k(    3) = (   0.0000000   0.0000000   0.3823711), wk =   0.0185185
        k(    4) = (   0.0000000   0.0000000  -0.5735566), wk =   0.0092593
        k(    5) = (   0.0000000   0.3849002   0.0000000), wk =   0.0370370
        k(    6) = (   0.0000000   0.3849002   0.1911855), wk =   0.0370370
        k(    7) = (   0.0000000   0.3849002   0.3823711), wk =   0.0370370
        k(    8) = (   0.0000000   0.3849002  -0.5735566), wk =   0.0370370
        k(    9) = (   0.0000000   0.7698004   0.0000000), wk =   0.0370370
        k(   10) = (   0.0000000   0.7698004   0.1911855), wk =   0.0370370
        k(   11) = (   0.0000000   0.7698004   0.3823711), wk =   0.0370370
        k(   12) = (   0.0000000   0.7698004  -0.5735566), wk =   0.0370370
        k(   13) = (   0.0000000  -1.1547005   0.0000000), wk =   0.0092593
        k(   14) = (   0.0000000  -1.1547005   0.1911855), wk =   0.0185185
        k(   15) = (   0.0000000  -1.1547005   0.3823711), wk =   0.0185185
        k(   16) = (   0.0000000  -1.1547005  -0.5735566), wk =   0.0092593
        k(   17) = (   0.1666667   0.0962250   0.0000000), wk =   0.0185185
        k(   18) = (   0.1666667   0.0962250   0.1911855), wk =   0.0185185
        k(   19) = (   0.1666667   0.0962250   0.3823711), wk =   0.0185185
        k(   20) = (   0.1666667   0.0962250  -0.5735566), wk =   0.0185185
        k(   21) = (   0.1666667   0.4811252   0.0000000), wk =   0.0370370
        k(   22) = (   0.1666667   0.4811252   0.1911855), wk =   0.0370370
        k(   23) = (   0.1666667   0.4811252   0.3823711), wk =   0.0370370
        k(   24) = (   0.1666667   0.4811252  -0.5735566), wk =   0.0370370
        k(   25) = (   0.1666667   0.8660254   0.0000000), wk =   0.0185185
        k(   26) = (   0.1666667   0.8660254   0.1911855), wk =   0.0370370
        k(   27) = (   0.1666667   0.8660254   0.3823711), wk =   0.0370370
        k(   28) = (   0.1666667   0.8660254  -0.5735566), wk =   0.0185185
        k(   29) = (   0.1666667  -1.0584755   0.0000000), wk =   0.0185185
        k(   30) = (   0.1666667  -1.0584755   0.1911855), wk =   0.0185185
        k(   31) = (   0.1666667  -1.0584755   0.3823711), wk =   0.0185185
        k(   32) = (   0.1666667  -1.0584755  -0.5735566), wk =   0.0185185
        k(   33) = (   0.1666667  -0.6735753   0.0000000), wk =   0.0370370
        k(   34) = (   0.1666667  -0.6735753   0.1911855), wk =   0.0370370
        k(   35) = (   0.1666667  -0.6735753   0.3823711), wk =   0.0370370
        k(   36) = (   0.1666667  -0.6735753  -0.5735566), wk =   0.0370370
        k(   37) = (   0.1666667  -0.2886751   0.0000000), wk =   0.0185185
        k(   38) = (   0.1666667  -0.2886751   0.1911855), wk =   0.0370370
        k(   39) = (   0.1666667  -0.2886751   0.3823711), wk =   0.0370370
        k(   40) = (   0.1666667  -0.2886751  -0.5735566), wk =   0.0185185
        k(   41) = (   0.3333333   0.1924501   0.0000000), wk =   0.0185185
        k(   42) = (   0.3333333   0.1924501   0.1911855), wk =   0.0185185
        k(   43) = (   0.3333333   0.1924501   0.3823711), wk =   0.0185185
        k(   44) = (   0.3333333   0.1924501  -0.5735566), wk =   0.0185185
        k(   45) = (   0.3333333   0.5773503   0.0000000), wk =   0.0185185
        k(   46) = (   0.3333333   0.5773503   0.1911855), wk =   0.0370370
        k(   47) = (   0.3333333   0.5773503   0.3823711), wk =   0.0370370
        k(   48) = (   0.3333333   0.5773503  -0.5735566), wk =   0.0185185
        k(   49) = (   0.3333333  -0.9622504   0.0000000), wk =   0.0185185
        k(   50) = (   0.3333333  -0.9622504   0.1911855), wk =   0.0185185
        k(   51) = (   0.3333333  -0.9622504   0.3823711), wk =   0.0185185
        k(   52) = (   0.3333333  -0.9622504  -0.5735566), wk =   0.0185185
        k(   53) = (   0.3333333  -0.5773503   0.0000000), wk =   0.0185185
        k(   54) = (   0.3333333  -0.5773503   0.1911855), wk =   0.0370370
        k(   55) = (   0.3333333  -0.5773503   0.3823711), wk =   0.0370370
        k(   56) = (   0.3333333  -0.5773503  -0.5735566), wk =   0.0185185
        k(   57) = (  -0.5000000  -0.2886751   0.0000000), wk =   0.0092593
        k(   58) = (  -0.5000000  -0.2886751   0.1911855), wk =   0.0185185
        k(   59) = (  -0.5000000  -0.2886751   0.3823711), wk =   0.0185185
        k(   60) = (  -0.5000000  -0.2886751  -0.5735566), wk =   0.0092593
        k(   61) = (  -0.5000000  -1.4433757   0.0000000), wk =   0.0092593
        k(   62) = (  -0.5000000  -1.4433757   0.1911855), wk =   0.0185185
        k(   63) = (  -0.5000000  -1.4433757   0.3823711), wk =   0.0185185
        k(   64) = (  -0.5000000  -1.4433757  -0.5735566), wk =   0.0092593
        k(   65) = (   0.3333333  -0.1924501  -0.1911855), wk =   0.0370370
        k(   66) = (   0.3333333  -0.1924501  -0.3823711), wk =   0.0370370
        k(   67) = (   0.6666667  -0.3849002  -0.1911855), wk =   0.0370370
        k(   68) = (   0.6666667  -0.3849002  -0.3823711), wk =   0.0370370
        k(   69) = (   0.1666667   0.0962250  -0.1911855), wk =   0.0185185
        k(   70) = (   0.1666667   0.0962250  -0.3823711), wk =   0.0185185
        k(   71) = (   0.5000000  -0.0962250  -0.1911855), wk =   0.0370370
        k(   72) = (   0.5000000  -0.0962250  -0.3823711), wk =   0.0370370
        k(   73) = (  -0.8333333   0.6735753  -0.1911855), wk =   0.0185185
        k(   74) = (  -0.8333333   0.6735753  -0.3823711), wk =   0.0185185
        k(   75) = (  -0.5000000   0.4811252  -0.1911855), wk =   0.0370370
        k(   76) = (  -0.5000000   0.4811252  -0.3823711), wk =   0.0370370
        k(   77) = (   0.3333333   0.1924501  -0.1911855), wk =   0.0185185
        k(   78) = (   0.3333333   0.1924501  -0.3823711), wk =   0.0185185
        k(   79) = (  -0.6666667   0.7698004  -0.1911855), wk =   0.0185185
        k(   80) = (  -0.6666667   0.7698004  -0.3823711), wk =   0.0185185

     Dense  grid:    70139 G-vectors     FFT dimensions: (  72,  36,  64)

     Smooth grid:    24841 G-vectors     FFT dimensions: (  54,  25,  45)

     Estimated max dynamical RAM per process >      31.03 MB

     Estimated total dynamical RAM >     479.34 MB

     Check: negative core charge=   -0.000001

     Initial potential from superposition of free atoms

     starting charge      71.9851, renormalised to      72.0000
     Starting wfcs are   52 randomized atomic wfcs

     total cpu time spent up to now is        3.3 secs

     Self-consistent Calculation

     iteration #  1     ecut=    50.00 Ry     beta= 0.30
     Davidson diagonalization with overlap
     ethr =  1.00E-02,  avg # of iterations =  2.0

     total cpu time spent up to now is        6.9 secs

     total energy              =    -722.78441425 Ry
     estimated scf accuracy    <       1.34417417 Ry

     iteration #  2     ecut=    50.00 Ry     beta= 0.30
     Davidson diagonalization with overlap
     ethr =  1.87E-03,  avg # of iterations =  2.0

     total cpu time spent up to now is       11.1 secs

     total energy              =    -722.86463950 Ry
     estimated scf accuracy    <       0.26674231 Ry

     iteration #  3     ecut=    50.00 Ry     beta= 0.30
     Davidson diagonalization with overlap
     ethr =  3.70E-04,  avg # of iterations =  6.5

     total cpu time spent up to now is       18.7 secs

     total energy              =    -723.02850989 Ry
     estimated scf accuracy    <       0.18801902 Ry

     iteration #  4     ecut=    50.00 Ry     beta= 0.30
     Davidson diagonalization with overlap
     ethr =  2.61E-04,  avg # of iterations =  2.0

     total cpu time spent up to now is       22.3 secs

     total energy              =    -723.02215787 Ry
     estimated scf accuracy    <       0.05273071 Ry

     iteration #  5     ecut=    50.00 Ry     beta= 0.30
     Davidson diagonalization with overlap
     ethr =  7.32E-05,  avg # of iterations =  9.5

     total cpu time spent up to now is       33.2 secs

     total energy              =    -723.14728620 Ry
     estimated scf accuracy    <       0.97313677 Ry

     iteration #  6     ecut=    50.00 Ry     beta= 0.30
     Davidson diagonalization with overlap
     ethr =  7.32E-05,  avg # of iterations =  5.2

     total cpu time spent up to now is       39.1 secs

     total energy              =    -722.95998086 Ry
     estimated scf accuracy    <       0.47170036 Ry

     iteration #  7     ecut=    50.00 Ry     beta= 0.30
     Davidson diagonalization with overlap
     ethr =  7.32E-05,  avg # of iterations =  7.4

     total cpu time spent up to now is       47.8 secs

     total energy              =    -723.04835302 Ry
     estimated scf accuracy    <       0.00175011 Ry

     iteration #  8     ecut=    50.00 Ry     beta= 0.30
     Davidson diagonalization with overlap
     ethr =  2.43E-06,  avg # of iterations = 10.1

     total cpu time spent up to now is       58.4 secs

     total energy              =    -723.05171772 Ry
     estimated scf accuracy    <       0.01323918 Ry

     iteration #  9     ecut=    50.00 Ry     beta= 0.30
     Davidson diagonalization with overlap
     ethr =  2.43E-06,  avg # of iterations =  2.1

     total cpu time spent up to now is       62.2 secs

     total energy              =    -723.04650283 Ry
     estimated scf accuracy    <       0.00813325 Ry

     iteration # 10     ecut=    50.00 Ry     beta= 0.30
     Davidson diagonalization with overlap
     ethr =  2.43E-06,  avg # of iterations =  8.7

     total cpu time spent up to now is       72.1 secs

     total energy              =    -723.05082685 Ry
     estimated scf accuracy    <       0.00498699 Ry

     iteration # 11     ecut=    50.00 Ry     beta= 0.30
     Davidson diagonalization with overlap
     ethr =  2.43E-06,  avg # of iterations =  2.0

     total cpu time spent up to now is       75.6 secs

     total energy              =    -723.05066081 Ry
     estimated scf accuracy    <       0.00264286 Ry

     iteration # 12     ecut=    50.00 Ry     beta= 0.30
     Davidson diagonalization with overlap
     ethr =  2.43E-06,  avg # of iterations =  2.0

     total cpu time spent up to now is       79.4 secs

     total energy              =    -723.05038883 Ry
     estimated scf accuracy    <       0.00145344 Ry

     iteration # 13     ecut=    50.00 Ry     beta= 0.30
     Davidson diagonalization with overlap
     ethr =  2.02E-06,  avg # of iterations =  2.0

     total cpu time spent up to now is       83.3 secs

     total energy              =    -723.05046738 Ry
     estimated scf accuracy    <       0.00043150 Ry

     iteration # 14     ecut=    50.00 Ry     beta= 0.30
     Davidson diagonalization with overlap
     ethr =  5.99E-07,  avg # of iterations =  4.8

     total cpu time spent up to now is       88.9 secs

     total energy              =    -723.05060607 Ry
     estimated scf accuracy    <       0.00002222 Ry

     iteration # 15     ecut=    50.00 Ry     beta= 0.30
     Davidson diagonalization with overlap
     ethr =  3.09E-08,  avg # of iterations =  7.4

     total cpu time spent up to now is       96.9 secs

     total energy              =    -723.05063192 Ry
     estimated scf accuracy    <       0.00001093 Ry

     iteration # 16     ecut=    50.00 Ry     beta= 0.30
     Davidson diagonalization with overlap
     ethr =  1.52E-08,  avg # of iterations =  1.4

     total cpu time spent up to now is      100.3 secs

     total energy              =    -723.05063122 Ry
     estimated scf accuracy    <       0.00000689 Ry

     iteration # 17     ecut=    50.00 Ry     beta= 0.30
     Davidson diagonalization with overlap
     ethr =  9.58E-09,  avg # of iterations =  1.7

     total cpu time spent up to now is      103.8 secs

     total energy              =    -723.05062989 Ry
     estimated scf accuracy    <       0.00000373 Ry

     iteration # 18     ecut=    50.00 Ry     beta= 0.30
     Davidson diagonalization with overlap
     ethr =  5.19E-09,  avg # of iterations =  3.3

     total cpu time spent up to now is      108.4 secs

     total energy              =    -723.05063094 Ry
     estimated scf accuracy    <       0.00000036 Ry

     iteration # 19     ecut=    50.00 Ry     beta= 0.30
     Davidson diagonalization with overlap
     ethr =  5.04E-10,  avg # of iterations = 11.2

     total cpu time spent up to now is      121.1 secs

     total energy              =    -723.05063908 Ry
     estimated scf accuracy    <       0.00001857 Ry

     iteration # 20     ecut=    50.00 Ry     beta= 0.30
     Davidson diagonalization with overlap
     ethr =  5.04E-10,  avg # of iterations =  6.6

     total cpu time spent up to now is      128.3 secs

     total energy              =    -723.05064075 Ry
     estimated scf accuracy    <       0.00002921 Ry

     iteration # 21     ecut=    50.00 Ry     beta= 0.30
     Davidson diagonalization with overlap
     ethr =  5.04E-10,  avg # of iterations =  2.4

     total cpu time spent up to now is      132.2 secs

     total energy              =    -723.05063377 Ry
     estimated scf accuracy    <       0.00003249 Ry

     iteration # 22     ecut=    50.00 Ry     beta= 0.30
     Davidson diagonalization with overlap
     ethr =  5.04E-10,  avg # of iterations =  8.6

     total cpu time spent up to now is      141.5 secs

     total energy              =    -723.05063203 Ry
     estimated scf accuracy    <       0.00001335 Ry

     iteration # 23     ecut=    50.00 Ry     beta= 0.30
     Davidson diagonalization with overlap
     ethr =  5.04E-10,  avg # of iterations =  6.9

     total cpu time spent up to now is      149.2 secs

     total energy              =    -723.05062907 Ry
     estimated scf accuracy    <       0.00000572 Ry

     iteration # 24     ecut=    50.00 Ry     beta= 0.30
     Davidson diagonalization with overlap
     ethr =  5.04E-10,  avg # of iterations = 10.0

     total cpu time spent up to now is      160.3 secs

     total energy              =    -723.05063081 Ry
     estimated scf accuracy    <       0.00000064 Ry

     iteration # 25     ecut=    50.00 Ry     beta= 0.30
     Davidson diagonalization with overlap
     ethr =  5.04E-10,  avg # of iterations =  2.0

     total cpu time spent up to now is      164.0 secs

     total energy              =    -723.05063070 Ry
     estimated scf accuracy    <       0.00000022 Ry

     iteration # 26     ecut=    50.00 Ry     beta= 0.30
     Davidson diagonalization with overlap
     ethr =  3.02E-10,  avg # of iterations =  6.2

     total cpu time spent up to now is      171.4 secs

     total energy              =    -723.05063086 Ry
     estimated scf accuracy    <       0.00000016 Ry

     iteration # 27     ecut=    50.00 Ry     beta= 0.30
     Davidson diagonalization with overlap
     ethr =  2.23E-10,  avg # of iterations =  1.1

     total cpu time spent up to now is      174.7 secs

     total energy              =    -723.05063084 Ry
     estimated scf accuracy    <       0.00000007 Ry

     iteration # 28     ecut=    50.00 Ry     beta= 0.30
     Davidson diagonalization with overlap
     ethr =  1.03E-10,  avg # of iterations =  2.0

     total cpu time spent up to now is      178.7 secs

     total energy              =    -723.05063085 Ry
     estimated scf accuracy    <       0.00000002 Ry

     iteration # 29     ecut=    50.00 Ry     beta= 0.30
     Davidson diagonalization with overlap
     ethr =  2.57E-11,  avg # of iterations =  4.6

     total cpu time spent up to now is      184.4 secs

     End of self-consistent calculation

          k = 0.0000 0.0000 0.0000 (  3121 PWs)   bands (ev):

    -9.1663  -8.1985  -8.0585  -7.7695   3.0395   3.3083   3.4043   3.6324
     3.9923   3.9926   4.1898   4.3198   4.3199   4.3548   4.5061   5.0690
     5.6684   5.7759   5.7759   6.0597   6.0598   6.0991   6.1571   6.3092
     6.3161   6.6475   6.8811   7.4456   8.1064   8.9789   9.8462   9.8465
     9.9978  10.6664  10.9105  10.9108

          k = 0.0000 0.0000 0.1912 (  3104 PWs)   bands (ev):

    -9.1069  -8.2694  -8.0371  -7.7865   3.0382   3.2403   3.3048   3.5633
     4.0085   4.0087   4.2334   4.2908   4.2910   4.3720   4.4909   4.9861
     5.7653   5.7994   5.7994   6.0469   6.0469   6.1006   6.1463   6.2974
     6.5766   6.6364   6.8307   7.6703   8.2582   9.0388   9.8822   9.9180
     9.9183  10.0816  10.8396  10.8400

          k = 0.0000 0.0000 0.3824 (  3118 PWs)   bands (ev):

    -8.9410  -8.4583  -7.9798  -7.8348   3.0777   3.1117   3.1316   3.3919
     4.0558   4.0560   4.2175   4.2177   4.3607   4.4047   4.4629   4.7857
     5.8600   5.8600   5.9556   6.0046   6.0046   6.1052   6.1276   6.2468
     6.6324   6.7315   7.2571   8.2081   8.6404   9.0493   9.1437   9.5638
    10.1136  10.1139  10.6457  10.6460

          k = 0.0000 0.0000-0.5736 (  3098 PWs)   bands (ev):

    -8.7054  -8.7054  -7.9050  -7.9050   3.0526   3.0526   3.2043   3.2043
     4.1307   4.1307   4.1309   4.1309   4.4347   4.4347   4.5557   4.5557
     5.9373   5.9373   5.9373   5.9373   6.1134   6.1134   6.1306   6.1306
     6.6593   6.6593   8.1665   8.1665   8.7611   8.7611   9.1162   9.1162
    10.3802  10.3802  10.3805  10.3805

          k = 0.0000 0.3849 0.0000 (  3101 PWs)   bands (ev):

    -8.9302  -8.0740  -8.0739  -7.7640   3.3634   3.4220   3.6936   3.7363
     3.7831   4.0741   4.1491   4.2384   4.3925   4.4757   4.5260   4.9867
     5.6557   5.6561   5.7299   5.7813   6.0393   6.0721   6.1955   6.3233
     6.3584   6.6016   7.0051   7.4730   7.8431   8.7969   9.0752   9.4499
     9.6381   9.7875  10.4788  10.7112

          k = 0.0000 0.3849 0.1912 (  3101 PWs)   bands (ev):

    -8.8765  -8.1351  -8.0512  -7.7825   3.2944   3.3750   3.5693   3.5849
     3.8998   4.0949   4.1156   4.2354   4.3230   4.4410   4.5957   4.9161
     5.6720   5.6945   5.8027   5.8666   6.0525   6.0548   6.1977   6.4183
     6.5097   6.5789   7.1785   7.5357   7.9290   8.8712   9.1047   9.5204
     9.5375   9.6153  10.2859  10.6286

          k = 0.0000 0.3849 0.3824 (  3100 PWs)   bands (ev):

    -8.7273  -8.2995  -7.9904  -7.8349   3.2069   3.2787   3.3715   3.3763
     4.0064   4.1025   4.1555   4.1902   4.2736   4.3537   4.6438   4.7930
     5.7721   5.7871   5.8599   5.9541   5.9996   6.0059   6.2133   6.3439
     6.6653   7.1746   7.3016   7.8928   8.2867   8.9346   8.9969   9.2436
     9.2714   9.7736   9.8815  10.4022

          k = 0.0000 0.3849-0.5736 (  3094 PWs)   bands (ev):

    -8.5172  -8.5172  -7.9105  -7.9105   3.2310   3.2310   3.2546   3.2546
     4.1050   4.1050   4.1815   4.1815   4.2480   4.2480   4.6995   4.6995
     5.8942   5.8942   5.8998   5.8998   5.9347   5.9347   6.2554   6.2554
     6.9402   6.9402   8.2030   8.2030   8.3787   8.3787   8.9650   8.9650
     9.4855   9.4855  10.0902  10.0902

          k = 0.0000 0.7698 0.0000 (  3093 PWs)   bands (ev):

    -8.3955  -8.0740  -7.8420  -7.7640   3.2266   3.4221   3.6936   3.7459
     4.1490   4.1742   4.2064   4.3925   4.3933   4.5260   4.8459   4.9865
     5.6094   5.6557   5.7300   5.9309   5.9310   6.1076   6.1955   6.3585
     6.5396   6.6016   7.0051   7.0851   7.4729   7.8431   8.5074   8.6051
     9.0752   9.6380   9.7089  10.2586

          k = 0.0000 0.7698 0.1912 (  3098 PWs)   bands (ev):

    -8.3583  -8.0512  -7.8787  -7.7825   3.1840   3.3751   3.5667   3.5849
     4.1155   4.2033   4.2096   4.3231   4.4081   4.5958   4.7873   4.9160
     5.6455   5.6720   5.8666   5.9411   6.0527   6.0916   6.1978   6.4183
     6.5098   6.6792   7.1785   7.2150   7.5357   7.9289   8.4100   8.7286
     9.1047   9.5203   9.6610  10.1542

          k = 0.0000 0.7698 0.3824 (  3109 PWs)   bands (ev):

    -8.2567  -7.9904  -7.9794  -7.8349   3.1126   3.2788   3.2828   3.3763
     4.1024   4.2393   4.2736   4.3115   4.3738   4.6407   4.6438   4.7929
     5.7553   5.7721   5.9541   5.9693   6.0300   6.0539   6.2133   6.3439
     6.6654   7.1447   7.1747   7.5238   7.8927   8.2867   8.3130   8.9969
     9.0511   9.2713   9.3719   9.8671

          k = 0.0000 0.7698-0.5736 (  3122 PWs)   bands (ev):

    -8.1179  -8.1179  -7.9105  -7.9105   3.1221   3.1221   3.2547   3.2547
     4.1815   4.1815   4.3044   4.3044   4.4653   4.4653   4.6995   4.6995
     5.8942   5.8942   5.8984   5.8984   6.0095   6.0095   6.2554   6.2554
     6.9403   6.9403   7.4998   7.4998   8.3786   8.3786   8.7723   8.7724
     8.9650   8.9650   9.4674   9.4674

          k = 0.0000-1.1547 0.0000 (  3080 PWs)   bands (ev):

    -8.0585  -8.0585  -7.7695  -7.7695   3.3084   3.3084   3.4044   3.4044
     4.1896   4.1896   4.3548   4.3548   4.5062   4.5062   5.0688   5.0688
     5.6684   5.6684   6.0992   6.0992   6.1571   6.1571   6.3093   6.3093
     6.6476   6.6476   6.8812   6.8812   7.4456   7.4456   8.1062   8.1062
     8.9789   8.9789   9.9976   9.9976

          k = 0.0000-1.1547 0.1912 (  3104 PWs)   bands (ev):

    -8.0371  -8.0371  -7.7865  -7.7865   3.2404   3.2404   3.3049   3.3049
     4.2333   4.2333   4.3721   4.3721   4.4909   4.4909   4.9860   4.9860
     5.7653   5.7653   6.1006   6.1006   6.1463   6.1463   6.2975   6.2975
     6.6365   6.6365   6.8307   6.8307   7.6703   7.6703   8.2580   8.2580
     9.0388   9.0388   9.8820   9.8820

          k = 0.0000-1.1547 0.3824 (  3108 PWs)   bands (ev):

    -7.9798  -7.9798  -7.8348  -7.8348   3.1118   3.1118   3.1317   3.1317
     4.3605   4.3605   4.4047   4.4047   4.4629   4.4629   4.7855   4.7855
     5.9556   5.9556   6.1053   6.1053   6.1276   6.1276   6.2469   6.2469
     6.6325   6.6325   6.7316   6.7316   8.2081   8.2081   8.6402   8.6402
     9.0493   9.0493   9.5636   9.5636

          k = 0.0000-1.1547-0.5736 (  3128 PWs)   bands (ev):

    -7.9050  -7.9050  -7.9050  -7.9050   3.0527   3.0527   3.0527   3.0527
     4.4347   4.4347   4.4347   4.4347   4.5556   4.5556   4.5556   4.5556
     6.1135   6.1135   6.1135   6.1135   6.1307   6.1307   6.1307   6.1307
     6.6594   6.6594   6.6594   6.6594   8.7611   8.7611   8.7611   8.7611
     9.1160   9.1160   9.1160   9.1160

          k = 0.1667 0.0962 0.0000 (  3110 PWs)   bands (ev):

    -9.1045  -8.1649  -8.1594  -7.7802   3.1341   3.2130   3.5749   3.6695
     3.9130   4.0163   4.1878   4.2936   4.3603   4.3647   4.4428   5.0067
     5.6800   5.7436   5.7733   6.0449   6.0609   6.0634   6.1398   6.2746
     6.3108   6.5184   6.7090   7.8983   8.2497   9.2111   9.5502   9.7407
    10.0706  10.4534  10.6264  10.8591

          k = 0.1667 0.0962 0.1912 (  3119 PWs)   bands (ev):

    -9.0466  -8.2334  -8.1325  -7.8038   3.1148   3.1631   3.4405   3.5802
     3.9532   4.0333   4.2292   4.2696   4.3299   4.3553   4.4540   4.9314
     5.7484   5.7703   5.7963   6.0489   6.0490   6.0497   6.1277   6.2428
     6.5479   6.5747   6.9151   7.8986   8.3923   9.2451   9.6199   9.8167
     9.9581   9.9967  10.5873  10.7849

          k = 0.1667 0.0962 0.3824 (  3097 PWs)   bands (ev):

    -8.8849  -8.4160  -8.0598  -7.8696   3.0766   3.1197   3.2061   3.3958
     4.0268   4.0837   4.2021   4.2536   4.3497   4.3685   4.4407   4.7475
     5.8397   5.8571   5.8767   6.0030   6.0043   6.0609   6.1035   6.1343
     6.7324   7.0737   7.2706   8.1803   8.7561   9.1365   9.1644   9.6484
     9.8316  10.0233  10.3858  10.5820

          k = 0.1667 0.0962-0.5736 (  3104 PWs)   bands (ev):

    -8.6557  -8.6557  -7.9630  -7.9630   3.0696   3.0696   3.2184   3.2184
     4.1132   4.1132   4.1622   4.1622   4.4037   4.4037   4.5333   4.5333
     5.9260   5.9260   5.9346   5.9346   6.0087   6.0087   6.0797   6.0797
     6.9428   6.9428   8.1860   8.1860   8.7595   8.7595   9.2144   9.2144
    10.1060  10.1060  10.3036  10.3036

          k = 0.1667 0.4811 0.0000 (  3093 PWs)   bands (ev):

    -8.7719  -8.2890  -7.9964  -7.8067   3.4191   3.4783   3.6600   3.6701
     3.8594   4.0878   4.1361   4.2442   4.3437   4.5473   4.5692   4.8076
     5.5577   5.6055   5.7109   5.7790   6.0175   6.0759   6.1353   6.2386
     6.3698   6.6508   7.1413   7.8265   8.3189   8.3242   8.9509   9.4899
     9.6107   9.8693  10.3120  10.5190

          k = 0.1667 0.4811 0.1912 (  3094 PWs)   bands (ev):

    -8.7225  -8.2560  -8.0509  -7.8379   3.3591   3.3927   3.5250   3.5606
     3.9321   4.1142   4.1305   4.2258   4.2754   4.5314   4.5740   4.7552
     5.5927   5.6491   5.8140   5.8714   6.0551   6.0617   6.1289   6.2462
     6.6007   6.7169   7.3349   7.9135   8.2766   8.4041   8.9825   9.4286
     9.5765   9.7484  10.1403  10.4261

          k = 0.1667 0.4811 0.3824 (  3111 PWs)   bands (ev):

    -8.5856  -8.1979  -8.1660  -7.9243   3.2517   3.2537   3.3315   3.3493
     4.0307   4.1443   4.1552   4.1915   4.2753   4.4367   4.5595   4.6442
     5.7158   5.7555   5.8734   5.9703   6.0050   6.0110   6.1143   6.1540
     7.0855   7.3211   7.6678   8.0530   8.4247   8.5939   8.8573   9.3464
     9.4384   9.5133   9.6650  10.1731

          k = 0.1667 0.4811-0.5736 (  3104 PWs)   bands (ev):

    -8.3943  -8.3943  -8.0443  -8.0443   3.2242   3.2242   3.2256   3.2256
     4.1196   4.1196   4.1849   4.1849   4.3288   4.3288   4.5629   4.5629
     5.8798   5.8798   5.8868   5.8868   5.9439   5.9439   6.1046   6.1046
     7.4601   7.4601   8.1534   8.1534   8.5750   8.5750   9.0889   9.0889
     9.1127   9.1127   9.8319   9.8319

          k = 0.1667 0.8660 0.0000 (  3106 PWs)   bands (ev):

    -8.2416  -8.2416  -7.7960  -7.7960   3.2588   3.2588   3.6864   3.6864
     4.1347   4.1347   4.3525   4.3525   4.4445   4.4445   4.9301   4.9301
     5.6692   5.6692   5.8138   5.8139   6.1334   6.1334   6.2118   6.2118
     6.6410   6.6410   6.8036   6.8036   8.1583   8.1583   8.1792   8.1792
     9.4279   9.4279  10.0279  10.0279

          k = 0.1667 0.8660 0.1912 (  3108 PWs)   bands (ev):

    -8.2107  -8.2107  -7.8244  -7.8244   3.2124   3.2124   3.5399   3.5399
     4.1650   4.1650   4.3010   4.3010   4.4872   4.4872   4.8598   4.8598
     5.6847   5.6847   5.9263   5.9263   6.1242   6.1242   6.2197   6.2197
     6.6547   6.6547   7.0380   7.0380   8.0782   8.0782   8.3305   8.3305
     9.4271   9.4271   9.9124   9.9124

          k = 0.1667 0.8660 0.3824 (  3114 PWs)   bands (ev):

    -8.1268  -8.1268  -7.9034  -7.9034   3.1326   3.1326   3.2835   3.2835
     4.2360   4.2360   4.2999   4.2999   4.4970   4.4970   4.7022   4.7022
     5.7828   5.7828   5.9920   5.9920   6.1013   6.1013   6.1376   6.1376
     6.9215   6.9215   7.3344   7.3344   8.1627   8.1627   8.6742   8.6742
     9.2664   9.2664   9.6006   9.6006

          k = 0.1667 0.8660-0.5736 (  3096 PWs)   bands (ev):

    -8.0139  -8.0139  -8.0139  -8.0139   3.1337   3.1337   3.1337   3.1337
     4.2993   4.2993   4.2993   4.2993   4.5508   4.5508   4.5508   4.5508
     5.9181   5.9181   5.9181   5.9181   6.0911   6.0911   6.0911   6.0911
     7.2078   7.2078   7.2078   7.2078   8.7118   8.7118   8.7118   8.7118
     9.1876   9.1876   9.1876   9.1876

          k = 0.1667-1.0585 0.0000 (  3096 PWs)   bands (ev):

    -8.0638  -8.0638  -7.7676  -7.7676   3.3147   3.3147   3.5365   3.5365
     4.1674   4.1674   4.3925   4.3925   4.4652   4.4652   5.0515   5.0515
     5.6658   5.6658   5.9928   5.9928   6.1729   6.1729   6.3639   6.3639
     6.5859   6.5859   6.8774   6.8774   7.5171   7.5171   8.0219   8.0219
     8.9794   8.9794   9.8860   9.8860

          k = 0.1667-1.0585 0.1912 (  3114 PWs)   bands (ev):

    -8.0419  -8.0419  -7.7851  -7.7851   3.2563   3.2563   3.4225   3.4225
     4.1764   4.1764   4.4109   4.4109   4.4746   4.4746   4.9711   4.9711
     5.7506   5.7506   6.0053   6.0054   6.1674   6.1674   6.3524   6.3524
     6.5570   6.5570   6.9482   6.9482   7.6480   7.6480   8.1672   8.1672
     9.0356   9.0356   9.7661   9.7661

          k = 0.1667-1.0585 0.3824 (  3108 PWs)   bands (ev):

    -7.9833  -7.9833  -7.8348  -7.8347   3.1474   3.1474   3.2212   3.2212
     4.2371   4.2371   4.4028   4.4028   4.5226   4.5226   4.7945   4.7945
     5.8971   5.8971   6.0210   6.0210   6.1698   6.1698   6.2906   6.2906
     6.6114   6.6114   6.8932   6.8932   8.1246   8.1246   8.5429   8.5429
     9.0264   9.0264   9.4485   9.4485

          k = 0.1667-1.0585-0.5736 (  3096 PWs)   bands (ev):

    -7.9068  -7.9068  -7.9068  -7.9068   3.1136   3.1136   3.1136   3.1136
     4.3338   4.3338   4.3338   4.3338   4.6273   4.6273   4.6273   4.6273
     5.9940   5.9940   5.9940   5.9940   6.2138   6.2138   6.2138   6.2138
     6.7454   6.7454   6.7454   6.7454   8.6770   8.6770   8.6770   8.6770
     9.0310   9.0310   9.0310   9.0310

          k = 0.1667-0.6736 0.0000 (  3083 PWs)   bands (ev):

    -8.5034  -7.9253  -7.8805  -7.7671   3.3330   3.5038   3.7661   3.9733
     4.0134   4.2167   4.2455   4.3540   4.3553   4.6263   4.7422   4.9640
     5.5589   5.5920   5.7418   5.8005   6.0195   6.0711   6.0968   6.1839
     6.4934   6.7041   6.8796   7.2758   7.4721   7.9054   8.5116   8.7119
     8.8496   9.1943   9.9334  10.2615

          k = 0.1667-0.6736 0.1912 (  3091 PWs)   bands (ev):

    -8.4623  -7.9227  -7.9120  -7.7749   3.2814   3.5099   3.5869   3.8162
     4.0669   4.0852   4.1966   4.2830   4.3984   4.6933   4.7199   4.9702
     5.6066   5.6362   5.8113   5.8782   6.0717   6.0837   6.1436   6.2098
     6.6682   6.7264   6.9506   7.2038   7.5814   8.0762   8.5295   8.7648
     8.8406   9.0891   9.8420  10.1555

          k = 0.1667-0.6736 0.3824 (  3096 PWs)   bands (ev):

    -8.3494  -8.0376  -7.8777  -7.7983   3.1904   3.3187   3.4894   3.5866
     3.9312   4.1446   4.1477   4.2124   4.3956   4.5733   4.8266   4.9493
     5.7248   5.7274   5.8454   5.9375   6.0279   6.0420   6.2929   6.3882
     6.6033   6.9639   7.2725   7.4035   7.8531   8.3154   8.4238   8.6970
     9.0387   9.0545   9.4777   9.8682

          k = 0.1667-0.6736-0.5736 (  3096 PWs)   bands (ev):

    -8.1941  -8.1941  -7.8352  -7.8352   3.1789   3.1789   3.4709   3.4709
     3.9920   3.9920   4.2088   4.2088   4.4442   4.4442   4.9000   4.9000
     5.8041   5.8041   5.8796   5.8796   5.9946   5.9946   6.4223   6.4223
     6.7119   6.7119   7.7873   7.7873   7.9233   7.9233   8.7877   8.7877
     8.9333   8.9333   9.4827   9.4827

          k = 0.1667-0.2887 0.0000 (  3101 PWs)   bands (ev):

    -8.9865  -8.1026  -7.9783  -7.7637   3.3062   3.4358   3.7313   3.7320
     3.7840   4.0608   4.1580   4.2568   4.4230   4.4348   4.4516   5.0573
     5.6358   5.6914   5.7672   5.8908   6.0536   6.0674   6.1941   6.2663
     6.3154   6.7172   7.0348   7.1146   7.9491   8.7074   9.0877   9.4358
     9.5538  10.0191  10.5332  10.7377

          k = 0.1667-0.2887 0.1912 (  3103 PWs)   bands (ev):

    -8.9313  -8.1662  -7.9614  -7.7754   3.2497   3.3984   3.5797   3.6004
     3.8941   4.0767   4.0886   4.2468   4.4005   4.4020   4.5452   4.9937
     5.7182   5.7233   5.7928   5.9012   6.0510   6.0555   6.2123   6.2851
     6.5764   6.6818   7.0307   7.2535   8.1166   8.7657   9.1650   9.4376
     9.4731   9.8400  10.3603  10.6566

          k = 0.1667-0.2887 0.3824 (  3099 PWs)   bands (ev):

    -8.7779  -8.3366  -7.9171  -7.8095   3.1874   3.3081   3.3825   3.3846
     4.0003   4.0735   4.1245   4.1990   4.3047   4.3200   4.6701   4.8766
     5.8060   5.8465   5.8544   5.9155   6.0027   6.0031   6.2967   6.3338
     6.6212   6.8434   7.2934   7.7505   8.5221   8.7074   9.0673   9.2039
     9.3782   9.8249  10.0442  10.4352

          k = 0.1667-0.2887-0.5736 (  3108 PWs)   bands (ev):

    -8.5615  -8.5615  -7.8608  -7.8607   3.2329   3.2329   3.2731   3.2731
     4.0969   4.0969   4.1686   4.1686   4.2237   4.2237   4.7721   4.7721
     5.9063   5.9063   5.9093   5.9093   5.9322   5.9322   6.3709   6.3709
     6.6589   6.6589   8.2066   8.2066   8.2968   8.2968   8.9397   8.9397
     9.6799   9.6799  10.1364  10.1364

          k = 0.3333 0.1925 0.0000 (  3094 PWs)   bands (ev):

    -8.9302  -8.3955  -8.0739  -7.8420   3.2265   3.3634   3.7362   3.7458
     3.7831   4.0743   4.1744   4.2063   4.2383   4.3932   4.4758   4.8461
     5.6093   5.6561   5.7813   5.9308   5.9310   6.0393   6.0721   6.1076
     6.3233   6.5395   7.0850   8.5073   8.6053   8.7967   9.4501   9.7089
     9.7874  10.2588  10.4788  10.7115

          k = 0.3333 0.1925 0.1912 (  3105 PWs)   bands (ev):

    -8.8765  -8.3583  -8.1351  -7.8787   3.1839   3.2944   3.5666   3.5692
     3.8997   4.0951   4.2033   4.2097   4.2353   4.4081   4.4412   4.7874
     5.6454   5.6945   5.8027   5.9410   6.0525   6.0527   6.0548   6.0916
     6.5789   6.6792   7.2149   8.4099   8.7288   8.8710   9.5377   9.6152
     9.6610  10.1544  10.2858  10.6288

          k = 0.3333 0.1925 0.3824 (  3099 PWs)   bands (ev):

    -8.7273  -8.2995  -8.2567  -7.9794   3.1125   3.2069   3.2828   3.3714
     4.0062   4.1557   4.1901   4.2392   4.3116   4.3539   4.3737   4.6409
     5.7552   5.7871   5.8599   5.9693   5.9995   6.0059   6.0300   6.0539
     7.1447   7.3016   7.5237   8.3129   8.9345   9.0513   9.2434   9.3718
     9.7738   9.8674   9.8813  10.4024

          k = 0.3333 0.1925-0.5736 (  3108 PWs)   bands (ev):

    -8.5172  -8.5172  -8.1179  -8.1179   3.1220   3.1220   3.2309   3.2309
     4.1049   4.1049   4.2482   4.2482   4.3043   4.3043   4.4654   4.4654
     5.8984   5.8984   5.8998   5.8998   5.9347   5.9347   6.0095   6.0095
     7.4997   7.4997   8.2030   8.2030   8.7723   8.7723   9.4676   9.4676
     9.4853   9.4853  10.0905  10.0905

          k = 0.3333 0.5774 0.0000 (  3100 PWs)   bands (ev):

    -8.5421  -8.5421  -7.8954  -7.8954   3.4727   3.4727   3.6492   3.6492
     3.9781   3.9781   4.2648   4.2648   4.3513   4.3513   4.6814   4.6814
     5.5579   5.5579   5.7591   5.7591   6.0539   6.0539   6.0904   6.0904
     6.4840   6.4840   7.7651   7.7651   8.2873   8.2873   8.9957   8.9957
    10.0283  10.0283  10.1963  10.1963

          k = 0.3333 0.5774 0.1912 (  3100 PWs)   bands (ev):

    -8.4997  -8.4997  -7.9394  -7.9394   3.4004   3.4004   3.5262   3.5262
     4.0178   4.0178   4.1709   4.1709   4.4135   4.4135   4.6405   4.6405
     5.6034   5.6034   5.8542   5.8542   6.0760   6.0760   6.0935   6.0935
     6.6689   6.6689   7.8757   7.8757   8.3368   8.3368   8.9473   8.9473
     9.9195   9.9195  10.0860  10.0860

          k = 0.3333 0.5774 0.3824 (  3104 PWs)   bands (ev):

    -8.3830  -8.3830  -8.0593  -8.0593   3.2721   3.2721   3.3117   3.3117
     4.0922   4.0922   4.1571   4.1571   4.4136   4.4136   4.5394   4.5394
     5.7239   5.7239   5.9294   5.9294   6.0338   6.0338   6.0391   6.0391
     7.3120   7.3120   8.2076   8.2076   8.2772   8.2772   9.0137   9.0137
     9.5286   9.5286   9.7912   9.7912

          k = 0.3333 0.5774-0.5736 (  3120 PWs)   bands (ev):

    -8.2220  -8.2220  -8.2220  -8.2220   3.2171   3.2171   3.2171   3.2171
     4.1515   4.1515   4.1515   4.1515   4.4402   4.4402   4.4402   4.4402
     5.8786   5.8786   5.8786   5.8786   5.9923   5.9923   5.9923   5.9923
     7.9280   7.9280   7.9280   7.9280   8.7959   8.7959   8.7959   8.7959
     9.4158   9.4158   9.4158   9.4158

          k = 0.3333-0.9623 0.0000 (  3100 PWs)   bands (ev):

    -8.0740  -8.0740  -7.7640  -7.7640   3.4221   3.4221   3.6937   3.6937
     4.1490   4.1490   4.3925   4.3925   4.5260   4.5260   4.9865   4.9865
     5.6557   5.6557   5.7299   5.7299   6.1956   6.1956   6.3585   6.3585
     6.6016   6.6016   7.0051   7.0051   7.4728   7.4728   7.8431   7.8431
     9.0751   9.0751   9.6380   9.6380

          k = 0.3333-0.9623 0.1912 (  3094 PWs)   bands (ev):

    -8.0512  -8.0512  -7.7825  -7.7825   3.3751   3.3751   3.5850   3.5850
     4.1155   4.1155   4.3231   4.3231   4.5957   4.5957   4.9160   4.9160
     5.6720   5.6720   5.8666   5.8666   6.1978   6.1978   6.4183   6.4183
     6.5098   6.5098   7.1785   7.1785   7.5356   7.5356   7.9289   7.9289
     9.1047   9.1047   9.5202   9.5203

          k = 0.3333-0.9623 0.3824 (  3110 PWs)   bands (ev):

    -7.9904  -7.9904  -7.8349  -7.8349   3.2788   3.2788   3.3764   3.3764
     4.1024   4.1024   4.2736   4.2736   4.6438   4.6438   4.7930   4.7930
     5.7721   5.7721   5.9541   5.9541   6.2133   6.2133   6.3439   6.3439
     6.6654   6.6654   7.1747   7.1747   7.8927   7.8927   8.2867   8.2867
     8.9968   8.9969   9.2713   9.2713

          k = 0.3333-0.9623-0.5736 (  3108 PWs)   bands (ev):

    -7.9105  -7.9105  -7.9105  -7.9105   3.2547   3.2547   3.2547   3.2547
     4.1815   4.1815   4.1815   4.1815   4.6995   4.6995   4.6995   4.6995
     5.8942   5.8942   5.8942   5.8942   6.2554   6.2554   6.2554   6.2554
     6.9402   6.9402   6.9402   6.9402   8.3786   8.3786   8.3786   8.3786
     8.9650   8.9650   8.9650   8.9650

          k = 0.3333-0.5774 0.0000 (  3104 PWs)   bands (ev):

    -8.5421  -7.8954  -7.8196  -7.8196   3.4729   3.5079   3.6492   3.9781
     4.2647   4.2714   4.2924   4.2925   4.3514   4.6813   4.7504   4.7504
     5.5578   5.5997   5.7592   5.7913   5.9549   5.9550   6.0538   6.0904
     6.4840   6.6386   7.0588   7.0588   7.7652   8.2873   8.3832   8.3832
     8.9003   8.9956  10.0283  10.1961

          k = 0.3333-0.5774 0.1912 (  3092 PWs)   bands (ev):

    -8.4997  -7.9394  -7.8167  -7.8167   3.4005   3.5262   3.5428   4.0178
     4.0684   4.0684   4.1709   4.1895   4.4135   4.6404   4.8889   4.8889
     5.6034   5.6193   5.7809   5.8543   6.0551   6.0552   6.0761   6.0935
     6.6690   6.7927   6.9777   6.9777   7.8758   8.3368   8.5249   8.5249
     8.7315   8.9473   9.9195  10.0858

          k = 0.3333-0.5774 0.3824 (  3091 PWs)   bands (ev):

    -8.3830  -8.0593  -7.8108  -7.8108   3.2722   3.3117   3.6449   3.7854
     3.7854   4.0041   4.0922   4.1570   4.4136   4.5393   5.0047   5.0047
     5.6615   5.7239   5.7511   5.9294   6.0338   6.0391   6.2898   6.2898
     6.7939   6.7939   7.1973   7.3120   8.2076   8.2773   8.2957   8.7974
     8.7974   9.0135   9.5287   9.7910

          k = 0.3333-0.5774-0.5736 (  3108 PWs)   bands (ev):

    -8.2220  -8.2220  -7.8078  -7.8078   3.2171   3.2171   3.6745   3.6745
     3.8057   3.8057   4.1515   4.1515   4.4401   4.4401   5.0355   5.0355
     5.7085   5.7085   5.8786   5.8786   5.9923   5.9923   6.5057   6.5057
     6.6052   6.6052   7.7383   7.7383   7.9280   7.9280   8.7959   8.7959
     8.9317   8.9317   9.4157   9.4157

          k =-0.5000-0.2887 0.0000 (  3098 PWs)   bands (ev):

    -8.6761  -8.6761  -7.9528  -7.9528   3.3618   3.3618   3.7974   3.7974
     3.9406   3.9406   4.1360   4.1360   4.2512   4.2512   4.6491   4.6491
     5.5611   5.5611   5.8309   5.8309   5.9708   5.9708   6.0845   6.0845
     6.4019   6.4019   7.8925   7.8925   9.0419   9.0419   9.1350   9.1350
    10.1739  10.1739  10.4949  10.4949

          k =-0.5000-0.2887 0.1912 (  3092 PWs)   bands (ev):

    -8.6295  -8.6294  -8.0029  -8.0029   3.3049   3.3049   3.5831   3.5831
     4.0085   4.0085   4.1634   4.1634   4.2799   4.2799   4.6057   4.6057
     5.6164   5.6164   5.8476   5.8476   6.0439   6.0439   6.0666   6.0666
     6.6145   6.6145   7.9829   7.9829   9.0170   9.0170   9.1461   9.1461
    10.0287  10.0287  10.4013  10.4013

          k =-0.5000-0.2887 0.3824 (  3096 PWs)   bands (ev):

    -8.5007  -8.5007  -8.1389  -8.1389   3.2061   3.2061   3.3242   3.3242
     4.0885   4.0885   4.2424   4.2424   4.2538   4.2538   4.4953   4.4953
     5.7360   5.7360   5.8933   5.8933   6.0022   6.0022   6.0186   6.0186
     7.3126   7.3126   8.1970   8.1970   8.7670   8.7670   9.4231   9.4231
     9.5618   9.5618  10.1443  10.1443

          k =-0.5000-0.2887-0.5736 (  3120 PWs)   bands (ev):

    -8.3216  -8.3216  -8.3216  -8.3216   3.1927   3.1927   3.1927   3.1927
     4.1758   4.1758   4.1758   4.1758   4.3609   4.3609   4.3609   4.3609
     5.8774   5.8774   5.8774   5.8774   5.9553   5.9553   5.9553   5.9553
     8.0316   8.0316   8.0316   8.0316   8.9357   8.9357   8.9357   8.9357
     9.7884   9.7884   9.7884   9.7884

          k =-0.5000-1.4434 0.0000 (  3092 PWs)   bands (ev):

    -8.0789  -8.0789  -7.7624  -7.7624   3.5503   3.5503   3.6583   3.6583
     4.1747   4.1747   4.3605   4.3605   4.7857   4.7857   4.7987   4.7987
     5.5421   5.5421   5.6624   5.6624   6.2044   6.2044   6.3281   6.3281
     6.6703   6.6703   7.1701   7.1701   7.3142   7.3142   7.7441   7.7441
     9.2208   9.2208   9.4461   9.4461

          k =-0.5000-1.4434 0.1912 (  3078 PWs)   bands (ev):

    -8.0558  -8.0558  -7.7813  -7.7813   3.5249   3.5249   3.5594   3.5594
     4.1866   4.1866   4.1994   4.1994   4.7583   4.7583   4.8004   4.8004
     5.5844   5.5844   5.8320   5.8320   6.2082   6.2082   6.4036   6.4036
     6.5625   6.5625   7.3023   7.3023   7.5629   7.5629   7.6703   7.6703
     9.2547   9.2547   9.3083   9.3083

          k =-0.5000-1.4434 0.3824 (  3084 PWs)   bands (ev):

    -7.9938  -7.9938  -7.8350  -7.8350   3.4010   3.4010   3.4219   3.4219
     4.0528   4.0528   4.1826   4.1826   4.7177   4.7177   4.7669   4.7669
     5.7085   5.7085   5.9394   5.9394   6.2251   6.2251   6.3665   6.3665
     6.7271   6.7271   7.3414   7.3414   7.7816   7.7816   8.0626   8.0626
     8.9858   8.9858   9.2130   9.2130

          k =-0.5000-1.4434-0.5736 (  3104 PWs)   bands (ev):

    -7.9123  -7.9123  -7.9123  -7.9123   3.3417   3.3417   3.3417   3.3417
     4.0986   4.0986   4.0986   4.0986   4.7254   4.7254   4.7254   4.7254
     5.8590   5.8590   5.8590   5.8590   6.2679   6.2679   6.2679   6.2679
     7.0671   7.0671   7.0671   7.0671   8.1758   8.1758   8.1758   8.1758
     8.9555   8.9555   8.9555   8.9555

          k = 0.3333-0.1925-0.1912 (  3101 PWs)   bands (ev):

    -8.8765  -8.1351  -8.0512  -7.7825   3.2944   3.3750   3.5693   3.5849
     3.8998   4.0949   4.1156   4.2354   4.3230   4.4410   4.5957   4.9161
     5.6720   5.6945   5.8027   5.8666   6.0525   6.0548   6.1977   6.4183
     6.5097   6.5789   7.1785   7.5357   7.9290   8.8712   9.1047   9.5204
     9.5375   9.6153  10.2859  10.6286

          k = 0.3333-0.1925-0.3824 (  3100 PWs)   bands (ev):

    -8.7273  -8.2995  -7.9904  -7.8349   3.2069   3.2787   3.3715   3.3763
     4.0064   4.1025   4.1555   4.1902   4.2736   4.3537   4.6438   4.7930
     5.7721   5.7871   5.8599   5.9541   5.9996   6.0059   6.2133   6.3439
     6.6653   7.1746   7.3016   7.8928   8.2867   8.9346   8.9969   9.2436
     9.2714   9.7736   9.8815  10.4022

          k = 0.6667-0.3849-0.1912 (  3098 PWs)   bands (ev):

    -8.3583  -8.0512  -7.8787  -7.7825   3.1840   3.3751   3.5667   3.5849
     4.1155   4.2033   4.2096   4.3231   4.4081   4.5958   4.7873   4.9160
     5.6455   5.6720   5.8666   5.9411   6.0527   6.0916   6.1978   6.4183
     6.5098   6.6792   7.1785   7.2150   7.5357   7.9289   8.4100   8.7286
     9.1047   9.5203   9.6610  10.1542

          k = 0.6667-0.3849-0.3824 (  3109 PWs)   bands (ev):

    -8.2567  -7.9904  -7.9794  -7.8349   3.1126   3.2788   3.2828   3.3763
     4.1024   4.2393   4.2736   4.3115   4.3738   4.6407   4.6438   4.7929
     5.7553   5.7721   5.9541   5.9693   6.0300   6.0539   6.2133   6.3439
     6.6654   7.1447   7.1747   7.5238   7.8927   8.2867   8.3130   8.9969
     9.0511   9.2713   9.3719   9.8671

          k = 0.1667 0.0962-0.1912 (  3119 PWs)   bands (ev):

    -9.0466  -8.2334  -8.1325  -7.8038   3.1148   3.1631   3.4405   3.5802
     3.9532   4.0333   4.2292   4.2696   4.3299   4.3553   4.4540   4.9314
     5.7484   5.7703   5.7963   6.0489   6.0490   6.0497   6.1277   6.2428
     6.5479   6.5747   6.9151   7.8986   8.3923   9.2451   9.6199   9.8167
     9.9581   9.9967  10.5873  10.7849

          k = 0.1667 0.0962-0.3824 (  3097 PWs)   bands (ev):

    -8.8849  -8.4160  -8.0598  -7.8696   3.0766   3.1197   3.2061   3.3958
     4.0268   4.0837   4.2021   4.2536   4.3497   4.3685   4.4407   4.7475
     5.8397   5.8571   5.8767   6.0030   6.0043   6.0609   6.1035   6.1343
     6.7324   7.0737   7.2706   8.1803   8.7561   9.1365   9.1644   9.6484
     9.8316  10.0233  10.3858  10.5820

          k = 0.5000-0.0962-0.1912 (  3094 PWs)   bands (ev):

    -8.7225  -8.2560  -8.0509  -7.8379   3.3591   3.3927   3.5250   3.5606
     3.9321   4.1142   4.1305   4.2258   4.2754   4.5314   4.5740   4.7552
     5.5927   5.6491   5.8140   5.8714   6.0551   6.0617   6.1289   6.2462
     6.6007   6.7169   7.3349   7.9135   8.2766   8.4041   8.9825   9.4286
     9.5765   9.7484  10.1403  10.4261

          k = 0.5000-0.0962-0.3824 (  3111 PWs)   bands (ev):

    -8.5856  -8.1979  -8.1660  -7.9243   3.2517   3.2537   3.3315   3.3493
     4.0307   4.1443   4.1552   4.1915   4.2753   4.4367   4.5595   4.6442
     5.7158   5.7555   5.8734   5.9703   6.0050   6.0110   6.1143   6.1540
     7.0855   7.3211   7.6678   8.0530   8.4247   8.5939   8.8573   9.3464
     9.4384   9.5133   9.6650  10.1731

          k =-0.8333 0.6736-0.1912 (  3114 PWs)   bands (ev):

    -8.0419  -8.0419  -7.7851  -7.7851   3.2563   3.2563   3.4225   3.4225
     4.1764   4.1764   4.4109   4.4109   4.4746   4.4746   4.9711   4.9711
     5.7506   5.7506   6.0053   6.0054   6.1674   6.1674   6.3524   6.3524
     6.5570   6.5570   6.9482   6.9482   7.6480   7.6480   8.1672   8.1672
     9.0356   9.0356   9.7661   9.7661

          k =-0.8333 0.6736-0.3824 (  3108 PWs)   bands (ev):

    -7.9833  -7.9833  -7.8348  -7.8347   3.1474   3.1474   3.2212   3.2212
     4.2371   4.2371   4.4028   4.4028   4.5226   4.5226   4.7945   4.7945
     5.8971   5.8971   6.0210   6.0210   6.1698   6.1698   6.2906   6.2906
     6.6114   6.6114   6.8932   6.8932   8.1246   8.1246   8.5429   8.5429
     9.0264   9.0264   9.4485   9.4485

          k =-0.5000 0.4811-0.1912 (  3091 PWs)   bands (ev):

    -8.4623  -7.9227  -7.9120  -7.7749   3.2814   3.5099   3.5869   3.8162
     4.0669   4.0852   4.1966   4.2830   4.3984   4.6933   4.7199   4.9702
     5.6066   5.6362   5.8113   5.8782   6.0717   6.0837   6.1436   6.2098
     6.6682   6.7264   6.9506   7.2038   7.5814   8.0762   8.5295   8.7648
     8.8406   9.0891   9.8420  10.1555

          k =-0.5000 0.4811-0.3824 (  3096 PWs)   bands (ev):

    -8.3494  -8.0376  -7.8777  -7.7983   3.1904   3.3187   3.4894   3.5866
     3.9312   4.1446   4.1477   4.2124   4.3956   4.5733   4.8266   4.9493
     5.7248   5.7274   5.8454   5.9375   6.0279   6.0420   6.2929   6.3882
     6.6033   6.9639   7.2725   7.4035   7.8531   8.3154   8.4238   8.6970
     9.0387   9.0545   9.4777   9.8682

          k = 0.3333 0.1925-0.1912 (  3105 PWs)   bands (ev):

    -8.8765  -8.3583  -8.1351  -7.8787   3.1839   3.2944   3.5666   3.5692
     3.8997   4.0951   4.2033   4.2097   4.2353   4.4081   4.4412   4.7874
     5.6454   5.6945   5.8027   5.9410   6.0525   6.0527   6.0548   6.0916
     6.5789   6.6792   7.2149   8.4099   8.7288   8.8710   9.5377   9.6152
     9.6610  10.1544  10.2858  10.6288

          k = 0.3333 0.1925-0.3824 (  3099 PWs)   bands (ev):

    -8.7273  -8.2995  -8.2567  -7.9794   3.1125   3.2069   3.2828   3.3714
     4.0062   4.1557   4.1901   4.2392   4.3116   4.3539   4.3737   4.6409
     5.7552   5.7871   5.8599   5.9693   5.9995   6.0059   6.0300   6.0539
     7.1447   7.3016   7.5237   8.3129   8.9345   9.0513   9.2434   9.3718
     9.7738   9.8674   9.8813  10.4024

          k =-0.6667 0.7698-0.1912 (  3094 PWs)   bands (ev):

    -8.0512  -8.0512  -7.7825  -7.7825   3.3751   3.3751   3.5850   3.5850
     4.1155   4.1155   4.3231   4.3231   4.5957   4.5957   4.9160   4.9160
     5.6720   5.6720   5.8666   5.8666   6.1978   6.1978   6.4183   6.4183
     6.5098   6.5098   7.1785   7.1785   7.5356   7.5356   7.9289   7.9289
     9.1047   9.1047   9.5202   9.5203

          k =-0.6667 0.7698-0.3824 (  3110 PWs)   bands (ev):

    -7.9904  -7.9904  -7.8349  -7.8349   3.2788   3.2788   3.3764   3.3764
     4.1024   4.1024   4.2736   4.2736   4.6438   4.6438   4.7930   4.7930
     5.7721   5.7721   5.9541   5.9541   6.2133   6.2133   6.3439   6.3439
     6.6654   6.6654   7.1747   7.1747   7.8927   7.8927   8.2867   8.2867
     8.9969   8.9969   9.2713   9.2713

     highest occupied level (ev):    10.9108

!    total energy              =    -723.05063085 Ry
     estimated scf accuracy    <          4.6E-11 Ry

     The total energy is the sum of the following terms:
     one-electron contribution =    -250.88050349 Ry
     hartree contribution      =     216.21024275 Ry
     xc contribution           =    -220.17514654 Ry
     ewald contribution        =    -468.20522358 Ry

     convergence has been achieved in  29 iterations

     Forces acting on atoms (cartesian axes, Ry/au):

     atom    1 type  1   force =    -0.00002035   -0.00001175   -0.01631996
     atom    2 type  2   force =     0.00000520    0.00000300    0.01631936
     atom    3 type  1   force =     0.00002402    0.00001387   -0.01631851
     atom    4 type  2   force =    -0.00000539   -0.00000311    0.01631959
     atom    5 type  1   force =    -0.00002404   -0.00001388   -0.01631929
     atom    6 type  2   force =     0.00000587    0.00000339    0.01631906
     atom    7 type  1   force =     0.00001996    0.00001153   -0.01631913
     atom    8 type  2   force =    -0.00000527   -0.00000304    0.01631889
     The non-local contrib.  to forces
     atom    1 type  1   force =     0.00002690    0.00001553   -0.11135699
     atom    2 type  2   force =    -0.00016210   -0.00009359   -0.08034249
     atom    3 type  1   force =    -0.00002502   -0.00001444   -0.11135666
     atom    4 type  2   force =     0.00016140    0.00009318   -0.08034329
     atom    5 type  1   force =     0.00002433    0.00001405   -0.11135635
     atom    6 type  2   force =    -0.00016051   -0.00009267   -0.08034391
     atom    7 type  1   force =    -0.00002681   -0.00001548   -0.11135718
     atom    8 type  2   force =     0.00016184    0.00009344   -0.08034364
     The ionic contribution  to forces
     atom    1 type  1   force =     0.00000000    0.00000000   -1.08153696
     atom    2 type  2   force =    -0.00000000   -0.00000000    1.08153696
     atom    3 type  1   force =    -0.00000000   -0.00000000   -1.08153696
     atom    4 type  2   force =     0.00000000    0.00000000    1.08153696
     atom    5 type  1   force =     0.00000000    0.00000000   -1.08153696
     atom    6 type  2   force =    -0.00000000   -0.00000000    1.08153696
     atom    7 type  1   force =    -0.00000000   -0.00000000   -1.08153696
     atom    8 type  2   force =     0.00000000    0.00000000    1.08153696
     The local contribution  to forces
     atom    1 type  1   force =    -0.00005276   -0.00003046    1.16863923
     atom    2 type  2   force =     0.00016292    0.00009406   -0.98537684
     atom    3 type  1   force =     0.00004793    0.00002767    1.16863809
     atom    4 type  2   force =    -0.00016670   -0.00009625   -0.98537629
     atom    5 type  1   force =    -0.00004734   -0.00002733    1.16863794
     atom    6 type  2   force =     0.00016632    0.00009603   -0.98537644
     atom    7 type  1   force =     0.00005314    0.00003068    1.16863899
     atom    8 type  2   force =    -0.00016325   -0.00009426   -0.98537610
     The core correction contribution to forces
     atom    1 type  1   force =     0.00000313    0.00000181    0.00793547
     atom    2 type  2   force =     0.00000185    0.00000107    0.00050827
     atom    3 type  1   force =    -0.00000312   -0.00000180    0.00793543
     atom    4 type  2   force =    -0.00000185   -0.00000107    0.00050828
     atom    5 type  1   force =     0.00000316    0.00000183    0.00793544
     atom    6 type  2   force =     0.00000184    0.00000106    0.00050829
     atom    7 type  1   force =    -0.00000313   -0.00000181    0.00793545
     atom    8 type  2   force =    -0.00000185   -0.00000107    0.00050828
     The Hubbard contrib.    to forces
     atom    1 type  1   force =     0.00000000    0.00000000    0.00000000
     atom    2 type  2   force =     0.00000000    0.00000000    0.00000000
     atom    3 type  1   force =     0.00000000    0.00000000    0.00000000
     atom    4 type  2   force =     0.00000000    0.00000000    0.00000000
     atom    5 type  1   force =     0.00000000    0.00000000    0.00000000
     atom    6 type  2   force =     0.00000000    0.00000000    0.00000000
     atom    7 type  1   force =     0.00000000    0.00000000    0.00000000
     atom    8 type  2   force =     0.00000000    0.00000000    0.00000000
     The SCF correction term to forces
     atom    1 type  1   force =     0.00000232    0.00000134    0.00000312
     atom    2 type  2   force =     0.00000247    0.00000143   -0.00000272
     atom    3 type  1   force =     0.00000417    0.00000241    0.00000542
     atom    4 type  2   force =     0.00000170    0.00000098   -0.00000226
     atom    5 type  1   force =    -0.00000426   -0.00000246    0.00000447
     atom    6 type  2   force =    -0.00000185   -0.00000107   -0.00000203
     atom    7 type  1   force =    -0.00000329   -0.00000190    0.00000439
     atom    8 type  2   force =    -0.00000206   -0.00000119   -0.00000280

     Total force =     0.046158     Total SCF correction =     0.000014

     Writing all to output data dir ./ZnO-2.94-1.74-211.in.save/

     init_run     :      3.40s CPU      2.98s WALL (       1 calls)
     electrons    :    235.23s CPU    181.10s WALL (       1 calls)
     forces       :      0.93s CPU      0.75s WALL (       1 calls)

     Called by init_run:
     wfcinit      :      2.23s CPU      1.78s WALL (       1 calls)
     potinit      :      0.34s CPU      0.34s WALL (       1 calls)
     hinit0       :      0.72s CPU      0.73s WALL (       1 calls)

     Called by electrons:
     c_bands      :    212.72s CPU    162.62s WALL (      29 calls)
     sum_band     :     20.15s CPU     16.50s WALL (      29 calls)
     v_of_rho     :      0.76s CPU      0.68s WALL (      30 calls)
     newd         :      1.44s CPU      1.17s WALL (      30 calls)
     mix_rho      :      0.12s CPU      0.11s WALL (      29 calls)

     Called by c_bands:
     init_us_2    :      1.23s CPU      1.04s WALL (    2400 calls)
     init_us_2:cp :      1.22s CPU      1.03s WALL (    2400 calls)
     cegterg      :    201.89s CPU    153.64s WALL (    1160 calls)

     Called by *egterg:
     cdiaghg      :     34.21s CPU     26.91s WALL (    6863 calls)
     h_psi        :    129.17s CPU    105.32s WALL (    6903 calls)
     s_psi        :      8.71s CPU      4.74s WALL (    6903 calls)
     g_psi        :      0.78s CPU      0.50s WALL (    5703 calls)

     Called by h_psi:
     h_psi:calbec :      9.27s CPU      5.61s WALL (    6903 calls)
     vloc_psi     :    110.75s CPU     94.55s WALL (    6903 calls)
     add_vuspsi   :      8.76s CPU      4.86s WALL (    6903 calls)

     General routines
     calbec       :     11.78s CPU      7.05s WALL (    8223 calls)
     fft          :      0.75s CPU      0.75s WALL (     399 calls)
     ffts         :      0.12s CPU      0.12s WALL (      59 calls)
     fftw         :    109.84s CPU     94.55s WALL (  364650 calls)
     interpolate  :      0.14s CPU      0.14s WALL (      30 calls)

     Parallel routines

     PWSCF        :   4m 0.09s CPU   3m 5.60s WALL


   This run was terminated on:  12:16:16  12Jul2025            

=------------------------------------------------------------------------------=
   JOB DONE.
=------------------------------------------------------------------------------=
Note: The following floating-point exceptions are signalling: IEEE_INVALID_FLAG
Note: The following floating-point exceptions are signalling: IEEE_INVALID_FLAG
