Authorization required, but no authorization protocol specified

Authorization required, but no authorization protocol specified

Authorization required, but no authorization protocol specified

Authorization required, but no authorization protocol specified

Authorization required, but no authorization protocol specified

Authorization required, but no authorization protocol specified

Authorization required, but no authorization protocol specified

Authorization required, but no authorization protocol specified

Authorization required, but no authorization protocol specified

Authorization required, but no authorization protocol specified

Authorization required, but no authorization protocol specified

Authorization required, but no authorization protocol specified

Authorization required, but no authorization protocol specified

Authorization required, but no authorization protocol specified

Authorization required, but no authorization protocol specified

Authorization required, but no authorization protocol specified

Authorization required, but no authorization protocol specified

Authorization required, but no authorization protocol specified


     Program PWSCF v.7.2 starts on 12Jul2025 at 13:53:21 

     This program is part of the open-source Quantum ESPRESSO suite
     for quantum simulation of materials; please cite
         "P. Giannozzi et al., J. Phys.:Condens. Matter 21 395502 (2009);
         "P. Giannozzi et al., J. Phys.:Condens. Matter 29 465901 (2017);
         "P. Giannozzi et al., J. Chem. Phys. 152 154105 (2020);
          URL http://www.quantum-espresso.org", 
     in publications or presentations arising from this work. More details at
     http://www.quantum-espresso.org/quote

     Parallel version (MPI), running on    16 processors

     MPI processes distributed on     1 nodes
     46487 MiB available memory on the printing compute node when the environment starts

     Reading input from /home/jvc/QEspresso7.2/ZnO_database/scripts/cell211_strain10%.in/ZnO-3.20-1.45-211.in
Warning: card &CELL ignored
Warning: card / ignored
Warning: card &FCP ignored
Warning: card / ignored
Warning: card &RISM ignored
Warning: card / ignored

     Current dimensions of program PWSCF are:
     Max number of different atomic species (ntypx) = 10
     Max number of k-points (npk) =  40000
     Max angular momentum in pseudopotentials (lmaxx) =  4
     file Zn.upf: wavefunction(s)  3D renormalized
     Found identity + ( -0.5000  0.0000  0.0000) symmetry
     This is a supercell, fractional translations are disabled
     Message from routine setup:
     using ibrav=0 with symmetry is DISCOURAGED, use correct ibrav instead

     K-points division:     npool     =       2
     R & G space division:  proc/nbgrp/npool/nimage =       8
     Subspace diagonalization in iterative solution of the eigenvalue problem:
     a serial algorithm will be used


     Parallelization info
     --------------------
     sticks:   dense  smooth     PW     G-vecs:    dense   smooth      PW
     Min         252     126     40                 9422     3330     590
     Max         253     128     41                 9427     3331     593
     Sum        2021    1017    325                75397    26643    4731

     Using Slab Decomposition



     bravais-lattice index     =            0
     lattice parameter (alat)  =      12.1106  a.u.
     unit-cell volume          =     558.7340 (a.u.)^3
     number of atoms/cell      =            8
     number of atomic types    =            2
     number of electrons       =        72.00
     number of Kohn-Sham states=           36
     kinetic-energy cutoff     =      50.0000  Ry
     charge density cutoff     =     400.0000  Ry
     scf convergence threshold =      1.0E-08
     mixing beta               =       0.3000
     number of iterations used =            8  plain     mixing
     Exchange-correlation= PBE
                           (   1   4   3   4   0   0   0)

     celldm(1)=  12.110554  celldm(2)=   0.000000  celldm(3)=   0.000000
     celldm(4)=   0.000000  celldm(5)=   0.000000  celldm(6)=   0.000000

     crystal axes: (cart. coord. in units of alat)
               a(1) = (   1.000000   0.000000   0.000000 )  
               a(2) = (  -0.250000   0.433013   0.000000 )  
               a(3) = (   0.000000   0.000000   0.726461 )  

     reciprocal axes: (cart. coord. in units 2 pi/alat)
               b(1) = (  1.000000  0.577350 -0.000000 )  
               b(2) = (  0.000000  2.309401  0.000000 )  
               b(3) = (  0.000000 -0.000000  1.376536 )  


     PseudoPot. # 1 for Zn read from file:
     /home/jvc/QEspresso7.2/ZnO_database/pseudos/Zn.upf
     MD5 check sum: 7f56cabf9682ed8c977c2f7d0c5985c5
     Pseudo is Ultrasoft + core correction, Zval = 12.0
     Generated using &quot;atomic&quot; code by A. Dal Corso  v.6.2.2
     Using radial grid of 1201 points,  6 beta functions with: 
                l(1) =   0
                l(2) =   0
                l(3) =   1
                l(4) =   1
                l(5) =   2
                l(6) =   2
     Q(r) pseudized with 0 coefficients 


     PseudoPot. # 2 for O  read from file:
     /home/jvc/QEspresso7.2/ZnO_database/pseudos/O.upf
     MD5 check sum: 91400c9766925bcf19f520983a725ff0
     Pseudo is Ultrasoft + core correction, Zval =  6.0
     Generated using &quot;atomic&quot; code by A. Dal Corso  v.6.3MaX
     Using radial grid of 1095 points,  4 beta functions with: 
                l(1) =   0
                l(2) =   0
                l(3) =   1
                l(4) =   1
     Q(r) pseudized with 0 coefficients 


     atomic species   valence    mass     pseudopotential
        Zn            12.00    65.38000     Zn( 1.00)
        O              6.00    15.99900     O ( 1.00)

      2 Sym. Ops. (no inversion) found



   Cartesian axes

     site n.     atom                  positions (alat units)
         1           Zn  tau(   1) = (   0.0000000   0.0000000   0.0000000  )
         2           O   tau(   2) = (   0.0000000   0.2886751   0.0669040  )
         3           Zn  tau(   3) = (   0.0000000   0.2886751   0.3632306  )
         4           O   tau(   4) = (   0.0000000   0.0000000   0.4301346  )
         5           Zn  tau(   5) = (   0.5000000   0.0000000   0.0000000  )
         6           O   tau(   6) = (   0.5000000   0.2886751   0.0669040  )
         7           Zn  tau(   7) = (   0.5000000   0.2886751   0.3632306  )
         8           O   tau(   8) = (   0.5000000   0.0000000   0.4301346  )

     number of k points=    80
                       cart. coord. in units 2pi/alat
        k(    1) = (   0.0000000   0.0000000   0.0000000), wk =   0.0092593
        k(    2) = (   0.0000000   0.0000000   0.2294226), wk =   0.0185185
        k(    3) = (   0.0000000   0.0000000   0.4588453), wk =   0.0185185
        k(    4) = (   0.0000000   0.0000000  -0.6882679), wk =   0.0092593
        k(    5) = (   0.0000000   0.3849002   0.0000000), wk =   0.0370370
        k(    6) = (   0.0000000   0.3849002   0.2294226), wk =   0.0370370
        k(    7) = (   0.0000000   0.3849002   0.4588453), wk =   0.0370370
        k(    8) = (   0.0000000   0.3849002  -0.6882679), wk =   0.0370370
        k(    9) = (   0.0000000   0.7698004   0.0000000), wk =   0.0370370
        k(   10) = (   0.0000000   0.7698004   0.2294226), wk =   0.0370370
        k(   11) = (   0.0000000   0.7698004   0.4588453), wk =   0.0370370
        k(   12) = (   0.0000000   0.7698004  -0.6882679), wk =   0.0370370
        k(   13) = (   0.0000000  -1.1547005   0.0000000), wk =   0.0092593
        k(   14) = (   0.0000000  -1.1547005   0.2294226), wk =   0.0185185
        k(   15) = (   0.0000000  -1.1547005   0.4588453), wk =   0.0185185
        k(   16) = (   0.0000000  -1.1547005  -0.6882679), wk =   0.0092593
        k(   17) = (   0.1666667   0.0962250   0.0000000), wk =   0.0185185
        k(   18) = (   0.1666667   0.0962250   0.2294226), wk =   0.0185185
        k(   19) = (   0.1666667   0.0962250   0.4588453), wk =   0.0185185
        k(   20) = (   0.1666667   0.0962250  -0.6882679), wk =   0.0185185
        k(   21) = (   0.1666667   0.4811252   0.0000000), wk =   0.0370370
        k(   22) = (   0.1666667   0.4811252   0.2294226), wk =   0.0370370
        k(   23) = (   0.1666667   0.4811252   0.4588453), wk =   0.0370370
        k(   24) = (   0.1666667   0.4811252  -0.6882679), wk =   0.0370370
        k(   25) = (   0.1666667   0.8660254   0.0000000), wk =   0.0185185
        k(   26) = (   0.1666667   0.8660254   0.2294226), wk =   0.0370370
        k(   27) = (   0.1666667   0.8660254   0.4588453), wk =   0.0370370
        k(   28) = (   0.1666667   0.8660254  -0.6882679), wk =   0.0185185
        k(   29) = (   0.1666667  -1.0584755   0.0000000), wk =   0.0185185
        k(   30) = (   0.1666667  -1.0584755   0.2294226), wk =   0.0185185
        k(   31) = (   0.1666667  -1.0584755   0.4588453), wk =   0.0185185
        k(   32) = (   0.1666667  -1.0584755  -0.6882679), wk =   0.0185185
        k(   33) = (   0.1666667  -0.6735753   0.0000000), wk =   0.0370370
        k(   34) = (   0.1666667  -0.6735753   0.2294226), wk =   0.0370370
        k(   35) = (   0.1666667  -0.6735753   0.4588453), wk =   0.0370370
        k(   36) = (   0.1666667  -0.6735753  -0.6882679), wk =   0.0370370
        k(   37) = (   0.1666667  -0.2886751   0.0000000), wk =   0.0185185
        k(   38) = (   0.1666667  -0.2886751   0.2294226), wk =   0.0370370
        k(   39) = (   0.1666667  -0.2886751   0.4588453), wk =   0.0370370
        k(   40) = (   0.1666667  -0.2886751  -0.6882679), wk =   0.0185185
        k(   41) = (   0.3333333   0.1924501   0.0000000), wk =   0.0185185
        k(   42) = (   0.3333333   0.1924501   0.2294226), wk =   0.0185185
        k(   43) = (   0.3333333   0.1924501   0.4588453), wk =   0.0185185
        k(   44) = (   0.3333333   0.1924501  -0.6882679), wk =   0.0185185
        k(   45) = (   0.3333333   0.5773503   0.0000000), wk =   0.0185185
        k(   46) = (   0.3333333   0.5773503   0.2294226), wk =   0.0370370
        k(   47) = (   0.3333333   0.5773503   0.4588453), wk =   0.0370370
        k(   48) = (   0.3333333   0.5773503  -0.6882679), wk =   0.0185185
        k(   49) = (   0.3333333  -0.9622504   0.0000000), wk =   0.0185185
        k(   50) = (   0.3333333  -0.9622504   0.2294226), wk =   0.0185185
        k(   51) = (   0.3333333  -0.9622504   0.4588453), wk =   0.0185185
        k(   52) = (   0.3333333  -0.9622504  -0.6882679), wk =   0.0185185
        k(   53) = (   0.3333333  -0.5773503   0.0000000), wk =   0.0185185
        k(   54) = (   0.3333333  -0.5773503   0.2294226), wk =   0.0370370
        k(   55) = (   0.3333333  -0.5773503   0.4588453), wk =   0.0370370
        k(   56) = (   0.3333333  -0.5773503  -0.6882679), wk =   0.0185185
        k(   57) = (  -0.5000000  -0.2886751   0.0000000), wk =   0.0092593
        k(   58) = (  -0.5000000  -0.2886751   0.2294226), wk =   0.0185185
        k(   59) = (  -0.5000000  -0.2886751   0.4588453), wk =   0.0185185
        k(   60) = (  -0.5000000  -0.2886751  -0.6882679), wk =   0.0092593
        k(   61) = (  -0.5000000  -1.4433757   0.0000000), wk =   0.0092593
        k(   62) = (  -0.5000000  -1.4433757   0.2294226), wk =   0.0185185
        k(   63) = (  -0.5000000  -1.4433757   0.4588453), wk =   0.0185185
        k(   64) = (  -0.5000000  -1.4433757  -0.6882679), wk =   0.0092593
        k(   65) = (   0.3333333  -0.1924501  -0.2294226), wk =   0.0370370
        k(   66) = (   0.3333333  -0.1924501  -0.4588453), wk =   0.0370370
        k(   67) = (   0.6666667  -0.3849002  -0.2294226), wk =   0.0370370
        k(   68) = (   0.6666667  -0.3849002  -0.4588453), wk =   0.0370370
        k(   69) = (   0.1666667   0.0962250  -0.2294226), wk =   0.0185185
        k(   70) = (   0.1666667   0.0962250  -0.4588453), wk =   0.0185185
        k(   71) = (   0.5000000  -0.0962250  -0.2294226), wk =   0.0370370
        k(   72) = (   0.5000000  -0.0962250  -0.4588453), wk =   0.0370370
        k(   73) = (  -0.8333333   0.6735753  -0.2294226), wk =   0.0185185
        k(   74) = (  -0.8333333   0.6735753  -0.4588453), wk =   0.0185185
        k(   75) = (  -0.5000000   0.4811252  -0.2294226), wk =   0.0370370
        k(   76) = (  -0.5000000   0.4811252  -0.4588453), wk =   0.0370370
        k(   77) = (   0.3333333   0.1924501  -0.2294226), wk =   0.0185185
        k(   78) = (   0.3333333   0.1924501  -0.4588453), wk =   0.0185185
        k(   79) = (  -0.6666667   0.7698004  -0.2294226), wk =   0.0185185
        k(   80) = (  -0.6666667   0.7698004  -0.4588453), wk =   0.0185185

     Dense  grid:    75397 G-vectors     FFT dimensions: (  80,  40,  60)

     Smooth grid:    26643 G-vectors     FFT dimensions: (  60,  27,  40)

     Estimated max dynamical RAM per process >      33.37 MB

     Estimated total dynamical RAM >     515.44 MB

     Check: negative core charge=   -0.000002

     Initial potential from superposition of free atoms

     starting charge      71.9851, renormalised to      72.0000
     Starting wfcs are   52 randomized atomic wfcs

     total cpu time spent up to now is        3.7 secs

     Self-consistent Calculation

     iteration #  1     ecut=    50.00 Ry     beta= 0.30
     Davidson diagonalization with overlap
     ethr =  1.00E-02,  avg # of iterations =  2.0

     total cpu time spent up to now is        7.5 secs

     total energy              =    -722.87722324 Ry
     estimated scf accuracy    <       1.34770746 Ry

     iteration #  2     ecut=    50.00 Ry     beta= 0.30
     Davidson diagonalization with overlap
     ethr =  1.87E-03,  avg # of iterations =  2.0

     total cpu time spent up to now is       12.0 secs

     total energy              =    -723.01290460 Ry
     estimated scf accuracy    <       0.22570590 Ry

     iteration #  3     ecut=    50.00 Ry     beta= 0.30
     Davidson diagonalization with overlap
     ethr =  3.13E-04,  avg # of iterations =  6.2

     total cpu time spent up to now is       19.8 secs

     total energy              =    -723.11166246 Ry
     estimated scf accuracy    <       0.14065555 Ry

     iteration #  4     ecut=    50.00 Ry     beta= 0.30
     Davidson diagonalization with overlap
     ethr =  1.95E-04,  avg # of iterations =  5.4

     total cpu time spent up to now is       26.9 secs

     total energy              =    -723.20634531 Ry
     estimated scf accuracy    <       0.06365062 Ry

     iteration #  5     ecut=    50.00 Ry     beta= 0.30
     Davidson diagonalization with overlap
     ethr =  8.84E-05,  avg # of iterations =  3.9

     total cpu time spent up to now is       32.4 secs

     total energy              =    -723.14307947 Ry
     estimated scf accuracy    <       0.15869125 Ry

     iteration #  6     ecut=    50.00 Ry     beta= 0.30
     Davidson diagonalization with overlap
     ethr =  8.84E-05,  avg # of iterations =  3.7

     total cpu time spent up to now is       37.7 secs

     total energy              =    -723.14975002 Ry
     estimated scf accuracy    <       0.01352062 Ry

     iteration #  7     ecut=    50.00 Ry     beta= 0.30
     Davidson diagonalization with overlap
     ethr =  1.88E-05,  avg # of iterations =  7.8

     total cpu time spent up to now is       47.0 secs

     total energy              =    -723.16372207 Ry
     estimated scf accuracy    <       0.03957568 Ry

     iteration #  8     ecut=    50.00 Ry     beta= 0.30
     Davidson diagonalization with overlap
     ethr =  1.88E-05,  avg # of iterations =  2.0

     total cpu time spent up to now is       50.9 secs

     total energy              =    -723.15612415 Ry
     estimated scf accuracy    <       0.01783041 Ry

     iteration #  9     ecut=    50.00 Ry     beta= 0.30
     Davidson diagonalization with overlap
     ethr =  1.88E-05,  avg # of iterations =  6.4

     total cpu time spent up to now is       58.2 secs

     total energy              =    -723.16406610 Ry
     estimated scf accuracy    <       0.00115697 Ry

     iteration # 10     ecut=    50.00 Ry     beta= 0.30
     Davidson diagonalization with overlap
     ethr =  1.61E-06,  avg # of iterations =  5.5

     total cpu time spent up to now is       64.6 secs

     total energy              =    -723.16470177 Ry
     estimated scf accuracy    <       0.00181102 Ry

     iteration # 11     ecut=    50.00 Ry     beta= 0.30
     Davidson diagonalization with overlap
     ethr =  1.61E-06,  avg # of iterations =  1.0

     total cpu time spent up to now is       68.0 secs

     total energy              =    -723.16420997 Ry
     estimated scf accuracy    <       0.00197141 Ry

     iteration # 12     ecut=    50.00 Ry     beta= 0.30
     Davidson diagonalization with overlap
     ethr =  1.61E-06,  avg # of iterations =  1.1

     total cpu time spent up to now is       71.4 secs

     total energy              =    -723.16428838 Ry
     estimated scf accuracy    <       0.00103669 Ry

     iteration # 13     ecut=    50.00 Ry     beta= 0.30
     Davidson diagonalization with overlap
     ethr =  1.44E-06,  avg # of iterations =  1.0

     total cpu time spent up to now is       74.8 secs

     total energy              =    -723.16414493 Ry
     estimated scf accuracy    <       0.00103543 Ry

     iteration # 14     ecut=    50.00 Ry     beta= 0.30
     Davidson diagonalization with overlap
     ethr =  1.44E-06,  avg # of iterations =  1.0

     total cpu time spent up to now is       78.2 secs

     total energy              =    -723.16410395 Ry
     estimated scf accuracy    <       0.00064465 Ry

     iteration # 15     ecut=    50.00 Ry     beta= 0.30
     Davidson diagonalization with overlap
     ethr =  8.95E-07,  avg # of iterations =  2.0

     total cpu time spent up to now is       82.2 secs

     total energy              =    -723.16410602 Ry
     estimated scf accuracy    <       0.00028511 Ry

     iteration # 16     ecut=    50.00 Ry     beta= 0.30
     Davidson diagonalization with overlap
     ethr =  3.96E-07,  avg # of iterations =  2.5

     total cpu time spent up to now is       86.5 secs

     total energy              =    -723.16411900 Ry
     estimated scf accuracy    <       0.00011218 Ry

     iteration # 17     ecut=    50.00 Ry     beta= 0.30
     Davidson diagonalization with overlap
     ethr =  1.56E-07,  avg # of iterations =  3.8

     total cpu time spent up to now is       91.4 secs

     total energy              =    -723.16411678 Ry
     estimated scf accuracy    <       0.00003803 Ry

     iteration # 18     ecut=    50.00 Ry     beta= 0.30
     Davidson diagonalization with overlap
     ethr =  5.28E-08,  avg # of iterations =  5.9

     total cpu time spent up to now is       98.6 secs

     total energy              =    -723.16413820 Ry
     estimated scf accuracy    <       0.00000719 Ry

     iteration # 19     ecut=    50.00 Ry     beta= 0.30
     Davidson diagonalization with overlap
     ethr =  9.98E-09,  avg # of iterations =  3.0

     total cpu time spent up to now is      103.0 secs

     total energy              =    -723.16413640 Ry
     estimated scf accuracy    <       0.00000484 Ry

     iteration # 20     ecut=    50.00 Ry     beta= 0.30
     Davidson diagonalization with overlap
     ethr =  6.72E-09,  avg # of iterations =  4.5

     total cpu time spent up to now is      108.9 secs

     total energy              =    -723.16413858 Ry
     estimated scf accuracy    <       0.00000057 Ry

     iteration # 21     ecut=    50.00 Ry     beta= 0.30
     Davidson diagonalization with overlap
     ethr =  7.90E-10,  avg # of iterations =  7.7

     total cpu time spent up to now is      117.9 secs

     total energy              =    -723.16413880 Ry
     estimated scf accuracy    <       0.00000573 Ry

     iteration # 22     ecut=    50.00 Ry     beta= 0.30
     Davidson diagonalization with overlap
     ethr =  7.90E-10,  avg # of iterations =  2.0

     total cpu time spent up to now is      121.8 secs

     total energy              =    -723.16413872 Ry
     estimated scf accuracy    <       0.00000397 Ry

     iteration # 23     ecut=    50.00 Ry     beta= 0.30
     Davidson diagonalization with overlap
     ethr =  7.90E-10,  avg # of iterations =  2.0

     total cpu time spent up to now is      125.7 secs

     total energy              =    -723.16413729 Ry
     estimated scf accuracy    <       0.00000339 Ry

     iteration # 24     ecut=    50.00 Ry     beta= 0.30
     Davidson diagonalization with overlap
     ethr =  7.90E-10,  avg # of iterations =  7.3

     total cpu time spent up to now is      134.6 secs

     total energy              =    -723.16413801 Ry
     estimated scf accuracy    <       0.00000010 Ry

     iteration # 25     ecut=    50.00 Ry     beta= 0.30
     Davidson diagonalization with overlap
     ethr =  1.38E-10,  avg # of iterations =  2.6

     total cpu time spent up to now is      138.7 secs

     total energy              =    -723.16413801 Ry
     estimated scf accuracy    <       0.00000006 Ry

     iteration # 26     ecut=    50.00 Ry     beta= 0.30
     Davidson diagonalization with overlap
     ethr =  8.27E-11,  avg # of iterations =  6.3

     total cpu time spent up to now is      146.2 secs

     total energy              =    -723.16413804 Ry
     estimated scf accuracy    <       0.00000009 Ry

     iteration # 27     ecut=    50.00 Ry     beta= 0.30
     Davidson diagonalization with overlap
     ethr =  8.27E-11,  avg # of iterations =  1.2

     total cpu time spent up to now is      149.7 secs

     total energy              =    -723.16413801 Ry
     estimated scf accuracy    <       0.00000009 Ry

     iteration # 28     ecut=    50.00 Ry     beta= 0.30
     Davidson diagonalization with overlap
     ethr =  8.27E-11,  avg # of iterations =  2.7

     total cpu time spent up to now is      153.9 secs

     total energy              =    -723.16413801 Ry
     estimated scf accuracy    <       0.00000002 Ry

     iteration # 29     ecut=    50.00 Ry     beta= 0.30
     Davidson diagonalization with overlap
     ethr =  2.57E-11,  avg # of iterations =  6.7

     total cpu time spent up to now is      162.0 secs

     total energy              =    -723.16413801 Ry
     estimated scf accuracy    <       0.00000002 Ry

     iteration # 30     ecut=    50.00 Ry     beta= 0.30
     Davidson diagonalization with overlap
     ethr =  2.54E-11,  avg # of iterations =  6.1

     total cpu time spent up to now is      169.8 secs

     total energy              =    -723.16413802 Ry
     estimated scf accuracy    <       0.00000002 Ry

     iteration # 31     ecut=    50.00 Ry     beta= 0.30
     Davidson diagonalization with overlap
     ethr =  2.49E-11,  avg # of iterations =  1.7

     total cpu time spent up to now is      173.4 secs

     End of self-consistent calculation

          k = 0.0000 0.0000 0.0000 (  3325 PWs)   bands (ev):

    -9.7420  -8.8689  -8.5799  -8.5036   2.7309   2.8017   3.0475   3.0477
     3.1261   3.1665   3.1666   3.5497   3.6059   3.6761   3.9550   4.4002
     4.6492   4.6492   4.8035   4.8300   5.0099   5.0292   5.0293   5.1033
     5.2983   5.4578   5.7871   6.4526   6.5568   8.1342   8.2592   8.5151
     8.5153   9.1488   9.4772   9.4774

          k = 0.0000 0.0000 0.2294 (  3344 PWs)   bands (ev):

    -9.6674  -8.8365  -8.6604  -8.5190   2.6113   2.6959   2.9888   3.0403
     3.0405   3.1434   3.1435   3.4752   3.5641   3.6012   3.9120   4.1589
     4.6904   4.6904   4.8418   4.8748   5.0201   5.0201   5.0641   5.0861
     5.3710   5.6920   5.8215   6.7070   6.8975   8.1640   8.3278   8.5831
     8.5832   8.7143   9.4181   9.4184

          k = 0.0000 0.0000 0.4588 (  3342 PWs)   bands (ev):

    -9.4610  -8.8788  -8.7531  -8.5684   2.3869   2.4629   2.8414   3.0330
     3.0331   3.0927   3.0928   3.1788   3.5619   3.6113   3.8082   3.8402
     4.7916   4.7916   4.8747   4.9796   4.9824   4.9824   4.9902   5.0993
     5.5005   5.6229   6.5825   7.0706   7.7226   7.8956   8.0588   8.5869
     8.7676   8.7678   9.2519   9.2521

          k = 0.0000 0.0000-0.6883 (  3320 PWs)   bands (ev):

    -9.1730  -9.1730  -8.6522  -8.6521   2.3131   2.3131   2.9133   2.9133
     3.0487   3.0487   3.0488   3.0489   3.6424   3.6424   3.6962   3.6962
     4.9024   4.9024   4.9024   4.9024   4.9249   4.9249   5.0563   5.0563
     5.5799   5.5799   7.3645   7.3645   7.5042   7.5042   8.4014   8.4014
     9.0143   9.0144   9.0145   9.0146

          k = 0.0000 0.3849 0.0000 (  3321 PWs)   bands (ev):

    -9.5631  -8.8808  -8.5303  -8.4959   2.8497   2.8506   3.0649   3.1015
     3.1799   3.3203   3.3280   3.4504   3.6115   3.6945   4.0077   4.3030
     4.5590   4.5796   4.6334   4.7922   5.0543   5.0970   5.1683   5.1950
     5.3889   5.4446   5.9126   6.1306   6.7026   7.5774   7.8538   8.0533
     8.1121   8.3511   8.9747   9.2026

          k = 0.0000 0.3849 0.2294 (  3326 PWs)   bands (ev):

    -9.4948  -8.8473  -8.5991  -8.5127   2.7607   2.8083   2.9123   2.9321
     3.1743   3.2953   3.3003   3.4532   3.5622   3.5782   3.8854   4.0594
     4.6466   4.6748   4.6992   4.8346   5.0391   5.0685   5.1209   5.2345
     5.4568   5.8806   5.9671   6.2090   7.0378   7.6679   7.7572   8.0928
     8.1358   8.3182   9.1006   9.1322

          k = 0.0000 0.3849 0.4588 (  3347 PWs)   bands (ev):

    -9.3069  -8.7883  -8.7606  -8.5661   2.5600   2.6174   2.6591   2.7430
     3.1705   3.2398   3.2584   3.3743   3.4583   3.5209   3.7239   3.8380
     4.7766   4.7884   4.8203   4.8614   4.9868   5.0448   5.0671   5.2064
     5.6373   5.9011   6.5601   6.6129   7.4005   7.6182   7.8644   8.0631
     8.3579   8.6154   8.9344   8.9977

          k = 0.0000 0.3849-0.6883 (  3332 PWs)   bands (ev):

    -9.0480  -9.0480  -8.6550  -8.6549   2.4684   2.4684   2.6266   2.6266
     3.1910   3.1910   3.2644   3.2644   3.4860   3.4860   3.7149   3.7149
     4.8624   4.8624   4.8939   4.8939   4.9337   4.9337   5.1318   5.1318
     5.7886   5.7886   7.0005   7.0005   7.1999   7.1999   8.4859   8.4859
     8.5597   8.5597   8.6523   8.6524

          k = 0.0000 0.7698 0.0000 (  3341 PWs)   bands (ev):

    -9.1483  -8.8808  -8.4959  -8.4709   2.6331   2.8497   2.9920   3.0649
     3.4427   3.4504   3.6114   3.6266   3.6940   4.0076   4.0751   4.3030
     4.4823   4.5590   4.7004   4.7922   5.0902   5.0970   5.1683   5.2654
     5.3889   5.5459   5.9125   6.1306   6.2334   6.7026   6.9389   7.1061
     7.8537   8.1121   8.5023   8.5969

          k = 0.0000 0.7698 0.2294 (  3330 PWs)   bands (ev):

    -9.0982  -8.8473  -8.5127  -8.5099   2.5694   2.7607   2.8290   2.9123
     3.4462   3.4531   3.5332   3.5622   3.6619   3.8729   3.8853   4.0594
     4.6286   4.6992   4.7288   4.8346   5.0627   5.0685   5.2326   5.2345
     5.4568   5.7829   5.9671   6.2090   6.4315   6.9334   7.0378   7.2235
     7.7571   8.3182   8.5092   8.6633

          k = 0.0000 0.7698 0.4588 (  3341 PWs)   bands (ev):

    -8.9640  -8.7606  -8.6224  -8.5661   2.4249   2.5344   2.5600   2.6174
     3.4557   3.4583   3.4648   3.5209   3.5873   3.6288   3.7239   3.8380
     4.8028   4.8203   4.8319   4.8614   4.9915   5.0671   5.1449   5.2065
     5.6373   5.9011   6.0447   6.4396   6.5600   7.4004   7.5259   7.5541
     7.8644   8.2626   8.6154   8.7589

          k = 0.0000 0.7698-0.6883 (  3344 PWs)   bands (ev):

    -8.7878  -8.7878  -8.6550  -8.6549   2.3761   2.3762   2.4684   2.4685
     3.4860   3.4860   3.4877   3.4877   3.5125   3.5125   3.7149   3.7149
     4.8624   4.8624   4.8982   4.8982   5.0090   5.0090   5.1318   5.1318
     5.7886   5.7886   6.2545   6.2545   7.0004   7.0005   7.9074   7.9074
     8.3594   8.3594   8.4859   8.4859

          k = 0.0000-1.1547 0.0000 (  3324 PWs)   bands (ev):

    -8.8689  -8.8689  -8.5036  -8.5036   2.7310   2.7310   2.8017   2.8017
     3.5496   3.5496   3.6761   3.6761   3.9549   3.9549   4.4002   4.4002
     4.8035   4.8035   4.8300   4.8300   5.0099   5.0099   5.1033   5.1033
     5.2983   5.2983   5.7871   5.7871   6.4526   6.4526   6.5567   6.5567
     8.1342   8.1342   8.2590   8.2590

          k = 0.0000-1.1547 0.2294 (  3324 PWs)   bands (ev):

    -8.8365  -8.8365  -8.5190  -8.5190   2.6114   2.6114   2.6960   2.6960
     3.5640   3.5640   3.6012   3.6012   3.9119   3.9119   4.1590   4.1590
     4.8418   4.8418   4.8749   4.8749   5.0641   5.0641   5.0861   5.0861
     5.3710   5.3710   5.6921   5.6921   6.7069   6.7069   6.8975   6.8975
     8.1639   8.1639   8.3278   8.3278

          k = 0.0000-1.1547 0.4588 (  3356 PWs)   bands (ev):

    -8.7531  -8.7531  -8.5684  -8.5684   2.3869   2.3869   2.4630   2.4630
     3.5619   3.5619   3.6112   3.6112   3.8081   3.8081   3.8402   3.8402
     4.8747   4.8747   4.9797   4.9797   4.9903   4.9903   5.0993   5.0993
     5.5005   5.5005   5.6230   5.6230   7.0704   7.0704   7.7226   7.7226
     7.8954   7.8954   8.5869   8.5870

          k = 0.0000-1.1547-0.6883 (  3336 PWs)   bands (ev):

    -8.6522  -8.6522  -8.6521  -8.6521   2.3131   2.3131   2.3131   2.3131
     3.6424   3.6424   3.6424   3.6424   3.6961   3.6961   3.6961   3.6961
     4.9249   4.9249   4.9249   4.9249   5.0563   5.0563   5.0563   5.0563
     5.5799   5.5799   5.5800   5.5800   7.5040   7.5040   7.5040   7.5040
     8.4014   8.4015   8.4015   8.4015

          k = 0.1667 0.0962 0.0000 (  3319 PWs)   bands (ev):

    -9.6953  -8.9553  -8.5659  -8.4840   2.6544   2.8990   2.9891   3.0822
     3.1307   3.1960   3.2068   3.5235   3.6306   3.6656   3.8777   4.3639
     4.5638   4.6296   4.6426   4.7837   5.0367   5.0756   5.1004   5.2196
     5.2700   5.4519   6.0712   6.4521   6.7149   8.2489   8.2492   8.3527
     8.3904   9.0285   9.1070   9.4058

          k = 0.1667 0.0962 0.2294 (  3331 PWs)   bands (ev):

    -9.6223  -8.9167  -8.6434  -8.5072   2.5683   2.7583   2.9502   2.9863
     3.0756   3.1834   3.1901   3.5076   3.5344   3.5826   3.8383   4.0788
     4.6777   4.6843   4.7290   4.8007   5.0260   5.0497   5.0656   5.2077
     5.4282   5.8357   5.9966   6.8359   6.8537   8.2595   8.3211   8.4343
     8.4624   8.5453   9.2910   9.3435

          k = 0.1667 0.0962 0.4588 (  3336 PWs)   bands (ev):

    -9.4206  -8.8544  -8.8156  -8.5775   2.3870   2.4854   2.7786   2.9153
     3.0690   3.1311   3.1511   3.2650   3.5283   3.5728   3.7449   3.7732
     4.7862   4.7894   4.8481   4.9037   4.9840   4.9920   4.9997   5.1432
     5.6302   5.8896   6.5982   7.1976   7.6566   7.9605   7.9970   8.5529
     8.6442   8.6573   9.1596   9.1680

          k = 0.1667 0.0962-0.6883 (  3342 PWs)   bands (ev):

    -9.1399  -9.1398  -8.6889  -8.6889   2.3261   2.3261   2.7958   2.7958
     3.0858   3.0858   3.1443   3.1443   3.5926   3.5926   3.6453   3.6453
     4.8997   4.8997   4.9102   4.9102   4.9148   4.9148   5.0415   5.0415
     5.7754   5.7754   7.3413   7.3413   7.6157   7.6157   8.3868   8.3868
     8.8627   8.8628   8.9175   8.9176

          k = 0.1667 0.4811 0.0000 (  3320 PWs)   bands (ev):

    -9.4421  -9.0619  -8.5037  -8.4702   2.7539   2.7786   3.0699   3.0793
     3.2225   3.3998   3.4099   3.4915   3.5632   3.7546   3.8663   4.0403
     4.5344   4.5507   4.6288   4.7181   5.0665   5.0956   5.2691   5.2973
     5.4705   5.5165   6.3018   6.5481   6.7868   7.1471   7.5895   7.9856
     8.1872   8.3915   8.8571   8.9671

          k = 0.1667 0.4811 0.2294 (  3331 PWs)   bands (ev):

    -9.3785  -9.0166  -8.5643  -8.5026   2.6887   2.7355   2.8904   2.8982
     3.2398   3.3679   3.4154   3.4240   3.5130   3.6407   3.7185   3.9056
     4.6330   4.6505   4.6722   4.7648   5.0476   5.0675   5.1726   5.2651
     5.7296   5.9233   6.4225   6.7278   6.8413   7.2671   7.5925   7.8790
     8.0852   8.5773   8.8852   8.9912

          k = 0.1667 0.4811 0.4588 (  3333 PWs)   bands (ev):

    -9.2044  -8.8960  -8.7326  -8.5974   2.5312   2.5895   2.5977   2.6462
     3.2425   3.2993   3.3566   3.3958   3.4487   3.4599   3.5943   3.7366
     4.7734   4.7957   4.8239   4.8357   4.9888   5.0158   5.0831   5.1756
     5.9879   6.3652   6.5679   6.9566   7.3021   7.5648   7.7745   7.8751
     8.0366   8.6640   8.7538   8.9400

          k = 0.1667 0.4811-0.6883 (  3334 PWs)   bands (ev):

    -8.9671  -8.9671  -8.7403  -8.7402   2.4493   2.4493   2.5361   2.5361
     3.2518   3.2518   3.3625   3.3625   3.3982   3.3982   3.6236   3.6236
     4.8890   4.8890   4.8898   4.8898   4.9592   4.9592   5.0540   5.0540
     6.1906   6.1906   6.9951   6.9951   7.3564   7.3564   8.3274   8.3274
     8.4558   8.4558   8.4760   8.4760

          k = 0.1667 0.8660 0.0000 (  3338 PWs)   bands (ev):

    -9.0234  -9.0234  -8.4743  -8.4743   2.6768   2.6768   2.9884   2.9884
     3.4582   3.4582   3.6361   3.6361   3.8416   3.8416   4.2196   4.2196
     4.5044   4.5044   4.7479   4.7479   5.0974   5.0974   5.2707   5.2707
     5.4021   5.4021   6.1842   6.1842   6.5851   6.5852   6.7476   6.7476
     8.2991   8.2991   8.3634   8.3634

          k = 0.1667 0.8660 0.2294 (  3332 PWs)   bands (ev):

    -8.9805  -8.9804  -8.5034  -8.5034   2.6032   2.6032   2.8299   2.8299
     3.4616   3.4616   3.5706   3.5706   3.7733   3.7733   3.9792   3.9792
     4.6634   4.6634   4.7787   4.7787   5.0667   5.0667   5.2456   5.2456
     5.5799   5.5800   6.2460   6.2460   6.7418   6.7418   6.9359   6.9359
     8.2220   8.2220   8.5257   8.5257

          k = 0.1667 0.8660 0.4588 (  3338 PWs)   bands (ev):

    -8.8667  -8.8666  -8.5895  -8.5894   2.4388   2.4388   2.5354   2.5354
     3.4583   3.4583   3.5363   3.5363   3.6475   3.6475   3.7439   3.7439
     4.8282   4.8282   4.8596   4.8596   5.0044   5.0044   5.1624   5.1624
     5.8074   5.8074   6.1453   6.1454   7.1356   7.1356   7.6453   7.6453
     7.9638   7.9638   8.7064   8.7065

          k = 0.1667 0.8660-0.6883 (  3340 PWs)   bands (ev):

    -8.7212  -8.7211  -8.7211  -8.7211   2.3773   2.3774   2.3774   2.3774
     3.4975   3.4975   3.4975   3.4975   3.6262   3.6262   3.6262   3.6262
     4.9005   4.9005   4.9005   4.9005   5.0436   5.0436   5.0436   5.0436
     5.9898   5.9898   5.9898   5.9898   7.5542   7.5542   7.5542   7.5542
     8.4157   8.4157   8.4157   8.4157

          k = 0.1667-1.0585 0.0000 (  3340 PWs)   bands (ev):

    -8.8730  -8.8729  -8.5010  -8.5010   2.7589   2.7589   2.8903   2.8903
     3.5173   3.5173   3.6497   3.6497   3.9743   3.9743   4.4118   4.4118
     4.6605   4.6605   4.8111   4.8111   5.0696   5.0696   5.1076   5.1076
     5.3440   5.3440   5.8844   5.8844   6.2355   6.2355   6.6616   6.6616
     8.0645   8.0645   8.1888   8.1888

          k = 0.1667-1.0585 0.2294 (  3350 PWs)   bands (ev):

    -8.8402  -8.8402  -8.5169  -8.5169   2.6550   2.6551   2.7631   2.7631
     3.5277   3.5277   3.5869   3.5869   3.9135   3.9135   4.1322   4.1322
     4.7825   4.7825   4.8467   4.8467   5.0675   5.0675   5.1344   5.1344
     5.4097   5.4097   5.7867   5.7867   6.4893   6.4893   6.9993   6.9993
     8.0184   8.0184   8.3340   8.3340

          k = 0.1667-1.0585 0.4588 (  3352 PWs)   bands (ev):

    -8.7556  -8.7556  -8.5676  -8.5676   2.4397   2.4397   2.5101   2.5102
     3.5356   3.5356   3.5810   3.5810   3.7884   3.7884   3.8325   3.8325
     4.8620   4.8620   4.9033   4.9033   5.0404   5.0404   5.1350   5.1350
     5.5409   5.5409   5.7064   5.7064   6.8931   6.8931   7.7237   7.7237
     7.7966   7.7966   8.6009   8.6009

          k = 0.1667-1.0585-0.6883 (  3348 PWs)   bands (ev):

    -8.6531  -8.6531  -8.6531  -8.6531   2.3607   2.3607   2.3608   2.3608
     3.5904   3.5904   3.5904   3.5904   3.7060   3.7060   3.7060   3.7060
     4.8989   4.8989   4.8989   4.8989   5.0857   5.0857   5.0857   5.0857
     5.6391   5.6391   5.6391   5.6391   7.3376   7.3376   7.3376   7.3376
     8.4375   8.4376   8.4376   8.4376

          k = 0.1667-0.6736 0.0000 (  3342 PWs)   bands (ev):

    -9.2336  -8.7431  -8.5453  -8.4747   2.6854   3.0433   3.0964   3.2098
     3.3532   3.4168   3.5461   3.6114   3.6770   3.9244   4.1719   4.3688
     4.5091   4.6261   4.6655   4.7664   4.9075   5.0123   5.0840   5.2840
     5.3040   5.5730   5.6273   5.9239   6.4629   6.9996   7.1118   7.2899
     7.3986   7.7844   8.6147   8.6345

          k = 0.1667-0.6736 0.2294 (  3342 PWs)   bands (ev):

    -9.1792  -8.7209  -8.5489  -8.5203   2.6293   2.8663   2.9897   3.0684
     3.3607   3.3975   3.4957   3.5661   3.5888   3.7819   3.9855   4.1077
     4.6243   4.6761   4.7048   4.8152   5.0243   5.0594   5.1376   5.2273
     5.5058   5.6263   5.8962   5.9083   6.6484   7.1090   7.1944   7.3063
     7.4171   8.0334   8.5393   8.7735

          k = 0.1667-0.6736 0.4588 (  3334 PWs)   bands (ev):

    -9.0323  -8.6663  -8.6499  -8.5662   2.4909   2.5731   2.7434   2.7613
     3.3591   3.4030   3.4262   3.4922   3.4983   3.5991   3.8130   3.8798
     4.7135   4.7903   4.7979   4.8161   4.9936   5.1348   5.1800   5.2903
     5.6123   5.7472   6.0317   6.2681   6.7265   6.9125   7.5014   7.6328
     8.0562   8.2915   8.4640   8.8301

          k = 0.1667-0.6736-0.6883 (  3334 PWs)   bands (ev):

    -8.8368  -8.8368  -8.6069  -8.6069   2.4320   2.4320   2.6166   2.6166
     3.3739   3.3739   3.4417   3.4417   3.4987   3.4987   3.7845   3.7845
     4.7582   4.7582   4.8913   4.8913   5.0003   5.0003   5.2817   5.2817
     5.6920   5.6920   6.4698   6.4698   6.5145   6.5145   7.9168   7.9168
     8.4033   8.4034   8.5306   8.5306

          k = 0.1667-0.2887 0.0000 (  3327 PWs)   bands (ev):

    -9.6058  -8.7950  -8.5411  -8.5242   2.9032   2.9554   3.0131   3.1046
     3.1325   3.2769   3.3028   3.4653   3.6053   3.6735   4.0798   4.4697
     4.5981   4.6320   4.6460   4.7609   4.9550   5.0487   5.1060   5.1598
     5.4447   5.5833   5.6217   5.8339   6.8482   7.6916   7.8298   7.9843
     8.0795   8.5745   9.0213   9.2488

          k = 0.1667-0.2887 0.2294 (  3332 PWs)   bands (ev):

    -9.5360  -8.7683  -8.6127  -8.5329   2.8516   2.8693   2.8749   2.9214
     3.1412   3.2508   3.2760   3.4741   3.5571   3.5590   3.9811   4.1378
     4.6575   4.6746   4.7870   4.8127   5.0348   5.0358   5.1002   5.1035
     5.5874   5.6407   5.8657   6.0116   7.2001   7.6005   7.9249   8.0855
     8.1867   8.3300   9.1608   9.1799

          k = 0.1667-0.2887 0.4588 (  3343 PWs)   bands (ev):

    -9.3434  -8.8091  -8.7010  -8.5641   2.5941   2.6192   2.6998   2.7848
     3.1362   3.1931   3.2350   3.3489   3.5022   3.5258   3.8304   3.8494
     4.7782   4.7889   4.8096   4.8392   4.9859   5.0311   5.1554   5.1574
     5.6017   5.6240   6.4144   6.6151   7.2983   7.7437   7.9360   8.2137
     8.4345   8.5373   8.9870   9.0534

          k = 0.1667-0.2887-0.6883 (  3338 PWs)   bands (ev):

    -9.0773  -9.0773  -8.6234  -8.6234   2.4831   2.4831   2.6739   2.6739
     3.1484   3.1484   3.2394   3.2394   3.5276   3.5276   3.7533   3.7533
     4.8280   4.8281   4.8945   4.8945   4.9270   4.9270   5.1898   5.1898
     5.6152   5.6152   6.8707   6.8707   7.2610   7.2610   8.4988   8.4988
     8.6481   8.6481   8.7208   8.7208

          k = 0.3333 0.1925 0.0000 (  3308 PWs)   bands (ev):

    -9.5631  -9.1483  -8.5303  -8.4709   2.6330   2.8505   2.9919   3.1014
     3.1800   3.3204   3.3279   3.4429   3.6266   3.6941   3.6945   4.0751
     4.4823   4.5796   4.6333   4.7003   5.0544   5.0902   5.1949   5.2654
     5.4446   5.5459   6.2333   6.9388   7.1063   7.5773   8.0535   8.3510
     8.5023   8.5971   8.9747   9.2028

          k = 0.3333 0.1925 0.2294 (  3316 PWs)   bands (ev):

    -9.4948  -9.0982  -8.5991  -8.5099   2.5693   2.8082   2.8289   2.9321
     3.1744   3.2954   3.3002   3.4463   3.5332   3.5782   3.6620   3.8729
     4.6286   4.6466   4.6748   4.7288   5.0392   5.0627   5.1209   5.2326
     5.7828   5.8806   6.4314   6.9333   7.2236   7.6678   8.0927   8.1360
     8.5093   8.6633   9.1006   9.1324

          k = 0.3333 0.1925 0.4588 (  3350 PWs)   bands (ev):

    -9.3069  -8.9640  -8.7883  -8.6224   2.4249   2.5344   2.6591   2.7430
     3.1706   3.2399   3.2584   3.3742   3.4557   3.4649   3.5874   3.6287
     4.7766   4.7884   4.8027   4.8319   4.9868   4.9915   5.0448   5.1449
     6.0446   6.4396   6.6129   7.5260   7.5541   7.6181   8.0630   8.2627
     8.3581   8.7588   8.9346   8.9976

          k = 0.3333 0.1925-0.6883 (  3344 PWs)   bands (ev):

    -9.0480  -9.0480  -8.7878  -8.7878   2.3761   2.3761   2.6266   2.6266
     3.1911   3.1911   3.2643   3.2643   3.4877   3.4877   3.5126   3.5126
     4.8939   4.8939   4.8982   4.8982   4.9337   4.9337   5.0089   5.0089
     6.2544   6.2544   7.1999   7.1999   7.9075   7.9075   8.3594   8.3594
     8.5596   8.5596   8.6525   8.6525

          k = 0.3333 0.5774 0.0000 (  3330 PWs)   bands (ev):

    -9.2640  -9.2639  -8.4770  -8.4770   2.7352   2.7352   3.0651   3.0651
     3.3073   3.3073   3.4815   3.4816   3.7034   3.7035   3.8577   3.8577
     4.5343   4.5343   4.6443   4.6443   5.0811   5.0811   5.2930   5.2930
     5.5697   5.5697   6.6960   6.6960   6.9574   6.9574   7.4422   7.4422
     8.5877   8.5877   8.6627   8.6627

          k = 0.3333 0.5774 0.2294 (  3336 PWs)   bands (ev):

    -9.2081  -9.2081  -8.5249  -8.5249   2.6856   2.6856   2.8746   2.8746
     3.3283   3.3283   3.4360   3.4360   3.5837   3.5837   3.7507   3.7507
     4.6328   4.6328   4.6930   4.6931   5.0578   5.0578   5.2257   5.2257
     5.9419   5.9419   6.9015   6.9015   6.9906   6.9906   7.3601   7.3601
     8.4948   8.4949   8.8175   8.8175

          k = 0.3333 0.5774 0.4588 (  3326 PWs)   bands (ev):

    -9.0569  -9.0568  -8.6605  -8.6605   2.5570   2.5570   2.5759   2.5759
     3.3303   3.3304   3.3497   3.3497   3.4835   3.4835   3.5943   3.5943
     4.7869   4.7869   4.8128   4.8128   4.9953   4.9953   5.1319   5.1319
     6.3678   6.3678   6.8668   6.8668   7.5067   7.5068   7.5914   7.5914
     8.2452   8.2452   8.8668   8.8668

          k = 0.3333 0.5774-0.6883 (  3336 PWs)   bands (ev):

    -8.8548  -8.8548  -8.8548  -8.8548   2.4678   2.4678   2.4678   2.4678
     3.3154   3.3154   3.3154   3.3154   3.4985   3.4985   3.4985   3.4985
     4.8876   4.8876   4.8876   4.8876   5.0005   5.0005   5.0005   5.0005
     6.6383   6.6384   6.6384   6.6384   7.8507   7.8507   7.8507   7.8507
     8.4362   8.4362   8.4362   8.4362

          k = 0.3333-0.9623 0.0000 (  3354 PWs)   bands (ev):

    -8.8808  -8.8808  -8.4959  -8.4959   2.8498   2.8498   3.0650   3.0650
     3.4503   3.4503   3.6114   3.6114   4.0076   4.0076   4.3030   4.3030
     4.5590   4.5590   4.7922   4.7922   5.0970   5.0970   5.1683   5.1683
     5.3889   5.3889   5.9125   5.9125   6.1306   6.1306   6.7026   6.7026
     7.8537   7.8537   8.1121   8.1121

          k = 0.3333-0.9623 0.2294 (  3340 PWs)   bands (ev):

    -8.8473  -8.8473  -8.5127  -8.5127   2.7608   2.7608   2.9123   2.9123
     3.4531   3.4531   3.5622   3.5622   3.8853   3.8853   4.0594   4.0594
     4.6992   4.6992   4.8346   4.8347   5.0685   5.0685   5.2345   5.2345
     5.4568   5.4568   5.9670   5.9670   6.2090   6.2090   7.0378   7.0378
     7.7571   7.7571   8.3181   8.3181

          k = 0.3333-0.9623 0.4588 (  3338 PWs)   bands (ev):

    -8.7606  -8.7606  -8.5661  -8.5661   2.5600   2.5601   2.6174   2.6174
     3.4583   3.4583   3.5208   3.5208   3.7239   3.7239   3.8379   3.8379
     4.8203   4.8203   4.8614   4.8614   5.0671   5.0671   5.2065   5.2065
     5.6373   5.6373   5.9011   5.9011   6.5600   6.5600   7.4004   7.4004
     7.8644   7.8644   8.6154   8.6154

          k = 0.3333-0.9623-0.6883 (  3332 PWs)   bands (ev):

    -8.6550  -8.6550  -8.6549  -8.6549   2.4685   2.4685   2.4685   2.4685
     3.4860   3.4860   3.4860   3.4860   3.7148   3.7148   3.7148   3.7148
     4.8624   4.8624   4.8624   4.8624   5.1318   5.1318   5.1318   5.1318
     5.7886   5.7886   5.7886   5.7886   7.0004   7.0004   7.0004   7.0004
     8.4859   8.4859   8.4859   8.4859

          k = 0.3333-0.5774 0.0000 (  3342 PWs)   bands (ev):

    -9.2639  -8.6281  -8.6281  -8.4770   2.7353   3.0652   3.2901   3.2934
     3.2935   3.3072   3.4815   3.6939   3.7034   3.8577   4.3799   4.3799
     4.5343   4.5508   4.6444   4.7285   4.7285   4.7980   5.0811   5.2364
     5.2930   5.5697   5.7960   5.7960   6.6961   6.9574   7.1620   7.4052
     7.4052   7.4422   8.5876   8.6627

          k = 0.3333-0.5774 0.2294 (  3357 PWs)   bands (ev):

    -9.2081  -8.6185  -8.6185  -8.5249   2.6857   2.8746   3.1512   3.1512
     3.3000   3.3282   3.4359   3.5837   3.6334   3.7507   4.0742   4.0742
     4.5749   4.6327   4.6931   4.7841   5.0370   5.0370   5.0578   5.2258
     5.3782   5.7625   5.7625   5.9419   6.9016   6.9906   7.0307   7.3600
     7.7012   7.7013   8.4947   8.8175

          k = 0.3333-0.5774 0.4588 (  3322 PWs)   bands (ev):

    -9.0568  -8.6605  -8.5991  -8.5991   2.5570   2.5759   2.8474   2.8474
     3.3303   3.3357   3.3496   3.4835   3.5126   3.5943   3.8717   3.8717
     4.6283   4.7457   4.7870   4.8128   4.9953   5.1319   5.2929   5.2929
     5.7103   5.7103   5.7422   6.3678   6.6807   6.8669   7.5067   7.5914
     8.2451   8.2686   8.2686   8.8668

          k = 0.3333-0.5774-0.6883 (  3342 PWs)   bands (ev):

    -8.8548  -8.8548  -8.5894  -8.5894   2.4678   2.4678   2.7006   2.7006
     3.3154   3.3154   3.4053   3.4053   3.4984   3.4984   3.8206   3.8206
     4.6895   4.6895   4.8876   4.8876   5.0005   5.0005   5.3782   5.3782
     5.6864   5.6864   6.2133   6.2133   6.6384   6.6384   7.8506   7.8506
     8.4362   8.4363   8.5457   8.5457

          k =-0.5000-0.2887 0.0000 (  3324 PWs)   bands (ev):

    -9.3683  -9.3683  -8.4910  -8.4910   2.7093   2.7094   3.0540   3.0540
     3.3156   3.3156   3.4905   3.4906   3.5110   3.5110   3.8137   3.8137
     4.5203   4.5203   4.6458   4.6458   5.0739   5.0739   5.2820   5.2820
     5.5059   5.5059   6.7915   6.7915   7.5912   7.5912   7.6450   7.6450
     8.7659   8.7659   8.9096   8.9097

          k =-0.5000-0.2887 0.2294 (  3332 PWs)   bands (ev):

    -9.3078  -9.3078  -8.5464  -8.5464   2.6581   2.6581   2.8825   2.8825
     3.3127   3.3128   3.4365   3.4365   3.4631   3.4631   3.6853   3.6853
     4.6197   4.6197   4.6833   4.6833   5.0527   5.0527   5.1940   5.1940
     5.9351   5.9351   6.9271   6.9271   7.4878   7.4878   7.6890   7.6890
     8.8299   8.8300   8.8987   8.8987

          k =-0.5000-0.2887 0.4588 (  3350 PWs)   bands (ev):

    -9.1428  -9.1428  -8.7014  -8.7013   2.5258   2.5258   2.6127   2.6127
     3.3161   3.3161   3.3658   3.3658   3.4017   3.4018   3.4876   3.4876
     4.7777   4.7777   4.7989   4.7989   4.9895   4.9895   5.1014   5.1014
     6.4753   6.4753   7.0583   7.0583   7.6375   7.6376   7.9485   7.9486
     8.6062   8.6062   8.8726   8.8726

          k =-0.5000-0.2887-0.6883 (  3364 PWs)   bands (ev):

    -8.9197  -8.9197  -8.9196  -8.9196   2.4776   2.4776   2.4776   2.4776
     3.3448   3.3448   3.3448   3.3448   3.3759   3.3759   3.3759   3.3759
     4.8910   4.8910   4.8910   4.8910   4.9694   4.9694   4.9694   4.9694
     6.8077   6.8077   6.8077   6.8077   8.2861   8.2861   8.2861   8.2861
     8.3800   8.3800   8.3801   8.3801

          k =-0.5000-1.4434 0.0000 (  3326 PWs)   bands (ev):

    -8.8847  -8.8847  -8.4934  -8.4934   2.9211   2.9211   3.1235   3.1235
     3.4754   3.4754   3.5714   3.5714   4.0308   4.0308   4.1611   4.1611
     4.5798   4.5798   4.7797   4.7797   5.0991   5.0991   5.2272   5.2272
     5.4130   5.4130   5.7270   5.7270   6.3065   6.3065   6.6657   6.6657
     7.7326   7.7326   8.0842   8.0843

          k =-0.5000-1.4434 0.2294 (  3344 PWs)   bands (ev):

    -8.8508  -8.8508  -8.5108  -8.5107   2.8352   2.8352   2.9802   2.9802
     3.4610   3.4610   3.5171   3.5171   3.8289   3.8289   4.0303   4.0303
     4.6786   4.6786   4.8295   4.8295   5.0688   5.0688   5.2953   5.2953
     5.5020   5.5020   5.8788   5.8788   6.2581   6.2581   6.9960   6.9960
     7.6379   7.6379   8.3071   8.3071

          k =-0.5000-1.4434 0.4588 (  3322 PWs)   bands (ev):

    -8.7631  -8.7631  -8.5653  -8.5653   2.6368   2.6368   2.6745   2.6745
     3.4405   3.4405   3.4452   3.4452   3.6946   3.6946   3.8420   3.8420
     4.7984   4.7984   4.8531   4.8531   5.0765   5.0765   5.2408   5.2408
     5.7264   5.7264   6.0009   6.0009   6.3898   6.3898   7.2096   7.2096
     7.8909   7.8909   8.6194   8.6194

          k =-0.5000-1.4434-0.6883 (  3324 PWs)   bands (ev):

    -8.6559  -8.6559  -8.6559  -8.6559   2.5313   2.5313   2.5314   2.5314
     3.4263   3.4263   3.4263   3.4263   3.7179   3.7179   3.7179   3.7179
     4.8478   4.8478   4.8478   4.8478   5.1520   5.1520   5.1520   5.1520
     5.8949   5.8949   5.8949   5.8949   6.8085   6.8085   6.8085   6.8085
     8.5033   8.5033   8.5033   8.5033

          k = 0.3333-0.1925-0.2294 (  3326 PWs)   bands (ev):

    -9.4948  -8.8473  -8.5991  -8.5127   2.7607   2.8083   2.9123   2.9321
     3.1743   3.2953   3.3003   3.4532   3.5622   3.5782   3.8854   4.0594
     4.6466   4.6748   4.6992   4.8346   5.0391   5.0685   5.1209   5.2345
     5.4568   5.8806   5.9671   6.2090   7.0378   7.6679   7.7572   8.0928
     8.1358   8.3182   9.1006   9.1322

          k = 0.3333-0.1925-0.4588 (  3347 PWs)   bands (ev):

    -9.3069  -8.7883  -8.7606  -8.5661   2.5600   2.6174   2.6591   2.7430
     3.1705   3.2398   3.2584   3.3743   3.4583   3.5209   3.7239   3.8380
     4.7766   4.7884   4.8203   4.8614   4.9868   5.0448   5.0671   5.2064
     5.6373   5.9011   6.5601   6.6129   7.4005   7.6182   7.8644   8.0631
     8.3579   8.6154   8.9344   8.9977

          k = 0.6667-0.3849-0.2294 (  3330 PWs)   bands (ev):

    -9.0982  -8.8473  -8.5127  -8.5099   2.5694   2.7607   2.8290   2.9123
     3.4462   3.4531   3.5332   3.5622   3.6619   3.8729   3.8853   4.0594
     4.6286   4.6992   4.7288   4.8346   5.0627   5.0685   5.2326   5.2345
     5.4568   5.7829   5.9671   6.2090   6.4314   6.9334   7.0378   7.2235
     7.7571   8.3182   8.5092   8.6633

          k = 0.6667-0.3849-0.4588 (  3341 PWs)   bands (ev):

    -8.9640  -8.7606  -8.6224  -8.5661   2.4249   2.5344   2.5600   2.6174
     3.4557   3.4583   3.4648   3.5209   3.5873   3.6288   3.7239   3.8380
     4.8028   4.8203   4.8319   4.8614   4.9915   5.0671   5.1449   5.2065
     5.6373   5.9011   6.0447   6.4396   6.5600   7.4004   7.5259   7.5541
     7.8644   8.2626   8.6154   8.7589

          k = 0.1667 0.0962-0.2294 (  3331 PWs)   bands (ev):

    -9.6223  -8.9167  -8.6434  -8.5072   2.5683   2.7583   2.9502   2.9863
     3.0756   3.1834   3.1901   3.5076   3.5344   3.5826   3.8383   4.0788
     4.6777   4.6843   4.7290   4.8007   5.0260   5.0497   5.0656   5.2077
     5.4282   5.8357   5.9966   6.8359   6.8537   8.2595   8.3211   8.4343
     8.4624   8.5453   9.2910   9.3435

          k = 0.1667 0.0962-0.4588 (  3336 PWs)   bands (ev):

    -9.4206  -8.8544  -8.8156  -8.5775   2.3870   2.4854   2.7786   2.9153
     3.0690   3.1311   3.1511   3.2650   3.5283   3.5728   3.7449   3.7732
     4.7862   4.7894   4.8481   4.9037   4.9840   4.9920   4.9997   5.1432
     5.6302   5.8896   6.5982   7.1976   7.6566   7.9605   7.9970   8.5529
     8.6442   8.6573   9.1596   9.1680

          k = 0.5000-0.0962-0.2294 (  3331 PWs)   bands (ev):

    -9.3785  -9.0166  -8.5643  -8.5026   2.6887   2.7355   2.8904   2.8982
     3.2398   3.3679   3.4154   3.4240   3.5130   3.6407   3.7185   3.9056
     4.6330   4.6505   4.6722   4.7648   5.0476   5.0675   5.1726   5.2651
     5.7296   5.9233   6.4225   6.7278   6.8413   7.2671   7.5925   7.8790
     8.0852   8.5773   8.8852   8.9912

          k = 0.5000-0.0962-0.4588 (  3333 PWs)   bands (ev):

    -9.2044  -8.8960  -8.7326  -8.5974   2.5312   2.5895   2.5977   2.6462
     3.2425   3.2993   3.3566   3.3958   3.4487   3.4599   3.5943   3.7366
     4.7734   4.7957   4.8239   4.8357   4.9888   5.0158   5.0831   5.1756
     5.9879   6.3652   6.5679   6.9566   7.3021   7.5648   7.7745   7.8751
     8.0366   8.6640   8.7538   8.9400

          k =-0.8333 0.6736-0.2294 (  3350 PWs)   bands (ev):

    -8.8402  -8.8402  -8.5169  -8.5169   2.6550   2.6550   2.7631   2.7631
     3.5277   3.5277   3.5869   3.5869   3.9135   3.9135   4.1322   4.1322
     4.7825   4.7825   4.8467   4.8467   5.0675   5.0675   5.1344   5.1344
     5.4097   5.4097   5.7867   5.7867   6.4893   6.4893   6.9993   6.9993
     8.0184   8.0184   8.3340   8.3340

          k =-0.8333 0.6736-0.4588 (  3352 PWs)   bands (ev):

    -8.7556  -8.7556  -8.5676  -8.5676   2.4397   2.4397   2.5101   2.5102
     3.5356   3.5356   3.5810   3.5811   3.7884   3.7884   3.8325   3.8325
     4.8620   4.8620   4.9033   4.9033   5.0404   5.0404   5.1350   5.1350
     5.5409   5.5409   5.7064   5.7064   6.8931   6.8931   7.7237   7.7237
     7.7966   7.7966   8.6009   8.6009

          k =-0.5000 0.4811-0.2294 (  3342 PWs)   bands (ev):

    -9.1792  -8.7209  -8.5489  -8.5203   2.6293   2.8663   2.9897   3.0684
     3.3607   3.3975   3.4957   3.5661   3.5888   3.7819   3.9855   4.1077
     4.6243   4.6761   4.7048   4.8152   5.0243   5.0594   5.1376   5.2273
     5.5058   5.6263   5.8962   5.9083   6.6484   7.1090   7.1944   7.3063
     7.4171   8.0334   8.5393   8.7735

          k =-0.5000 0.4811-0.4588 (  3334 PWs)   bands (ev):

    -9.0323  -8.6663  -8.6499  -8.5662   2.4909   2.5731   2.7434   2.7613
     3.3591   3.4030   3.4262   3.4922   3.4983   3.5991   3.8130   3.8798
     4.7135   4.7903   4.7979   4.8161   4.9936   5.1348   5.1800   5.2903
     5.6123   5.7472   6.0317   6.2681   6.7265   6.9125   7.5014   7.6328
     8.0562   8.2915   8.4640   8.8302

          k = 0.3333 0.1925-0.2294 (  3316 PWs)   bands (ev):

    -9.4948  -9.0982  -8.5991  -8.5099   2.5693   2.8082   2.8289   2.9321
     3.1744   3.2954   3.3002   3.4463   3.5332   3.5782   3.6620   3.8729
     4.6286   4.6466   4.6748   4.7288   5.0392   5.0627   5.1209   5.2326
     5.7828   5.8806   6.4314   6.9333   7.2236   7.6678   8.0927   8.1360
     8.5093   8.6633   9.1006   9.1324

          k = 0.3333 0.1925-0.4588 (  3350 PWs)   bands (ev):

    -9.3069  -8.9640  -8.7883  -8.6224   2.4249   2.5344   2.6591   2.7430
     3.1706   3.2399   3.2584   3.3742   3.4557   3.4649   3.5874   3.6287
     4.7766   4.7884   4.8027   4.8319   4.9868   4.9915   5.0448   5.1449
     6.0446   6.4396   6.6129   7.5260   7.5541   7.6181   8.0630   8.2627
     8.3581   8.7588   8.9346   8.9976

          k =-0.6667 0.7698-0.2294 (  3340 PWs)   bands (ev):

    -8.8473  -8.8473  -8.5127  -8.5127   2.7608   2.7608   2.9123   2.9123
     3.4531   3.4531   3.5622   3.5622   3.8853   3.8853   4.0594   4.0594
     4.6992   4.6992   4.8346   4.8347   5.0685   5.0685   5.2345   5.2345
     5.4568   5.4568   5.9670   5.9670   6.2090   6.2090   7.0378   7.0378
     7.7571   7.7571   8.3181   8.3182

          k =-0.6667 0.7698-0.4588 (  3338 PWs)   bands (ev):

    -8.7606  -8.7606  -8.5661  -8.5661   2.5600   2.5601   2.6174   2.6174
     3.4583   3.4583   3.5208   3.5208   3.7239   3.7239   3.8379   3.8379
     4.8203   4.8203   4.8614   4.8614   5.0671   5.0671   5.2065   5.2065
     5.6373   5.6373   5.9011   5.9011   6.5600   6.5600   7.4004   7.4004
     7.8644   7.8644   8.6154   8.6155

     highest occupied level (ev):     9.4774

!    total energy              =    -723.16413802 Ry
     estimated scf accuracy    <          6.2E-09 Ry

     The total energy is the sum of the following terms:
     one-electron contribution =    -270.11741055 Ry
     hartree contribution      =     223.08134195 Ry
     xc contribution           =    -219.81960563 Ry
     ewald contribution        =    -456.30846379 Ry

     convergence has been achieved in  31 iterations

     Forces acting on atoms (cartesian axes, Ry/au):

     atom    1 type  1   force =    -0.00002230   -0.00001287    0.01616176
     atom    2 type  2   force =    -0.00000756   -0.00000436   -0.01615934
     atom    3 type  1   force =     0.00000246    0.00000142    0.01616419
     atom    4 type  2   force =     0.00001324    0.00000764   -0.01616016
     atom    5 type  1   force =     0.00002067    0.00001194    0.01615981
     atom    6 type  2   force =    -0.00001056   -0.00000610   -0.01615958
     atom    7 type  1   force =     0.00000099    0.00000057    0.01615437
     atom    8 type  2   force =     0.00000306    0.00000177   -0.01616105
     The non-local contrib.  to forces
     atom    1 type  1   force =     0.00000599    0.00000346    0.16041267
     atom    2 type  2   force =    -0.00015087   -0.00008710    0.12014516
     atom    3 type  1   force =    -0.00003010   -0.00001738    0.16041545
     atom    4 type  2   force =     0.00015863    0.00009158    0.12014336
     atom    5 type  1   force =     0.00004558    0.00002631    0.16041220
     atom    6 type  2   force =    -0.00014858   -0.00008578    0.12014395
     atom    7 type  1   force =    -0.00002144   -0.00001238    0.16041042
     atom    8 type  2   force =     0.00013903    0.00008027    0.12014124
     The ionic contribution  to forces
     atom    1 type  1   force =     0.00000000    0.00000000    1.09839667
     atom    2 type  2   force =    -0.00000000   -0.00000000   -1.09839667
     atom    3 type  1   force =    -0.00000000   -0.00000000    1.09839667
     atom    4 type  2   force =     0.00000000    0.00000000   -1.09839667
     atom    5 type  1   force =     0.00000000    0.00000000    1.09839667
     atom    6 type  2   force =    -0.00000000   -0.00000000   -1.09839667
     atom    7 type  1   force =    -0.00000000   -0.00000000    1.09839667
     atom    8 type  2   force =     0.00000000    0.00000000   -1.09839667
     The local contribution  to forces
     atom    1 type  1   force =     0.00002353    0.00001358   -1.22990623
     atom    2 type  2   force =     0.00014321    0.00008269    0.96295184
     atom    3 type  1   force =     0.00003624    0.00002092   -1.22992129
     atom    4 type  2   force =    -0.00013161   -0.00007598    0.96295418
     atom    5 type  1   force =    -0.00008757   -0.00005056   -1.22990627
     atom    6 type  2   force =     0.00013153    0.00007594    0.96295391
     atom    7 type  1   force =     0.00002699    0.00001558   -1.22989149
     atom    8 type  2   force =    -0.00014586   -0.00008421    0.96295474
     The core correction contribution to forces
     atom    1 type  1   force =     0.00000348    0.00000201   -0.01273861
     atom    2 type  2   force =     0.00000171    0.00000099   -0.00085956
     atom    3 type  1   force =    -0.00000436   -0.00000252   -0.01273773
     atom    4 type  2   force =    -0.00000180   -0.00000104   -0.00085952
     atom    5 type  1   force =     0.00000578    0.00000334   -0.01273838
     atom    6 type  2   force =     0.00000167    0.00000097   -0.00085954
     atom    7 type  1   force =    -0.00000491   -0.00000284   -0.01273900
     atom    8 type  2   force =    -0.00000157   -0.00000091   -0.00085949
     The Hubbard contrib.    to forces
     atom    1 type  1   force =     0.00000000    0.00000000    0.00000000
     atom    2 type  2   force =     0.00000000    0.00000000    0.00000000
     atom    3 type  1   force =     0.00000000    0.00000000    0.00000000
     atom    4 type  2   force =     0.00000000    0.00000000    0.00000000
     atom    5 type  1   force =     0.00000000    0.00000000    0.00000000
     atom    6 type  2   force =     0.00000000    0.00000000    0.00000000
     atom    7 type  1   force =     0.00000000    0.00000000    0.00000000
     atom    8 type  2   force =     0.00000000    0.00000000    0.00000000
     The SCF correction term to forces
     atom    1 type  1   force =    -0.00005566   -0.00003214   -0.00000202
     atom    2 type  2   force =    -0.00000197   -0.00000114    0.00000062
     atom    3 type  1   force =     0.00000032    0.00000019    0.00001181
     atom    4 type  2   force =    -0.00001235   -0.00000713   -0.00000077
     atom    5 type  1   force =     0.00005653    0.00003264   -0.00000370
     atom    6 type  2   force =     0.00000446    0.00000258   -0.00000051
     atom    7 type  1   force =     0.00000000    0.00000000   -0.00002150
     atom    8 type  2   force =     0.00001110    0.00000641   -0.00000013

     Total force =     0.045707     Total SCF correction =     0.000097

     Writing all to output data dir ./ZnO-3.20-1.45-211.in.save/

     init_run     :      3.79s CPU      3.34s WALL (       1 calls)
     electrons    :    219.79s CPU    169.76s WALL (       1 calls)
     forces       :      1.01s CPU      0.82s WALL (       1 calls)

     Called by init_run:
     wfcinit      :      2.37s CPU      1.89s WALL (       1 calls)
     potinit      :      0.46s CPU      0.46s WALL (       1 calls)
     hinit0       :      0.83s CPU      0.85s WALL (       1 calls)

     Called by electrons:
     c_bands      :    193.52s CPU    148.31s WALL (      31 calls)
     sum_band     :     23.36s CPU     19.01s WALL (      31 calls)
     v_of_rho     :      1.00s CPU      0.90s WALL (      32 calls)
     newd         :      1.71s CPU      1.38s WALL (      32 calls)
     mix_rho      :      0.16s CPU      0.14s WALL (      31 calls)

     Called by c_bands:
     init_us_2    :      1.42s CPU      1.20s WALL (    2560 calls)
     init_us_2:cp :      1.41s CPU      1.19s WALL (    2560 calls)
     cegterg      :    180.85s CPU    137.82s WALL (    1240 calls)

     Called by *egterg:
     cdiaghg      :     28.62s CPU     22.60s WALL (    6008 calls)
     h_psi        :    119.42s CPU     97.18s WALL (    6048 calls)
     s_psi        :      8.20s CPU      4.42s WALL (    6048 calls)
     g_psi        :      0.69s CPU      0.43s WALL (    4768 calls)

     Called by h_psi:
     h_psi:calbec :      8.44s CPU      5.04s WALL (    6048 calls)
     vloc_psi     :    102.29s CPU     87.32s WALL (    6048 calls)
     add_vuspsi   :      8.33s CPU      4.55s WALL (    6048 calls)

     General routines
     calbec       :     11.33s CPU      6.68s WALL (    7448 calls)
     fft          :      0.85s CPU      0.83s WALL (     425 calls)
     ffts         :      0.21s CPU      0.21s WALL (      63 calls)
     fftw         :    103.44s CPU     88.96s WALL (  323660 calls)
     interpolate  :      0.23s CPU      0.23s WALL (      32 calls)

     Parallel routines

     PWSCF        :   3m45.24s CPU   2m54.80s WALL


   This run was terminated on:  13:56:16  12Jul2025            

=------------------------------------------------------------------------------=
   JOB DONE.
=------------------------------------------------------------------------------=
Note: The following floating-point exceptions are signalling: IEEE_INVALID_FLAG
Note: The following floating-point exceptions are signalling: IEEE_INVALID_FLAG
