Authorization required, but no authorization protocol specified

Authorization required, but no authorization protocol specified

Authorization required, but no authorization protocol specified

Authorization required, but no authorization protocol specified

Authorization required, but no authorization protocol specified

Authorization required, but no authorization protocol specified

Authorization required, but no authorization protocol specified

Authorization required, but no authorization protocol specified

Authorization required, but no authorization protocol specified

Authorization required, but no authorization protocol specified

Authorization required, but no authorization protocol specified

Authorization required, but no authorization protocol specified

Authorization required, but no authorization protocol specified

Authorization required, but no authorization protocol specified

Authorization required, but no authorization protocol specified

Authorization required, but no authorization protocol specified

Authorization required, but no authorization protocol specified

Authorization required, but no authorization protocol specified


     Program PWSCF v.7.2 starts on 12Jul2025 at 13:56:17 

     This program is part of the open-source Quantum ESPRESSO suite
     for quantum simulation of materials; please cite
         "P. Giannozzi et al., J. Phys.:Condens. Matter 21 395502 (2009);
         "P. Giannozzi et al., J. Phys.:Condens. Matter 29 465901 (2017);
         "P. Giannozzi et al., J. Chem. Phys. 152 154105 (2020);
          URL http://www.quantum-espresso.org", 
     in publications or presentations arising from this work. More details at
     http://www.quantum-espresso.org/quote

     Parallel version (MPI), running on    16 processors

     MPI processes distributed on     1 nodes
     46361 MiB available memory on the printing compute node when the environment starts

     Reading input from /home/jvc/QEspresso7.2/ZnO_database/scripts/cell211_strain10%.in/ZnO-3.20-1.49-211.in
Warning: card &CELL ignored
Warning: card / ignored
Warning: card &FCP ignored
Warning: card / ignored
Warning: card &RISM ignored
Warning: card / ignored

     Current dimensions of program PWSCF are:
     Max number of different atomic species (ntypx) = 10
     Max number of k-points (npk) =  40000
     Max angular momentum in pseudopotentials (lmaxx) =  4
     file Zn.upf: wavefunction(s)  3D renormalized
     Found identity + ( -0.5000  0.0000  0.0000) symmetry
     This is a supercell, fractional translations are disabled
     Message from routine setup:
     using ibrav=0 with symmetry is DISCOURAGED, use correct ibrav instead

     K-points division:     npool     =       2
     R & G space division:  proc/nbgrp/npool/nimage =       8
     Subspace diagonalization in iterative solution of the eigenvalue problem:
     a serial algorithm will be used


     Parallelization info
     --------------------
     sticks:   dense  smooth     PW     G-vecs:    dense   smooth      PW
     Min         252     126     40                 9636     3412     603
     Max         253     128     42                 9641     3413     605
     Sum        2021    1017    325                77117    27297    4831

     Using Slab Decomposition



     bravais-lattice index     =            0
     lattice parameter (alat)  =      12.1106  a.u.
     unit-cell volume          =     571.1503 (a.u.)^3
     number of atoms/cell      =            8
     number of atomic types    =            2
     number of electrons       =        72.00
     number of Kohn-Sham states=           36
     kinetic-energy cutoff     =      50.0000  Ry
     charge density cutoff     =     400.0000  Ry
     scf convergence threshold =      1.0E-08
     mixing beta               =       0.3000
     number of iterations used =            8  plain     mixing
     Exchange-correlation= PBE
                           (   1   4   3   4   0   0   0)

     celldm(1)=  12.110554  celldm(2)=   0.000000  celldm(3)=   0.000000
     celldm(4)=   0.000000  celldm(5)=   0.000000  celldm(6)=   0.000000

     crystal axes: (cart. coord. in units of alat)
               a(1) = (   1.000000   0.000000   0.000000 )  
               a(2) = (  -0.250000   0.433013   0.000000 )  
               a(3) = (   0.000000   0.000000   0.742605 )  

     reciprocal axes: (cart. coord. in units 2 pi/alat)
               b(1) = (  1.000000  0.577350 -0.000000 )  
               b(2) = (  0.000000  2.309401  0.000000 )  
               b(3) = (  0.000000 -0.000000  1.346611 )  


     PseudoPot. # 1 for Zn read from file:
     /home/jvc/QEspresso7.2/ZnO_database/pseudos/Zn.upf
     MD5 check sum: 7f56cabf9682ed8c977c2f7d0c5985c5
     Pseudo is Ultrasoft + core correction, Zval = 12.0
     Generated using &quot;atomic&quot; code by A. Dal Corso  v.6.2.2
     Using radial grid of 1201 points,  6 beta functions with: 
                l(1) =   0
                l(2) =   0
                l(3) =   1
                l(4) =   1
                l(5) =   2
                l(6) =   2
     Q(r) pseudized with 0 coefficients 


     PseudoPot. # 2 for O  read from file:
     /home/jvc/QEspresso7.2/ZnO_database/pseudos/O.upf
     MD5 check sum: 91400c9766925bcf19f520983a725ff0
     Pseudo is Ultrasoft + core correction, Zval =  6.0
     Generated using &quot;atomic&quot; code by A. Dal Corso  v.6.3MaX
     Using radial grid of 1095 points,  4 beta functions with: 
                l(1) =   0
                l(2) =   0
                l(3) =   1
                l(4) =   1
     Q(r) pseudized with 0 coefficients 


     atomic species   valence    mass     pseudopotential
        Zn            12.00    65.38000     Zn( 1.00)
        O              6.00    15.99900     O ( 1.00)

      2 Sym. Ops. (no inversion) found



   Cartesian axes

     site n.     atom                  positions (alat units)
         1           Zn  tau(   1) = (   0.0000000   0.0000000   0.0000000  )
         2           O   tau(   2) = (   0.0000000   0.2886751   0.0734336  )
         3           Zn  tau(   3) = (   0.0000000   0.2886751   0.3713024  )
         4           O   tau(   4) = (   0.0000000   0.0000000   0.4447360  )
         5           Zn  tau(   5) = (   0.5000000   0.0000000   0.0000000  )
         6           O   tau(   6) = (   0.5000000   0.2886751   0.0734336  )
         7           Zn  tau(   7) = (   0.5000000   0.2886751   0.3713024  )
         8           O   tau(   8) = (   0.5000000   0.0000000   0.4447360  )

     number of k points=    80
                       cart. coord. in units 2pi/alat
        k(    1) = (   0.0000000   0.0000000   0.0000000), wk =   0.0092593
        k(    2) = (   0.0000000   0.0000000   0.2244352), wk =   0.0185185
        k(    3) = (   0.0000000   0.0000000   0.4488704), wk =   0.0185185
        k(    4) = (   0.0000000   0.0000000  -0.6733056), wk =   0.0092593
        k(    5) = (   0.0000000   0.3849002   0.0000000), wk =   0.0370370
        k(    6) = (   0.0000000   0.3849002   0.2244352), wk =   0.0370370
        k(    7) = (   0.0000000   0.3849002   0.4488704), wk =   0.0370370
        k(    8) = (   0.0000000   0.3849002  -0.6733056), wk =   0.0370370
        k(    9) = (   0.0000000   0.7698004   0.0000000), wk =   0.0370370
        k(   10) = (   0.0000000   0.7698004   0.2244352), wk =   0.0370370
        k(   11) = (   0.0000000   0.7698004   0.4488704), wk =   0.0370370
        k(   12) = (   0.0000000   0.7698004  -0.6733056), wk =   0.0370370
        k(   13) = (   0.0000000  -1.1547005   0.0000000), wk =   0.0092593
        k(   14) = (   0.0000000  -1.1547005   0.2244352), wk =   0.0185185
        k(   15) = (   0.0000000  -1.1547005   0.4488704), wk =   0.0185185
        k(   16) = (   0.0000000  -1.1547005  -0.6733056), wk =   0.0092593
        k(   17) = (   0.1666667   0.0962250   0.0000000), wk =   0.0185185
        k(   18) = (   0.1666667   0.0962250   0.2244352), wk =   0.0185185
        k(   19) = (   0.1666667   0.0962250   0.4488704), wk =   0.0185185
        k(   20) = (   0.1666667   0.0962250  -0.6733056), wk =   0.0185185
        k(   21) = (   0.1666667   0.4811252   0.0000000), wk =   0.0370370
        k(   22) = (   0.1666667   0.4811252   0.2244352), wk =   0.0370370
        k(   23) = (   0.1666667   0.4811252   0.4488704), wk =   0.0370370
        k(   24) = (   0.1666667   0.4811252  -0.6733056), wk =   0.0370370
        k(   25) = (   0.1666667   0.8660254   0.0000000), wk =   0.0185185
        k(   26) = (   0.1666667   0.8660254   0.2244352), wk =   0.0370370
        k(   27) = (   0.1666667   0.8660254   0.4488704), wk =   0.0370370
        k(   28) = (   0.1666667   0.8660254  -0.6733056), wk =   0.0185185
        k(   29) = (   0.1666667  -1.0584755   0.0000000), wk =   0.0185185
        k(   30) = (   0.1666667  -1.0584755   0.2244352), wk =   0.0185185
        k(   31) = (   0.1666667  -1.0584755   0.4488704), wk =   0.0185185
        k(   32) = (   0.1666667  -1.0584755  -0.6733056), wk =   0.0185185
        k(   33) = (   0.1666667  -0.6735753   0.0000000), wk =   0.0370370
        k(   34) = (   0.1666667  -0.6735753   0.2244352), wk =   0.0370370
        k(   35) = (   0.1666667  -0.6735753   0.4488704), wk =   0.0370370
        k(   36) = (   0.1666667  -0.6735753  -0.6733056), wk =   0.0370370
        k(   37) = (   0.1666667  -0.2886751   0.0000000), wk =   0.0185185
        k(   38) = (   0.1666667  -0.2886751   0.2244352), wk =   0.0370370
        k(   39) = (   0.1666667  -0.2886751   0.4488704), wk =   0.0370370
        k(   40) = (   0.1666667  -0.2886751  -0.6733056), wk =   0.0185185
        k(   41) = (   0.3333333   0.1924501   0.0000000), wk =   0.0185185
        k(   42) = (   0.3333333   0.1924501   0.2244352), wk =   0.0185185
        k(   43) = (   0.3333333   0.1924501   0.4488704), wk =   0.0185185
        k(   44) = (   0.3333333   0.1924501  -0.6733056), wk =   0.0185185
        k(   45) = (   0.3333333   0.5773503   0.0000000), wk =   0.0185185
        k(   46) = (   0.3333333   0.5773503   0.2244352), wk =   0.0370370
        k(   47) = (   0.3333333   0.5773503   0.4488704), wk =   0.0370370
        k(   48) = (   0.3333333   0.5773503  -0.6733056), wk =   0.0185185
        k(   49) = (   0.3333333  -0.9622504   0.0000000), wk =   0.0185185
        k(   50) = (   0.3333333  -0.9622504   0.2244352), wk =   0.0185185
        k(   51) = (   0.3333333  -0.9622504   0.4488704), wk =   0.0185185
        k(   52) = (   0.3333333  -0.9622504  -0.6733056), wk =   0.0185185
        k(   53) = (   0.3333333  -0.5773503   0.0000000), wk =   0.0185185
        k(   54) = (   0.3333333  -0.5773503   0.2244352), wk =   0.0370370
        k(   55) = (   0.3333333  -0.5773503   0.4488704), wk =   0.0370370
        k(   56) = (   0.3333333  -0.5773503  -0.6733056), wk =   0.0185185
        k(   57) = (  -0.5000000  -0.2886751   0.0000000), wk =   0.0092593
        k(   58) = (  -0.5000000  -0.2886751   0.2244352), wk =   0.0185185
        k(   59) = (  -0.5000000  -0.2886751   0.4488704), wk =   0.0185185
        k(   60) = (  -0.5000000  -0.2886751  -0.6733056), wk =   0.0092593
        k(   61) = (  -0.5000000  -1.4433757   0.0000000), wk =   0.0092593
        k(   62) = (  -0.5000000  -1.4433757   0.2244352), wk =   0.0185185
        k(   63) = (  -0.5000000  -1.4433757   0.4488704), wk =   0.0185185
        k(   64) = (  -0.5000000  -1.4433757  -0.6733056), wk =   0.0092593
        k(   65) = (   0.3333333  -0.1924501  -0.2244352), wk =   0.0370370
        k(   66) = (   0.3333333  -0.1924501  -0.4488704), wk =   0.0370370
        k(   67) = (   0.6666667  -0.3849002  -0.2244352), wk =   0.0370370
        k(   68) = (   0.6666667  -0.3849002  -0.4488704), wk =   0.0370370
        k(   69) = (   0.1666667   0.0962250  -0.2244352), wk =   0.0185185
        k(   70) = (   0.1666667   0.0962250  -0.4488704), wk =   0.0185185
        k(   71) = (   0.5000000  -0.0962250  -0.2244352), wk =   0.0370370
        k(   72) = (   0.5000000  -0.0962250  -0.4488704), wk =   0.0370370
        k(   73) = (  -0.8333333   0.6735753  -0.2244352), wk =   0.0185185
        k(   74) = (  -0.8333333   0.6735753  -0.4488704), wk =   0.0185185
        k(   75) = (  -0.5000000   0.4811252  -0.2244352), wk =   0.0370370
        k(   76) = (  -0.5000000   0.4811252  -0.4488704), wk =   0.0370370
        k(   77) = (   0.3333333   0.1924501  -0.2244352), wk =   0.0185185
        k(   78) = (   0.3333333   0.1924501  -0.4488704), wk =   0.0185185
        k(   79) = (  -0.6666667   0.7698004  -0.2244352), wk =   0.0185185
        k(   80) = (  -0.6666667   0.7698004  -0.4488704), wk =   0.0185185

     Dense  grid:    77117 G-vectors     FFT dimensions: (  80,  40,  60)

     Smooth grid:    27297 G-vectors     FFT dimensions: (  60,  27,  45)

     Estimated max dynamical RAM per process >      33.99 MB

     Estimated total dynamical RAM >     525.09 MB

     Check: negative core charge=   -0.000002

     Initial potential from superposition of free atoms

     starting charge      71.9851, renormalised to      72.0000
     Starting wfcs are   52 randomized atomic wfcs

     total cpu time spent up to now is        3.9 secs

     Self-consistent Calculation

     iteration #  1     ecut=    50.00 Ry     beta= 0.30
     Davidson diagonalization with overlap
     ethr =  1.00E-02,  avg # of iterations =  2.0

     total cpu time spent up to now is        8.1 secs

     total energy              =    -722.90260722 Ry
     estimated scf accuracy    <       1.34744340 Ry

     iteration #  2     ecut=    50.00 Ry     beta= 0.30
     Davidson diagonalization with overlap
     ethr =  1.87E-03,  avg # of iterations =  2.0

     total cpu time spent up to now is       13.1 secs

     total energy              =    -723.04171350 Ry
     estimated scf accuracy    <       0.22162755 Ry

     iteration #  3     ecut=    50.00 Ry     beta= 0.30
     Davidson diagonalization with overlap
     ethr =  3.08E-04,  avg # of iterations =  6.2

     total cpu time spent up to now is       21.9 secs

     total energy              =    -723.13416435 Ry
     estimated scf accuracy    <       0.14236289 Ry

     iteration #  4     ecut=    50.00 Ry     beta= 0.30
     Davidson diagonalization with overlap
     ethr =  1.98E-04,  avg # of iterations =  6.2

     total cpu time spent up to now is       30.2 secs

     total energy              =    -723.24026111 Ry
     estimated scf accuracy    <       0.11017430 Ry

     iteration #  5     ecut=    50.00 Ry     beta= 0.30
     Davidson diagonalization with overlap
     ethr =  1.53E-04,  avg # of iterations =  1.7

     total cpu time spent up to now is       34.4 secs

     total energy              =    -723.18034592 Ry
     estimated scf accuracy    <       0.15096949 Ry

     iteration #  6     ecut=    50.00 Ry     beta= 0.30
     Davidson diagonalization with overlap
     ethr =  1.53E-04,  avg # of iterations =  2.0

     total cpu time spent up to now is       38.5 secs

     total energy              =    -723.16350755 Ry
     estimated scf accuracy    <       0.04677512 Ry

     iteration #  7     ecut=    50.00 Ry     beta= 0.30
     Davidson diagonalization with overlap
     ethr =  6.50E-05,  avg # of iterations =  5.1

     total cpu time spent up to now is       46.1 secs

     total energy              =    -723.19352987 Ry
     estimated scf accuracy    <       0.00784685 Ry

     iteration #  8     ecut=    50.00 Ry     beta= 0.30
     Davidson diagonalization with overlap
     ethr =  1.09E-05,  avg # of iterations =  3.5

     total cpu time spent up to now is       52.0 secs

     total energy              =    -723.19186879 Ry
     estimated scf accuracy    <       0.01359119 Ry

     iteration #  9     ecut=    50.00 Ry     beta= 0.30
     Davidson diagonalization with overlap
     ethr =  1.09E-05,  avg # of iterations =  1.2

     total cpu time spent up to now is       55.9 secs

     total energy              =    -723.18894157 Ry
     estimated scf accuracy    <       0.00768277 Ry

     iteration # 10     ecut=    50.00 Ry     beta= 0.30
     Davidson diagonalization with overlap
     ethr =  1.07E-05,  avg # of iterations =  3.4

     total cpu time spent up to now is       61.4 secs

     total energy              =    -723.19016090 Ry
     estimated scf accuracy    <       0.00066676 Ry

     iteration # 11     ecut=    50.00 Ry     beta= 0.30
     Davidson diagonalization with overlap
     ethr =  9.26E-07,  avg # of iterations =  6.5

     total cpu time spent up to now is       70.3 secs

     total energy              =    -723.19092071 Ry
     estimated scf accuracy    <       0.00008695 Ry

     iteration # 12     ecut=    50.00 Ry     beta= 0.30
     Davidson diagonalization with overlap
     ethr =  1.21E-07,  avg # of iterations =  4.0

     total cpu time spent up to now is       75.6 secs

     total energy              =    -723.19085694 Ry
     estimated scf accuracy    <       0.00011214 Ry

     iteration # 13     ecut=    50.00 Ry     beta= 0.30
     Davidson diagonalization with overlap
     ethr =  1.21E-07,  avg # of iterations =  5.6

     total cpu time spent up to now is       83.5 secs

     total energy              =    -723.19090995 Ry
     estimated scf accuracy    <       0.00002273 Ry

     iteration # 14     ecut=    50.00 Ry     beta= 0.30
     Davidson diagonalization with overlap
     ethr =  3.16E-08,  avg # of iterations =  4.1

     total cpu time spent up to now is       89.4 secs

     total energy              =    -723.19090622 Ry
     estimated scf accuracy    <       0.00004820 Ry

     iteration # 15     ecut=    50.00 Ry     beta= 0.30
     Davidson diagonalization with overlap
     ethr =  3.16E-08,  avg # of iterations =  1.1

     total cpu time spent up to now is       93.2 secs

     total energy              =    -723.19090355 Ry
     estimated scf accuracy    <       0.00003439 Ry

     iteration # 16     ecut=    50.00 Ry     beta= 0.30
     Davidson diagonalization with overlap
     ethr =  3.16E-08,  avg # of iterations =  1.0

     total cpu time spent up to now is       97.0 secs

     total energy              =    -723.19090354 Ry
     estimated scf accuracy    <       0.00002461 Ry

     iteration # 17     ecut=    50.00 Ry     beta= 0.30
     Davidson diagonalization with overlap
     ethr =  3.16E-08,  avg # of iterations =  1.0

     total cpu time spent up to now is      100.8 secs

     total energy              =    -723.19090218 Ry
     estimated scf accuracy    <       0.00002298 Ry

     iteration # 18     ecut=    50.00 Ry     beta= 0.30
     Davidson diagonalization with overlap
     ethr =  3.16E-08,  avg # of iterations =  1.0

     total cpu time spent up to now is      104.6 secs

     total energy              =    -723.19090019 Ry
     estimated scf accuracy    <       0.00001827 Ry

     iteration # 19     ecut=    50.00 Ry     beta= 0.30
     Davidson diagonalization with overlap
     ethr =  2.54E-08,  avg # of iterations =  1.0

     total cpu time spent up to now is      108.3 secs

     total energy              =    -723.19089404 Ry
     estimated scf accuracy    <       0.00001145 Ry

     iteration # 20     ecut=    50.00 Ry     beta= 0.30
     Davidson diagonalization with overlap
     ethr =  1.59E-08,  avg # of iterations =  4.8

     total cpu time spent up to now is      115.4 secs

     total energy              =    -723.19089836 Ry
     estimated scf accuracy    <       0.00000152 Ry

     iteration # 21     ecut=    50.00 Ry     beta= 0.30
     Davidson diagonalization with overlap
     ethr =  2.11E-09,  avg # of iterations =  3.5

     total cpu time spent up to now is      120.7 secs

     total energy              =    -723.19089829 Ry
     estimated scf accuracy    <       0.00000050 Ry

     iteration # 22     ecut=    50.00 Ry     beta= 0.30
     Davidson diagonalization with overlap
     ethr =  6.88E-10,  avg # of iterations =  6.2

     total cpu time spent up to now is      128.9 secs

     total energy              =    -723.19089878 Ry
     estimated scf accuracy    <       0.00000027 Ry

     iteration # 23     ecut=    50.00 Ry     beta= 0.30
     Davidson diagonalization with overlap
     ethr =  3.71E-10,  avg # of iterations =  2.2

     total cpu time spent up to now is      133.3 secs

     total energy              =    -723.19089914 Ry
     estimated scf accuracy    <       0.00000045 Ry

     iteration # 24     ecut=    50.00 Ry     beta= 0.30
     Davidson diagonalization with overlap
     ethr =  3.71E-10,  avg # of iterations =  6.5

     total cpu time spent up to now is      141.7 secs

     total energy              =    -723.19089849 Ry
     estimated scf accuracy    <       0.00000228 Ry

     iteration # 25     ecut=    50.00 Ry     beta= 0.30
     Davidson diagonalization with overlap
     ethr =  3.71E-10,  avg # of iterations =  6.3

     total cpu time spent up to now is      150.3 secs

     total energy              =    -723.19089863 Ry
     estimated scf accuracy    <       0.00000026 Ry

     iteration # 26     ecut=    50.00 Ry     beta= 0.30
     Davidson diagonalization with overlap
     ethr =  3.61E-10,  avg # of iterations =  1.9

     total cpu time spent up to now is      154.4 secs

     total energy              =    -723.19089862 Ry
     estimated scf accuracy    <       0.00000013 Ry

     iteration # 27     ecut=    50.00 Ry     beta= 0.30
     Davidson diagonalization with overlap
     ethr =  1.78E-10,  avg # of iterations =  2.8

     total cpu time spent up to now is      159.4 secs

     total energy              =    -723.19089862 Ry
     estimated scf accuracy    <       0.00000004 Ry

     iteration # 28     ecut=    50.00 Ry     beta= 0.30
     Davidson diagonalization with overlap
     ethr =  5.30E-11,  avg # of iterations =  5.8

     total cpu time spent up to now is      167.0 secs

     End of self-consistent calculation

          k = 0.0000 0.0000 0.0000 (  3419 PWs)   bands (ev):

    -9.9271  -9.0856  -8.8582  -8.7514   2.5382   2.5389   2.7985   2.7986
     2.8594   2.9463   2.9465   3.2272   3.2431   3.4263   3.7117   4.0044
     4.3496   4.3496   4.4744   4.5360   4.6916   4.6917   4.7365   4.7589
     5.0168   5.0833   5.4183   6.1006   6.3034   7.7952   7.9742   8.1769
     8.1771   8.8808   9.1181   9.1183

          k = 0.0000 0.0000 0.2244 (  3398 PWs)   bands (ev):

    -9.8588  -9.0570  -8.9327  -8.7668   2.4225   2.4466   2.7322   2.7959
     2.7960   2.9235   2.9236   3.1179   3.2629   3.3631   3.6654   3.8301
     4.3857   4.3858   4.5448   4.5484   4.6832   4.6832   4.7259   4.7713
     5.0750   5.3316   5.4345   6.4469   6.5103   7.8785   7.9565   8.2424
     8.2426   8.4176   9.0590   9.0592

          k = 0.0000 0.0000 0.4489 (  3428 PWs)   bands (ev):

    -9.6697  -9.1346  -8.9829  -8.8143   2.2061   2.2481   2.5910   2.7982
     2.7983   2.8663   2.8714   2.8715   3.3239   3.3310   3.5522   3.5712
     4.4736   4.4736   4.5699   4.6466   4.6466   4.6572   4.6633   4.7752
     5.1702   5.2642   6.1859   6.7983   7.2891   7.6103   7.7219   8.1577
     8.4206   8.4208   8.8938   8.8940

          k = 0.0000 0.0000-0.6733 (  3396 PWs)   bands (ev):

    -9.4054  -9.4054  -8.8919  -8.8919   2.1264   2.1264   2.6431   2.6431
     2.8231   2.8231   2.8233   2.8233   3.4016   3.4016   3.4251   3.4251
     4.5735   4.5735   4.5735   4.5735   4.6094   4.6094   4.7340   4.7340
     5.2278   5.2278   6.9870   6.9870   7.2227   7.2227   7.9474   7.9474
     8.6606   8.6606   8.6608   8.6608

          k = 0.0000 0.3849 0.0000 (  3405 PWs)   bands (ev):

    -9.7532  -9.0969  -8.8040  -8.7444   2.6060   2.6166   2.8354   2.8789
     2.9206   3.0756   3.0942   3.1617   3.3257   3.3493   3.7590   3.9688
     4.2585   4.2790   4.3377   4.4753   4.7143   4.7560   4.8415   4.8418
     5.0517   5.0687   5.6357   5.8039   6.3640   7.2397   7.5650   7.7354
     7.7938   7.9979   8.6938   8.8598

          k = 0.0000 0.3849 0.2244 (  3401 PWs)   bands (ev):

    -9.6908  -9.0672  -8.8680  -8.7611   2.5370   2.5682   2.6962   2.7094
     2.9200   3.0548   3.0695   3.1645   3.2372   3.3057   3.6378   3.7678
     4.3374   4.3734   4.3747   4.5277   4.6996   4.7330   4.7736   4.9119
     5.1059   5.4903   5.6634   5.9116   6.6599   7.3237   7.4743   7.7711
     7.8153   7.9547   8.7576   8.7896

          k = 0.0000 0.3849 0.4489 (  3404 PWs)   bands (ev):

    -9.5192  -9.0432  -8.9900  -8.8123   2.3626   2.4214   2.4413   2.5099
     2.9273   3.0126   3.0137   3.0857   3.1874   3.2599   3.4752   3.5757
     4.4622   4.4642   4.4990   4.5533   4.6507   4.7016   4.7344   4.8804
     5.2875   5.5773   6.2259   6.2755   7.0999   7.2918   7.4447   7.6976
     8.0304   8.1842   8.5936   8.5995

          k = 0.0000 0.3849-0.6733 (  3416 PWs)   bands (ev):

    -9.2821  -9.2821  -8.8947  -8.8947   2.2833   2.2833   2.4037   2.4037
     2.9578   2.9578   3.0089   3.0089   3.2258   3.2258   3.4602   3.4602
     4.5489   4.5489   4.5658   4.5658   4.5972   4.5972   4.8007   4.8007
     5.4496   5.4496   6.7162   6.7162   6.8490   6.8490   8.0250   8.0250
     8.1556   8.1556   8.3167   8.3167

          k = 0.0000 0.7698 0.0000 (  3411 PWs)   bands (ev):

    -9.3523  -9.0969  -8.7444  -8.7312   2.3983   2.6166   2.7676   2.8354
     3.1516   3.1616   3.3493   3.3532   3.4599   3.7589   3.7600   3.9688
     4.1824   4.2586   4.4106   4.4753   4.7464   4.7560   4.8416   4.8930
     5.0517   5.1977   5.6356   5.8040   5.8627   6.3640   6.6331   6.8277
     7.5649   7.7939   8.1877   8.2906

          k = 0.0000 0.7698 0.2244 (  3412 PWs)   bands (ev):

    -9.3072  -9.0672  -8.7681  -8.7611   2.3423   2.5371   2.6135   2.6963
     3.1613   3.1645   3.2748   3.3057   3.4259   3.5780   3.6377   3.7678
     4.3092   4.3747   4.4338   4.5277   4.7214   4.7330   4.8784   4.9119
     5.1059   5.4317   5.6634   5.9116   6.0514   6.6119   6.6599   6.9410
     7.4742   7.9547   8.2028   8.3085

          k = 0.0000 0.7698 0.4489 (  3413 PWs)   bands (ev):

    -9.1859  -8.9900  -8.8733  -8.8123   2.2195   2.3310   2.3626   2.4215
     3.1873   3.1947   3.2093   3.2600   3.3449   3.3632   3.4752   3.5757
     4.4954   4.4966   4.4990   4.5533   4.6581   4.7344   4.7970   4.8805
     5.2876   5.5774   5.7075   6.1122   6.2755   7.0998   7.1305   7.2343
     7.4447   7.9574   8.1842   8.3391

          k = 0.0000 0.7698-0.6733 (  3422 PWs)   bands (ev):

    -9.0256  -9.0256  -8.8947  -8.8947   2.1803   2.1803   2.2834   2.2834
     3.2258   3.2258   3.2389   3.2389   3.2582   3.2582   3.4602   3.4602
     4.5489   4.5489   4.5766   4.5766   4.6653   4.6653   4.8007   4.8007
     5.4497   5.4497   5.9266   5.9266   6.7161   6.7161   7.6072   7.6072
     7.9109   7.9109   8.0250   8.0250

          k = 0.0000-1.1547 0.0000 (  3412 PWs)   bands (ev):

    -9.0856  -9.0856  -8.7514  -8.7514   2.5382   2.5382   2.5390   2.5390
     3.2429   3.2429   3.4263   3.4263   3.7116   3.7116   4.0045   4.0045
     4.4745   4.4745   4.5360   4.5360   4.7365   4.7365   4.7589   4.7589
     5.0168   5.0168   5.4184   5.4184   6.1006   6.1006   6.3033   6.3033
     7.7951   7.7951   7.9740   7.9740

          k = 0.0000-1.1547 0.2244 (  3408 PWs)   bands (ev):

    -9.0570  -9.0570  -8.7668  -8.7667   2.4226   2.4226   2.4466   2.4466
     3.2628   3.2628   3.3631   3.3632   3.6653   3.6653   3.8302   3.8302
     4.5448   4.5448   4.5484   4.5484   4.7259   4.7259   4.7714   4.7714
     5.0750   5.0750   5.3317   5.3317   6.4467   6.4467   6.5103   6.5103
     7.8783   7.8783   7.9565   7.9565

          k = 0.0000-1.1547 0.4489 (  3420 PWs)   bands (ev):

    -8.9829  -8.9829  -8.8143  -8.8143   2.2062   2.2062   2.2482   2.2482
     3.3238   3.3238   3.3311   3.3311   3.5520   3.5521   3.5712   3.5712
     4.5699   4.5699   4.6573   4.6573   4.6633   4.6633   4.7752   4.7752
     5.1702   5.1702   5.2642   5.2642   6.7982   6.7982   7.2891   7.2891
     7.6101   7.6101   8.1577   8.1577

          k = 0.0000-1.1547-0.6733 (  3440 PWs)   bands (ev):

    -8.8920  -8.8919  -8.8919  -8.8919   2.1265   2.1265   2.1265   2.1265
     3.4016   3.4016   3.4016   3.4016   3.4250   3.4250   3.4250   3.4250
     4.6095   4.6095   4.6095   4.6095   4.7341   4.7341   4.7341   4.7341
     5.2279   5.2279   5.2279   5.2279   7.2226   7.2226   7.2226   7.2226
     7.9474   7.9474   7.9474   7.9474

          k = 0.1667 0.0962 0.0000 (  3403 PWs)   bands (ev):

    -9.8817  -9.1677  -8.8430  -8.7361   2.4268   2.6698   2.7412   2.8310
     2.8888   2.9551   2.9849   3.2206   3.2540   3.4067   3.6376   3.9775
     4.3050   4.3303   4.3441   4.4921   4.6987   4.7340   4.7559   4.8888
     4.9358   5.0771   5.6932   6.1388   6.4538   7.9113   7.9175   8.0579
     8.0617   8.6674   8.8333   9.0509

          k = 0.1667 0.0962 0.2244 (  3398 PWs)   bands (ev):

    -9.8149  -9.1333  -8.9149  -8.7585   2.3514   2.5360   2.7074   2.7435
     2.8288   2.9570   2.9615   3.1552   3.2376   3.3368   3.5954   3.7674
     4.3716   4.3802   4.4151   4.5055   4.6881   4.7092   4.7261   4.8756
     5.0860   5.4476   5.6581   6.4606   6.5869   7.9682   7.9803   8.0684
     8.1273   8.2359   8.9384   8.9886

          k = 0.1667 0.0962 0.4489 (  3422 PWs)   bands (ev):

    -9.6301  -9.1100  -9.0429  -8.8253   2.1935   2.2797   2.5439   2.6689
     2.8324   2.9083   2.9178   2.9704   3.2900   3.2917   3.4930   3.5075
     4.4694   4.4702   4.5427   4.5728   4.6480   4.6618   4.6625   4.8080
     5.2855   5.5601   6.2028   6.9198   7.2241   7.6294   7.7061   8.2001
     8.2180   8.3157   8.7861   8.8145

          k = 0.1667 0.0962-0.6733 (  3410 PWs)   bands (ev):

    -9.3727  -9.3727  -8.9281  -8.9281   2.1372   2.1373   2.5517   2.5517
     2.8583   2.8583   2.8973   2.8973   3.3494   3.3494   3.3795   3.3795
     4.5707   4.5707   4.5788   4.5788   4.5976   4.5976   4.7068   4.7068
     5.4373   5.4373   6.9699   6.9699   7.3291   7.3291   7.9340   7.9340
     8.4944   8.4944   8.5688   8.5688

          k = 0.1667 0.4811 0.0000 (  3402 PWs)   bands (ev):

    -9.6358  -9.2695  -8.7740  -8.7271   2.5251   2.5387   2.8243   2.8474
     2.9688   3.1431   3.1613   3.2406   3.2953   3.4015   3.6147   3.7352
     4.2200   4.2489   4.3355   4.4226   4.7246   4.7514   4.9056   4.9305
     5.0974   5.1761   5.9671   6.2353   6.4801   6.8113   7.2676   7.6575
     7.8934   8.0774   8.5667   8.6362

          k = 0.1667 0.4811 0.2244 (  3408 PWs)   bands (ev):

    -9.5779  -9.2288  -8.8305  -8.7580   2.4644   2.4988   2.6726   2.6780
     2.9829   3.1254   3.1413   3.1777   3.2479   3.3184   3.4692   3.6226
     4.3200   4.3238   4.3734   4.4696   4.7069   4.7271   4.8208   4.9172
     5.3797   5.5338   6.0993   6.4334   6.4754   6.9204   7.2660   7.5743
     7.7913   8.2204   8.5547   8.6467

          k = 0.1667 0.4811 0.4489 (  3408 PWs)   bands (ev):

    -9.4193  -9.1202  -8.9866  -8.8470   2.3248   2.3841   2.3948   2.4264
     2.9920   3.0531   3.1127   3.1334   3.1848   3.1880   3.3451   3.4768
     4.4606   4.4673   4.4943   4.5270   4.6524   4.6816   4.7364   4.8322
     5.6500   6.0476   6.1965   6.6686   6.9774   7.1546   7.3874   7.5515
     7.7222   8.3280   8.3349   8.5314

          k = 0.1667 0.4811-0.6733 (  3400 PWs)   bands (ev):

    -9.2024  -9.2024  -8.9787  -8.9787   2.2584   2.2584   2.3243   2.3243
     3.0072   3.0072   3.1126   3.1126   3.1428   3.1428   3.3693   3.3693
     4.5626   4.5626   4.5715   4.5715   4.6192   4.6192   4.7129   4.7129
     5.8641   5.8641   6.6588   6.6588   7.0601   7.0601   7.9697   7.9697
     8.0004   8.0004   8.0819   8.0819

          k = 0.1667 0.8660 0.0000 (  3414 PWs)   bands (ev):

    -9.2327  -9.2326  -8.7295  -8.7295   2.4451   2.4451   2.7614   2.7614
     3.1648   3.1648   3.3694   3.3694   3.5993   3.5993   3.8865   3.8865
     4.2142   4.2142   4.4533   4.4533   4.7533   4.7533   4.9082   4.9082
     5.0735   5.0735   5.8025   5.8025   6.2968   6.2968   6.4634   6.4634
     7.9842   7.9842   8.0609   8.0609

          k = 0.1667 0.8660 0.2244 (  3406 PWs)   bands (ev):

    -9.1942  -9.1942  -8.7573  -8.7573   2.3798   2.3798   2.6131   2.6131
     3.1759   3.1759   3.3107   3.3107   3.5323   3.5323   3.6833   3.6833
     4.3430   4.3430   4.4827   4.4827   4.7265   4.7265   4.9013   4.9013
     5.2360   5.2360   5.8974   5.8974   6.4237   6.4237   6.6195   6.6195
     7.9256   7.9256   8.1668   8.1668

          k = 0.1667 0.8660 0.4489 (  3418 PWs)   bands (ev):

    -9.0919  -9.0919  -8.8384  -8.8384   2.2383   2.2383   2.3346   2.3346
     3.1994   3.1994   3.2721   3.2721   3.3974   3.3974   3.4836   3.4836
     4.5105   4.5105   4.5388   4.5388   4.6723   4.6723   4.8209   4.8209
     5.4675   5.4675   5.8217   5.8217   6.8448   6.8448   7.2221   7.2221
     7.6654   7.6654   8.2818   8.2819

          k = 0.1667 0.8660-0.6733 (  3416 PWs)   bands (ev):

    -8.9599  -8.9599  -8.9599  -8.9599   2.1866   2.1866   2.1867   2.1867
     3.2451   3.2451   3.2451   3.2451   3.3704   3.3704   3.3704   3.3704
     4.5817   4.5817   4.5817   4.5817   4.7041   4.7041   4.7041   4.7041
     5.6588   5.6588   5.6588   5.6588   7.2606   7.2606   7.2606   7.2606
     7.9637   7.9637   7.9637   7.9637

          k = 0.1667-1.0585 0.0000 (  3412 PWs)   bands (ev):

    -9.0894  -9.0894  -8.7490  -8.7490   2.5308   2.5308   2.6635   2.6635
     3.2134   3.2134   3.3957   3.3957   3.7293   3.7293   4.0164   4.0164
     4.3870   4.3870   4.5011   4.5011   4.7552   4.7552   4.7749   4.7749
     5.0327   5.0327   5.5344   5.5344   5.9380   5.9380   6.3548   6.3548
     7.7376   7.7376   7.8952   7.8952

          k = 0.1667-1.0585 0.2244 (  3414 PWs)   bands (ev):

    -9.0605  -9.0605  -8.7648  -8.7648   2.4418   2.4418   2.5386   2.5386
     3.2306   3.2306   3.3419   3.3419   3.6669   3.6669   3.8149   3.8149
     4.4690   4.4690   4.5393   4.5393   4.7314   4.7314   4.8137   4.8137
     5.0846   5.0846   5.4500   5.4500   6.2015   6.2015   6.6358   6.6358
     7.7265   7.7265   7.9715   7.9715

          k = 0.1667-1.0585 0.4489 (  3432 PWs)   bands (ev):

    -8.9853  -8.9853  -8.8136  -8.8136   2.2526   2.2526   2.3019   2.3019
     3.2790   3.2790   3.3151   3.3151   3.5325   3.5325   3.5680   3.5681
     4.5517   4.5517   4.5850   4.5850   4.7115   4.7115   4.8111   4.8111
     5.1959   5.1959   5.3669   5.3669   6.6132   6.6132   7.3377   7.3377
     7.4663   7.4663   8.1715   8.1715

          k = 0.1667-1.0585-0.6733 (  3428 PWs)   bands (ev):

    -8.8929  -8.8928  -8.8928  -8.8928   2.1743   2.1743   2.1744   2.1744
     3.3362   3.3362   3.3362   3.3362   3.4479   3.4479   3.4479   3.4479
     4.5842   4.5842   4.5842   4.5842   4.7604   4.7604   4.7604   4.7604
     5.2918   5.2918   5.2918   5.2918   7.0543   7.0543   7.0543   7.0543
     7.9819   7.9819   7.9819   7.9820

          k = 0.1667-0.6736 0.0000 (  3414 PWs)   bands (ev):

    -9.4344  -8.9671  -8.7860  -8.7381   2.4498   2.8158   2.8418   2.9747
     3.0780   3.1523   3.2871   3.3618   3.4254   3.6092   3.9149   4.0583
     4.2034   4.3000   4.3753   4.4362   4.5949   4.6694   4.7406   4.9117
     5.0274   5.2105   5.2955   5.5969   6.1154   6.6549   6.8027   6.9895
     7.1330   7.4565   8.3058   8.3258

          k = 0.1667-0.6736 0.2244 (  3413 PWs)   bands (ev):

    -9.3853  -8.9479  -8.7906  -8.7811   2.3992   2.6517   2.7578   2.8551
     3.0880   3.1068   3.2349   3.3208   3.3473   3.4859   3.7362   3.8267
     4.3049   4.3641   4.4095   4.4999   4.6923   4.7179   4.7942   4.8724
     5.2005   5.3063   5.5393   5.5705   6.2808   6.7882   6.8799   7.0177
     7.0891   7.6643   8.2275   8.4231

          k = 0.1667-0.6736 0.4489 (  3413 PWs)   bands (ev):

    -9.2521  -8.9018  -8.9003  -8.8089   2.2807   2.3696   2.5468   2.5747
     3.0995   3.1085   3.1691   3.2466   3.2472   3.3387   3.5700   3.6241
     4.4082   4.4783   4.4855   4.4871   4.6586   4.7862   4.8428   4.9629
     5.2567   5.4182   5.7426   5.9271   6.3997   6.6440   7.1243   7.2932
     7.6177   7.9804   8.0277   8.4122

          k = 0.1667-0.6736-0.6733 (  3406 PWs)   bands (ev):

    -9.0739  -9.0739  -8.8473  -8.8473   2.2326   2.2326   2.4386   2.4386
     3.1224   3.1224   3.1682   3.1682   3.2485   3.2485   3.5402   3.5402
     4.4509   4.4509   4.5684   4.5684   4.6566   4.6566   4.9525   4.9525
     5.3413   5.3413   6.1879   6.1880   6.1953   6.1953   7.6039   7.6039
     7.9625   7.9625   8.0636   8.0636

          k = 0.1667-0.2887 0.0000 (  3403 PWs)   bands (ev):

    -9.7947  -9.0158  -8.8160  -8.7680   2.6588   2.6927   2.8239   2.8509
     2.9062   3.0494   3.0505   3.1637   3.3017   3.3504   3.8278   4.0736
     4.2981   4.3352   4.3831   4.4378   4.6526   4.7091   4.7622   4.8106
     5.0688   5.2922   5.3112   5.5111   6.5127   7.3923   7.4940   7.6721
     7.7511   8.2221   8.7427   8.9024

          k = 0.1667-0.2887 0.2244 (  3399 PWs)   bands (ev):

    -9.7308  -8.9924  -8.8825  -8.7772   2.6053   2.6322   2.6797   2.6938
     2.8931   3.0237   3.0327   3.1731   3.2134   3.3157   3.7307   3.8330
     4.3498   4.3723   4.4724   4.4984   4.6957   4.7162   4.7549   4.7669
     5.2852   5.2950   5.4758   5.7190   6.8258   7.3181   7.5825   7.7570
     7.8223   8.0133   8.8153   8.8337

          k = 0.1667-0.2887 0.4489 (  3401 PWs)   bands (ev):

    -9.5548  -9.0642  -8.9332  -8.8082   2.4093   2.4132   2.4802   2.5456
     2.8950   2.9621   2.9942   3.0617   3.2108   3.2861   3.5766   3.5899
     4.4628   4.4664   4.5004   4.5280   4.6497   4.6897   4.8293   4.8295
     5.2668   5.2726   6.1316   6.2242   7.0204   7.4190   7.5007   7.8490
     8.1036   8.1038   8.6425   8.6609

          k = 0.1667-0.2887-0.6733 (  3418 PWs)   bands (ev):

    -9.3110  -9.3110  -8.8636  -8.8636   2.3000   2.3000   2.4460   2.4460
     2.9147   2.9147   2.9874   2.9874   3.2627   3.2627   3.5029   3.5029
     4.5182   4.5182   4.5663   4.5663   4.5920   4.5920   4.8677   4.8677
     5.2627   5.2627   6.5911   6.5911   6.9031   6.9031   8.0363   8.0363
     8.2567   8.2567   8.3792   8.3792

          k = 0.3333 0.1925 0.0000 (  3406 PWs)   bands (ev):

    -9.7532  -9.3523  -8.8040  -8.7312   2.3982   2.6059   2.7675   2.8788
     2.9207   3.0756   3.0943   3.1517   3.3257   3.3532   3.4600   3.7600
     4.1824   4.2790   4.3376   4.4105   4.7143   4.7464   4.8418   4.8931
     5.0687   5.1977   5.8627   6.6330   6.8278   7.2396   7.7356   7.9978
     8.1878   8.2908   8.6938   8.8600

          k = 0.3333 0.1925 0.2244 (  3397 PWs)   bands (ev):

    -9.6908  -9.3072  -8.8680  -8.7681   2.3422   2.5681   2.6135   2.7094
     2.9202   3.0547   3.0696   3.1614   3.2372   3.2748   3.4260   3.5780
     4.3092   4.3374   4.3734   4.4338   4.6996   4.7214   4.7736   4.8784
     5.4316   5.4903   6.0513   6.6119   6.9411   7.3236   7.7711   7.8154
     8.2030   8.3085   8.7575   8.7898

          k = 0.3333 0.1925 0.4489 (  3405 PWs)   bands (ev):

    -9.5192  -9.1859  -9.0432  -8.8733   2.2194   2.3310   2.4412   2.5098
     2.9274   3.0127   3.0136   3.0857   3.1948   3.2092   3.3450   3.3632
     4.4622   4.4642   4.4954   4.4966   4.6507   4.6581   4.7016   4.7970
     5.7075   6.1121   6.2259   7.1305   7.2344   7.2918   7.6975   7.9576
     8.0305   8.3391   8.5938   8.5994

          k = 0.3333 0.1925-0.6733 (  3426 PWs)   bands (ev):

    -9.2821  -9.2821  -9.0256  -9.0256   2.1802   2.1802   2.4037   2.4037
     2.9579   2.9579   3.0089   3.0089   3.2389   3.2389   3.2583   3.2583
     4.5658   4.5658   4.5766   4.5766   4.5972   4.5972   4.6653   4.6653
     5.9266   5.9266   6.8489   6.8489   7.6073   7.6073   7.9109   7.9109
     8.1555   8.1555   8.3169   8.3169

          k = 0.3333 0.5774 0.0000 (  3406 PWs)   bands (ev):

    -9.4637  -9.4636  -8.7416  -8.7416   2.5020   2.5020   2.8218   2.8218
     3.0576   3.0576   3.2198   3.2198   3.4536   3.4536   3.5318   3.5318
     4.2271   4.2271   4.3542   4.3542   4.7374   4.7374   4.9213   4.9213
     5.2040   5.2040   6.3591   6.3591   6.6433   6.6434   7.1320   7.1320
     8.2750   8.2750   8.3606   8.3606

          k = 0.3333 0.5774 0.2244 (  3408 PWs)   bands (ev):

    -9.4131  -9.4131  -8.7866  -8.7866   2.4553   2.4553   2.6569   2.6569
     3.0684   3.0684   3.1726   3.1726   3.3333   3.3333   3.4560   3.4560
     4.3128   4.3128   4.3984   4.3984   4.7162   4.7162   4.8715   4.8715
     5.5653   5.5653   6.5404   6.5404   6.6693   6.6693   7.0686   7.0686
     8.1822   8.1822   8.4680   8.4680

          k = 0.3333 0.5774 0.4489 (  3406 PWs)   bands (ev):

    -9.2759  -9.2759  -8.9128  -8.9128   2.3390   2.3390   2.3789   2.3789
     3.0719   3.0719   3.0923   3.0923   3.2361   3.2361   3.3341   3.3341
     4.4787   4.4787   4.4793   4.4793   4.6593   4.6593   4.7837   4.7837
     6.0216   6.0216   6.5476   6.5476   7.1670   7.1670   7.2103   7.2103
     7.9326   7.9326   8.4478   8.4478

          k = 0.3333 0.5774-0.6733 (  3396 PWs)   bands (ev):

    -9.0916  -9.0916  -9.0916  -9.0916   2.2676   2.2676   2.2676   2.2676
     3.0634   3.0634   3.0634   3.0635   3.2487   3.2487   3.2487   3.2487
     4.5648   4.5648   4.5648   4.5648   4.6570   4.6570   4.6570   4.6570
     6.3120   6.3120   6.3120   6.3120   7.5375   7.5375   7.5375   7.5375
     7.9935   7.9935   7.9935   7.9935

          k = 0.3333-0.9623 0.0000 (  3410 PWs)   bands (ev):

    -9.0969  -9.0968  -8.7444  -8.7444   2.6167   2.6167   2.8354   2.8355
     3.1616   3.1616   3.3493   3.3493   3.7590   3.7590   3.9688   3.9688
     4.2585   4.2585   4.4753   4.4753   4.7560   4.7560   4.8416   4.8416
     5.0517   5.0517   5.6356   5.6356   5.8039   5.8039   6.3640   6.3640
     7.5648   7.5648   7.7938   7.7938

          k = 0.3333-0.9623 0.2244 (  3416 PWs)   bands (ev):

    -9.0672  -9.0672  -8.7611  -8.7611   2.5371   2.5371   2.6963   2.6963
     3.1644   3.1645   3.3057   3.3057   3.6378   3.6378   3.7678   3.7678
     4.3747   4.3747   4.5277   4.5277   4.7330   4.7330   4.9119   4.9119
     5.1059   5.1059   5.6634   5.6634   5.9116   5.9116   6.6599   6.6599
     7.4742   7.4742   7.9547   7.9547

          k = 0.3333-0.9623 0.4489 (  3412 PWs)   bands (ev):

    -8.9901  -8.9900  -8.8123  -8.8123   2.3626   2.3626   2.4215   2.4215
     3.1873   3.1873   3.2599   3.2599   3.4752   3.4752   3.5756   3.5756
     4.4990   4.4990   4.5534   4.5534   4.7344   4.7344   4.8805   4.8805
     5.2875   5.2875   5.5773   5.5773   6.2754   6.2754   7.0997   7.0998
     7.4447   7.4448   8.1842   8.1843

          k = 0.3333-0.9623-0.6733 (  3412 PWs)   bands (ev):

    -8.8947  -8.8947  -8.8947  -8.8946   2.2834   2.2834   2.2834   2.2834
     3.2258   3.2258   3.2258   3.2258   3.4601   3.4601   3.4601   3.4601
     4.5490   4.5490   4.5490   4.5490   4.8007   4.8007   4.8007   4.8007
     5.4496   5.4496   5.4497   5.4497   6.7161   6.7161   6.7161   6.7161
     8.0250   8.0250   8.0250   8.0250

          k = 0.3333-0.5774 0.0000 (  3422 PWs)   bands (ev):

    -9.4636  -8.8604  -8.8604  -8.7416   2.5021   2.8218   2.9630   3.0576
     3.0712   3.0712   3.2198   3.4536   3.4758   3.5318   4.1172   4.1172
     4.2270   4.2540   4.3543   4.3644   4.3645   4.4807   4.7374   4.9213
     4.9379   5.2040   5.4584   5.4584   6.3592   6.6433   6.9197   7.0656
     7.0656   7.1320   8.2749   8.3606

          k = 0.3333-0.5774 0.2244 (  3408 PWs)   bands (ev):

    -9.4131  -8.8529  -8.8529  -8.7866   2.4554   2.6569   2.9397   2.9397
     2.9791   3.0683   3.1726   3.3333   3.4022   3.4559   3.8159   3.8159
     4.2778   4.3128   4.3984   4.4681   4.6860   4.6860   4.7162   4.8715
     5.0882   5.4236   5.4236   5.5653   6.5405   6.6694   6.7853   7.0685
     7.3259   7.3259   8.1821   8.4680

          k = 0.3333-0.5774 0.4489 (  3404 PWs)   bands (ev):

    -9.2759  -8.9128  -8.8377  -8.8377   2.3391   2.3790   2.6618   2.6618
     3.0301   3.0718   3.0922   3.2361   3.2560   3.3341   3.6307   3.6307
     4.3271   4.4329   4.4787   4.4793   4.6593   4.7837   4.9495   4.9495
     5.3613   5.3613   5.4667   6.0216   6.4273   6.5477   7.1670   7.2102
     7.8292   7.8292   7.9325   8.4478

          k = 0.3333-0.5774-0.6733 (  3408 PWs)   bands (ev):

    -9.0916  -9.0916  -8.8300  -8.8300   2.2676   2.2676   2.5284   2.5285
     3.0634   3.0634   3.1226   3.1226   3.2487   3.2487   3.5848   3.5848
     4.3822   4.3822   4.5648   4.5648   4.6570   4.6570   5.0445   5.0445
     5.3268   5.3268   5.9499   5.9499   6.3121   6.3121   7.5374   7.5374
     7.9935   7.9935   8.0766   8.0766

          k =-0.5000-0.2887 0.0000 (  3412 PWs)   bands (ev):

    -9.5644  -9.5644  -8.7590  -8.7590   2.4694   2.4694   2.8322   2.8322
     3.0415   3.0415   3.2496   3.2496   3.2607   3.2607   3.4757   3.4757
     4.2169   4.2169   4.3541   4.3541   4.7317   4.7317   4.9128   4.9128
     5.1353   5.1353   6.4499   6.4499   7.2925   7.2925   7.3126   7.3126
     8.4700   8.4700   8.5844   8.5845

          k =-0.5000-0.2887 0.2244 (  3416 PWs)   bands (ev):

    -9.5095  -9.5094  -8.8108  -8.8108   2.4237   2.4237   2.6678   2.6678
     3.0444   3.0445   3.1813   3.1813   3.2329   3.2329   3.3695   3.3695
     4.3042   4.3042   4.3857   4.3857   4.7119   4.7119   4.8399   4.8399
     5.5496   5.5496   6.5714   6.5714   7.1708   7.1708   7.3873   7.3873
     8.5049   8.5049   8.5536   8.5536

          k =-0.5000-0.2887 0.4489 (  3420 PWs)   bands (ev):

    -9.3594  -9.3594  -8.9547  -8.9547   2.3120   2.3120   2.4005   2.4005
     3.0607   3.0607   3.1157   3.1157   3.1680   3.1680   3.2120   3.2120
     4.4665   4.4665   4.4677   4.4677   4.6537   4.6537   4.7529   4.7529
     6.1184   6.1184   6.7251   6.7251   7.2454   7.2454   7.6390   7.6390
     8.2828   8.2828   8.4607   8.4607

          k =-0.5000-0.2887-0.6733 (  3424 PWs)   bands (ev):

    -9.1556  -9.1556  -9.1556  -9.1555   2.2705   2.2705   2.2705   2.2705
     3.1026   3.1026   3.1026   3.1026   3.1217   3.1218   3.1218   3.1218
     4.5654   4.5654   4.5654   4.5654   4.6275   4.6275   4.6275   4.6275
     6.4770   6.4770   6.4770   6.4770   7.9441   7.9441   7.9441   7.9441
     7.9682   7.9682   7.9682   7.9682

          k =-0.5000-1.4434 0.0000 (  3390 PWs)   bands (ev):

    -9.1005  -9.1005  -8.7421  -8.7421   2.7003   2.7003   2.8548   2.8548
     3.2184   3.2184   3.3059   3.3059   3.7811   3.7811   3.8622   3.8622
     4.2516   4.2516   4.4605   4.4605   4.7562   4.7562   4.8828   4.8828
     5.0766   5.0766   5.4669   5.4669   5.9877   5.9877   6.3045   6.3045
     7.4609   7.4609   7.7599   7.7599

          k =-0.5000-1.4434 0.2244 (  3410 PWs)   bands (ev):

    -9.0705  -9.0705  -8.7593  -8.7593   2.6181   2.6181   2.7472   2.7472
     3.1850   3.1850   3.2562   3.2562   3.5806   3.5806   3.7512   3.7512
     4.3482   4.3482   4.5225   4.5225   4.7333   4.7333   4.9684   4.9684
     5.1441   5.1441   5.6048   5.6048   5.9441   5.9441   6.6091   6.6091
     7.3596   7.3596   7.9432   7.9432

          k =-0.5000-1.4434 0.4489 (  3400 PWs)   bands (ev):

    -8.9924  -8.9924  -8.8117  -8.8117   2.4368   2.4368   2.4834   2.4834
     3.1581   3.1581   3.1909   3.1909   3.4491   3.4491   3.5797   3.5797
     4.4765   4.4765   4.5457   4.5457   4.7421   4.7421   4.9121   4.9121
     5.3766   5.3766   5.6858   5.6858   6.1016   6.1016   6.9112   6.9112
     7.4664   7.4664   8.1874   8.1874

          k =-0.5000-1.4434-0.6733 (  3404 PWs)   bands (ev):

    -8.8956  -8.8956  -8.8956  -8.8956   2.3480   2.3480   2.3480   2.3480
     3.1633   3.1633   3.1633   3.1633   3.4638   3.4638   3.4638   3.4638
     4.5351   4.5351   4.5351   4.5351   4.8182   4.8182   4.8182   4.8182
     5.5592   5.5592   5.5592   5.5592   6.5244   6.5244   6.5244   6.5244
     8.0397   8.0397   8.0397   8.0397

          k = 0.3333-0.1925-0.2244 (  3401 PWs)   bands (ev):

    -9.6908  -9.0672  -8.8680  -8.7611   2.5370   2.5682   2.6962   2.7094
     2.9200   3.0548   3.0695   3.1645   3.2372   3.3057   3.6378   3.7678
     4.3374   4.3734   4.3747   4.5277   4.6996   4.7330   4.7736   4.9119
     5.1059   5.4903   5.6634   5.9116   6.6599   7.3237   7.4743   7.7711
     7.8153   7.9547   8.7576   8.7896

          k = 0.3333-0.1925-0.4489 (  3404 PWs)   bands (ev):

    -9.5192  -9.0432  -8.9900  -8.8123   2.3626   2.4214   2.4413   2.5099
     2.9273   3.0126   3.0137   3.0857   3.1874   3.2599   3.4752   3.5757
     4.4622   4.4642   4.4990   4.5533   4.6507   4.7016   4.7344   4.8804
     5.2875   5.5773   6.2259   6.2755   7.0999   7.2918   7.4447   7.6976
     8.0304   8.1842   8.5936   8.5995

          k = 0.6667-0.3849-0.2244 (  3412 PWs)   bands (ev):

    -9.3072  -9.0672  -8.7681  -8.7611   2.3423   2.5371   2.6135   2.6963
     3.1613   3.1645   3.2748   3.3057   3.4259   3.5780   3.6377   3.7678
     4.3092   4.3747   4.4338   4.5277   4.7214   4.7330   4.8784   4.9119
     5.1059   5.4317   5.6634   5.9116   6.0514   6.6119   6.6599   6.9410
     7.4742   7.9547   8.2028   8.3085

          k = 0.6667-0.3849-0.4489 (  3413 PWs)   bands (ev):

    -9.1859  -8.9900  -8.8733  -8.8123   2.2195   2.3310   2.3626   2.4215
     3.1873   3.1947   3.2093   3.2600   3.3449   3.3632   3.4752   3.5757
     4.4954   4.4966   4.4990   4.5533   4.6581   4.7344   4.7970   4.8805
     5.2876   5.5774   5.7075   6.1122   6.2755   7.0998   7.1305   7.2343
     7.4447   7.9574   8.1842   8.3391

          k = 0.1667 0.0962-0.2244 (  3398 PWs)   bands (ev):

    -9.8149  -9.1333  -8.9149  -8.7585   2.3514   2.5360   2.7074   2.7435
     2.8288   2.9570   2.9615   3.1552   3.2376   3.3368   3.5954   3.7674
     4.3716   4.3802   4.4151   4.5055   4.6881   4.7092   4.7261   4.8756
     5.0860   5.4476   5.6581   6.4606   6.5869   7.9682   7.9803   8.0684
     8.1273   8.2359   8.9384   8.9886

          k = 0.1667 0.0962-0.4489 (  3422 PWs)   bands (ev):

    -9.6301  -9.1100  -9.0429  -8.8253   2.1935   2.2797   2.5439   2.6689
     2.8324   2.9083   2.9178   2.9704   3.2900   3.2917   3.4930   3.5075
     4.4694   4.4702   4.5427   4.5728   4.6480   4.6618   4.6625   4.8080
     5.2855   5.5601   6.2028   6.9198   7.2241   7.6294   7.7061   8.2001
     8.2180   8.3157   8.7861   8.8145

          k = 0.5000-0.0962-0.2244 (  3408 PWs)   bands (ev):

    -9.5779  -9.2288  -8.8305  -8.7580   2.4644   2.4988   2.6726   2.6780
     2.9829   3.1254   3.1413   3.1777   3.2479   3.3184   3.4692   3.6226
     4.3200   4.3238   4.3734   4.4696   4.7069   4.7271   4.8208   4.9172
     5.3797   5.5338   6.0993   6.4334   6.4754   6.9204   7.2660   7.5743
     7.7913   8.2204   8.5547   8.6467

          k = 0.5000-0.0962-0.4489 (  3408 PWs)   bands (ev):

    -9.4193  -9.1202  -8.9866  -8.8470   2.3248   2.3841   2.3948   2.4264
     2.9920   3.0531   3.1127   3.1334   3.1848   3.1880   3.3451   3.4768
     4.4606   4.4673   4.4943   4.5270   4.6524   4.6816   4.7364   4.8322
     5.6500   6.0476   6.1965   6.6686   6.9774   7.1546   7.3874   7.5515
     7.7222   8.3280   8.3349   8.5314

          k =-0.8333 0.6736-0.2244 (  3414 PWs)   bands (ev):

    -9.0605  -9.0605  -8.7648  -8.7648   2.4418   2.4418   2.5386   2.5386
     3.2306   3.2306   3.3419   3.3419   3.6669   3.6669   3.8149   3.8149
     4.4690   4.4690   4.5393   4.5393   4.7314   4.7314   4.8137   4.8137
     5.0846   5.0846   5.4500   5.4500   6.2015   6.2015   6.6358   6.6358
     7.7265   7.7265   7.9715   7.9715

          k =-0.8333 0.6736-0.4489 (  3432 PWs)   bands (ev):

    -8.9853  -8.9853  -8.8136  -8.8136   2.2526   2.2526   2.3019   2.3019
     3.2790   3.2790   3.3151   3.3151   3.5325   3.5325   3.5680   3.5681
     4.5517   4.5517   4.5850   4.5850   4.7115   4.7115   4.8111   4.8111
     5.1959   5.1959   5.3669   5.3669   6.6132   6.6132   7.3377   7.3377
     7.4663   7.4663   8.1715   8.1715

          k =-0.5000 0.4811-0.2244 (  3413 PWs)   bands (ev):

    -9.3853  -8.9479  -8.7906  -8.7811   2.3992   2.6517   2.7578   2.8551
     3.0880   3.1068   3.2349   3.3208   3.3473   3.4859   3.7362   3.8267
     4.3049   4.3641   4.4095   4.4999   4.6923   4.7179   4.7942   4.8724
     5.2005   5.3063   5.5393   5.5705   6.2808   6.7882   6.8799   7.0177
     7.0891   7.6643   8.2275   8.4231

          k =-0.5000 0.4811-0.4489 (  3413 PWs)   bands (ev):

    -9.2521  -8.9018  -8.9003  -8.8089   2.2807   2.3696   2.5468   2.5747
     3.0995   3.1085   3.1691   3.2466   3.2472   3.3387   3.5700   3.6241
     4.4082   4.4783   4.4855   4.4871   4.6586   4.7862   4.8428   4.9629
     5.2567   5.4182   5.7426   5.9271   6.3997   6.6440   7.1243   7.2932
     7.6177   7.9804   8.0277   8.4122

          k = 0.3333 0.1925-0.2244 (  3397 PWs)   bands (ev):

    -9.6908  -9.3072  -8.8680  -8.7681   2.3422   2.5681   2.6135   2.7094
     2.9202   3.0547   3.0696   3.1614   3.2372   3.2748   3.4260   3.5780
     4.3092   4.3374   4.3734   4.4338   4.6996   4.7214   4.7736   4.8784
     5.4316   5.4903   6.0513   6.6119   6.9411   7.3236   7.7711   7.8154
     8.2030   8.3085   8.7575   8.7898

          k = 0.3333 0.1925-0.4489 (  3405 PWs)   bands (ev):

    -9.5192  -9.1859  -9.0432  -8.8733   2.2194   2.3310   2.4412   2.5098
     2.9274   3.0127   3.0136   3.0857   3.1948   3.2092   3.3450   3.3632
     4.4622   4.4642   4.4954   4.4966   4.6507   4.6581   4.7016   4.7970
     5.7075   6.1121   6.2259   7.1305   7.2344   7.2918   7.6975   7.9576
     8.0305   8.3391   8.5938   8.5994

          k =-0.6667 0.7698-0.2244 (  3416 PWs)   bands (ev):

    -9.0672  -9.0672  -8.7611  -8.7611   2.5371   2.5371   2.6963   2.6963
     3.1644   3.1645   3.3057   3.3057   3.6378   3.6378   3.7678   3.7678
     4.3747   4.3747   4.5277   4.5277   4.7330   4.7330   4.9119   4.9119
     5.1059   5.1059   5.6634   5.6634   5.9116   5.9116   6.6599   6.6599
     7.4742   7.4742   7.9547   7.9547

          k =-0.6667 0.7698-0.4489 (  3412 PWs)   bands (ev):

    -8.9901  -8.9900  -8.8123  -8.8123   2.3626   2.3626   2.4215   2.4215
     3.1873   3.1873   3.2599   3.2599   3.4752   3.4752   3.5756   3.5756
     4.4990   4.4990   4.5534   4.5534   4.7344   4.7344   4.8805   4.8805
     5.2875   5.2875   5.5774   5.5774   6.2754   6.2754   7.0997   7.0998
     7.4447   7.4448   8.1842   8.1842

     highest occupied level (ev):     9.1183

!    total energy              =    -723.19089864 Ry
     estimated scf accuracy    <          2.9E-09 Ry

     The total energy is the sum of the following terms:
     one-electron contribution =    -275.48939313 Ry
     hartree contribution      =     224.92053806 Ry
     xc contribution           =    -219.72053291 Ry
     ewald contribution        =    -452.90151066 Ry

     convergence has been achieved in  28 iterations

     Forces acting on atoms (cartesian axes, Ry/au):

     atom    1 type  1   force =    -0.00000795   -0.00000459    0.01157045
     atom    2 type  2   force =    -0.00000639   -0.00000369   -0.01156811
     atom    3 type  1   force =    -0.00000089   -0.00000052    0.01156686
     atom    4 type  2   force =     0.00000665    0.00000384   -0.01156930
     atom    5 type  1   force =     0.00000375    0.00000216    0.01157099
     atom    6 type  2   force =    -0.00000664   -0.00000384   -0.01156868
     atom    7 type  1   force =     0.00000448    0.00000259    0.01156671
     atom    8 type  2   force =     0.00000700    0.00000404   -0.01156892
     The non-local contrib.  to forces
     atom    1 type  1   force =     0.00002209    0.00001275    0.13243901
     atom    2 type  2   force =    -0.00015448   -0.00008919    0.09761451
     atom    3 type  1   force =    -0.00002623   -0.00001514    0.13243765
     atom    4 type  2   force =     0.00015613    0.00009014    0.09761586
     atom    5 type  1   force =     0.00002686    0.00001551    0.13243831
     atom    6 type  2   force =    -0.00015601   -0.00009007    0.09761439
     atom    7 type  1   force =    -0.00002326   -0.00001343    0.13243837
     atom    8 type  2   force =     0.00015375    0.00008877    0.09761615
     The ionic contribution  to forces
     atom    1 type  1   force =     0.00000000    0.00000000    0.89378767
     atom    2 type  2   force =    -0.00000000   -0.00000000   -0.89378767
     atom    3 type  1   force =    -0.00000000   -0.00000000    0.89378767
     atom    4 type  2   force =     0.00000000    0.00000000   -0.89378767
     atom    5 type  1   force =     0.00000000    0.00000000    0.89378767
     atom    6 type  2   force =    -0.00000000   -0.00000000   -0.89378767
     atom    7 type  1   force =    -0.00000000   -0.00000000    0.89378767
     atom    8 type  2   force =     0.00000000    0.00000000   -0.89378767
     The local contribution  to forces
     atom    1 type  1   force =    -0.00002544   -0.00001469   -1.00436049
     atom    2 type  2   force =     0.00015009    0.00008665    0.78530729
     atom    3 type  1   force =     0.00003669    0.00002118   -1.00435823
     atom    4 type  2   force =    -0.00014517   -0.00008381    0.78530822
     atom    5 type  1   force =    -0.00004028   -0.00002325   -1.00436034
     atom    6 type  2   force =     0.00014431    0.00008332    0.78530852
     atom    7 type  1   force =     0.00002964    0.00001711   -1.00435758
     atom    8 type  2   force =    -0.00014832   -0.00008563    0.78530874
     The core correction contribution to forces
     atom    1 type  1   force =     0.00000473    0.00000273   -0.01030258
     atom    2 type  2   force =     0.00000176    0.00000102   -0.00070107
     atom    3 type  1   force =    -0.00000477   -0.00000276   -0.01030231
     atom    4 type  2   force =    -0.00000177   -0.00000102   -0.00070110
     atom    5 type  1   force =     0.00000484    0.00000279   -0.01030250
     atom    6 type  2   force =     0.00000177    0.00000102   -0.00070106
     atom    7 type  1   force =    -0.00000477   -0.00000276   -0.01030242
     atom    8 type  2   force =    -0.00000174   -0.00000101   -0.00070110
     The Hubbard contrib.    to forces
     atom    1 type  1   force =     0.00000000    0.00000000    0.00000000
     atom    2 type  2   force =     0.00000000    0.00000000    0.00000000
     atom    3 type  1   force =     0.00000000    0.00000000    0.00000000
     atom    4 type  2   force =     0.00000000    0.00000000    0.00000000
     atom    5 type  1   force =     0.00000000    0.00000000    0.00000000
     atom    6 type  2   force =     0.00000000    0.00000000    0.00000000
     atom    7 type  1   force =     0.00000000    0.00000000    0.00000000
     atom    8 type  2   force =     0.00000000    0.00000000    0.00000000
     The SCF correction term to forces
     atom    1 type  1   force =    -0.00000950   -0.00000549    0.00000868
     atom    2 type  2   force =    -0.00000393   -0.00000227    0.00000066
     atom    3 type  1   force =    -0.00000675   -0.00000390    0.00000392
     atom    4 type  2   force =    -0.00000271   -0.00000157   -0.00000278
     atom    5 type  1   force =     0.00001215    0.00000702    0.00000969
     atom    6 type  2   force =     0.00000312    0.00000180   -0.00000104
     atom    7 type  1   force =     0.00000271    0.00000156    0.00000251
     atom    8 type  2   force =     0.00000315    0.00000182   -0.00000322

     Total force =     0.032721     Total SCF correction =     0.000026

     Writing all to output data dir ./ZnO-3.20-1.49-211.in.save/

     init_run     :      4.11s CPU      3.57s WALL (       1 calls)
     electrons    :    209.90s CPU    163.12s WALL (       1 calls)
     forces       :      1.05s CPU      0.84s WALL (       1 calls)

     Called by init_run:
     wfcinit      :      2.69s CPU      2.12s WALL (       1 calls)
     potinit      :      0.48s CPU      0.48s WALL (       1 calls)
     hinit0       :      0.80s CPU      0.82s WALL (       1 calls)

     Called by electrons:
     c_bands      :    183.33s CPU    141.44s WALL (      28 calls)
     sum_band     :     23.86s CPU     19.44s WALL (      28 calls)
     v_of_rho     :      0.95s CPU      0.81s WALL (      29 calls)
     newd         :      1.61s CPU      1.29s WALL (      29 calls)
     mix_rho      :      0.14s CPU      0.13s WALL (      28 calls)

     Called by c_bands:
     init_us_2    :      1.29s CPU      1.11s WALL (    2320 calls)
     init_us_2:cp :      1.28s CPU      1.10s WALL (    2320 calls)
     cegterg      :    169.98s CPU    130.30s WALL (    1120 calls)

     Called by *egterg:
     cdiaghg      :     24.08s CPU     18.90s WALL (    5071 calls)
     h_psi        :    118.26s CPU     96.34s WALL (    5111 calls)
     s_psi        :      7.18s CPU      3.86s WALL (    5111 calls)
     g_psi        :      0.58s CPU      0.37s WALL (    3951 calls)

     Called by h_psi:
     h_psi:calbec :      7.41s CPU      4.39s WALL (    5111 calls)
     vloc_psi     :    103.30s CPU     87.77s WALL (    5111 calls)
     add_vuspsi   :      7.25s CPU      3.95s WALL (    5111 calls)

     General routines
     calbec       :     10.07s CPU      5.91s WALL (    6391 calls)
     fft          :      0.81s CPU      0.77s WALL (     386 calls)
     ffts         :      0.18s CPU      0.18s WALL (      57 calls)
     fftw         :    106.06s CPU     91.27s WALL (  281088 calls)
     interpolate  :      0.20s CPU      0.20s WALL (      29 calls)

     Parallel routines

     PWSCF        :   3m35.67s CPU   2m48.36s WALL


   This run was terminated on:  13:59: 5  12Jul2025            

=------------------------------------------------------------------------------=
   JOB DONE.
=------------------------------------------------------------------------------=
Note: The following floating-point exceptions are signalling: IEEE_INVALID_FLAG
Note: The following floating-point exceptions are signalling: IEEE_INVALID_FLAG
