Authorization required, but no authorization protocol specified

Authorization required, but no authorization protocol specified

Authorization required, but no authorization protocol specified

Authorization required, but no authorization protocol specified

Authorization required, but no authorization protocol specified

Authorization required, but no authorization protocol specified

Authorization required, but no authorization protocol specified

Authorization required, but no authorization protocol specified

Authorization required, but no authorization protocol specified

Authorization required, but no authorization protocol specified

Authorization required, but no authorization protocol specified

Authorization required, but no authorization protocol specified

Authorization required, but no authorization protocol specified

Authorization required, but no authorization protocol specified

Authorization required, but no authorization protocol specified

Authorization required, but no authorization protocol specified

Authorization required, but no authorization protocol specified

Authorization required, but no authorization protocol specified


     Program PWSCF v.7.2 starts on 12Jul2025 at 13: 6:46 

     This program is part of the open-source Quantum ESPRESSO suite
     for quantum simulation of materials; please cite
         "P. Giannozzi et al., J. Phys.:Condens. Matter 21 395502 (2009);
         "P. Giannozzi et al., J. Phys.:Condens. Matter 29 465901 (2017);
         "P. Giannozzi et al., J. Chem. Phys. 152 154105 (2020);
          URL http://www.quantum-espresso.org", 
     in publications or presentations arising from this work. More details at
     http://www.quantum-espresso.org/quote

     Parallel version (MPI), running on    16 processors

     MPI processes distributed on     1 nodes
     48796 MiB available memory on the printing compute node when the environment starts

     Reading input from /home/jvc/QEspresso7.2/ZnO_database/scripts/cell211_strain10%.in/ZnO-3.07-1.71-211.in
Warning: card &CELL ignored
Warning: card / ignored
Warning: card &FCP ignored
Warning: card / ignored
Warning: card &RISM ignored
Warning: card / ignored

     Current dimensions of program PWSCF are:
     Max number of different atomic species (ntypx) = 10
     Max number of k-points (npk) =  40000
     Max angular momentum in pseudopotentials (lmaxx) =  4
     file Zn.upf: wavefunction(s)  3D renormalized
     Found identity + ( -0.5000  0.0000  0.0000) symmetry
     This is a supercell, fractional translations are disabled
     Message from routine setup:
     using ibrav=0 with symmetry is DISCOURAGED, use correct ibrav instead

     K-points division:     npool     =       2
     R & G space division:  proc/nbgrp/npool/nimage =       8
     Subspace diagonalization in iterative solution of the eigenvalue problem:
     a serial algorithm will be used


     Parallelization info
     --------------------
     sticks:   dense  smooth     PW     G-vecs:    dense   smooth      PW
     Min         231     116     36                 9808     3464     618
     Max         232     117     37                 9810     3467     623
     Sum        1853     931    295                78475    27727    4979

     Using Slab Decomposition



     bravais-lattice index     =            0
     lattice parameter (alat)  =      11.6162  a.u.
     unit-cell volume          =     580.7294 (a.u.)^3
     number of atoms/cell      =            8
     number of atomic types    =            2
     number of electrons       =        72.00
     number of Kohn-Sham states=           36
     kinetic-energy cutoff     =      50.0000  Ry
     charge density cutoff     =     400.0000  Ry
     scf convergence threshold =      1.0E-08
     mixing beta               =       0.3000
     number of iterations used =            8  plain     mixing
     Exchange-correlation= PBE
                           (   1   4   3   4   0   0   0)

     celldm(1)=  11.616245  celldm(2)=   0.000000  celldm(3)=   0.000000
     celldm(4)=   0.000000  celldm(5)=   0.000000  celldm(6)=   0.000000

     crystal axes: (cart. coord. in units of alat)
               a(1) = (   1.000000   0.000000   0.000000 )  
               a(2) = (  -0.250000   0.433013   0.000000 )  
               a(3) = (   0.000000   0.000000   0.855610 )  

     reciprocal axes: (cart. coord. in units 2 pi/alat)
               b(1) = (  1.000000  0.577350 -0.000000 )  
               b(2) = (  0.000000  2.309401  0.000000 )  
               b(3) = (  0.000000 -0.000000  1.168757 )  


     PseudoPot. # 1 for Zn read from file:
     /home/jvc/QEspresso7.2/ZnO_database/pseudos/Zn.upf
     MD5 check sum: 7f56cabf9682ed8c977c2f7d0c5985c5
     Pseudo is Ultrasoft + core correction, Zval = 12.0
     Generated using &quot;atomic&quot; code by A. Dal Corso  v.6.2.2
     Using radial grid of 1201 points,  6 beta functions with: 
                l(1) =   0
                l(2) =   0
                l(3) =   1
                l(4) =   1
                l(5) =   2
                l(6) =   2
     Q(r) pseudized with 0 coefficients 


     PseudoPot. # 2 for O  read from file:
     /home/jvc/QEspresso7.2/ZnO_database/pseudos/O.upf
     MD5 check sum: 91400c9766925bcf19f520983a725ff0
     Pseudo is Ultrasoft + core correction, Zval =  6.0
     Generated using &quot;atomic&quot; code by A. Dal Corso  v.6.3MaX
     Using radial grid of 1095 points,  4 beta functions with: 
                l(1) =   0
                l(2) =   0
                l(3) =   1
                l(4) =   1
     Q(r) pseudized with 0 coefficients 


     atomic species   valence    mass     pseudopotential
        Zn            12.00    65.38000     Zn( 1.00)
        O              6.00    15.99900     O ( 1.00)

      2 Sym. Ops. (no inversion) found



   Cartesian axes

     site n.     atom                  positions (alat units)
         1           Zn  tau(   1) = (   0.0000000   0.0000000   0.0000000  )
         2           O   tau(   2) = (   0.0000000   0.2886751   0.1165061  )
         3           Zn  tau(   3) = (   0.0000000   0.2886751   0.4278050  )
         4           O   tau(   4) = (   0.0000000   0.0000000   0.5443110  )
         5           Zn  tau(   5) = (   0.5000000   0.0000000   0.0000000  )
         6           O   tau(   6) = (   0.5000000   0.2886751   0.1165061  )
         7           Zn  tau(   7) = (   0.5000000   0.2886751   0.4278050  )
         8           O   tau(   8) = (   0.5000000   0.0000000   0.5443110  )

     number of k points=    80
                       cart. coord. in units 2pi/alat
        k(    1) = (   0.0000000   0.0000000   0.0000000), wk =   0.0092593
        k(    2) = (   0.0000000   0.0000000   0.1947928), wk =   0.0185185
        k(    3) = (   0.0000000   0.0000000   0.3895856), wk =   0.0185185
        k(    4) = (   0.0000000   0.0000000  -0.5843784), wk =   0.0092593
        k(    5) = (   0.0000000   0.3849002   0.0000000), wk =   0.0370370
        k(    6) = (   0.0000000   0.3849002   0.1947928), wk =   0.0370370
        k(    7) = (   0.0000000   0.3849002   0.3895856), wk =   0.0370370
        k(    8) = (   0.0000000   0.3849002  -0.5843784), wk =   0.0370370
        k(    9) = (   0.0000000   0.7698004   0.0000000), wk =   0.0370370
        k(   10) = (   0.0000000   0.7698004   0.1947928), wk =   0.0370370
        k(   11) = (   0.0000000   0.7698004   0.3895856), wk =   0.0370370
        k(   12) = (   0.0000000   0.7698004  -0.5843784), wk =   0.0370370
        k(   13) = (   0.0000000  -1.1547005   0.0000000), wk =   0.0092593
        k(   14) = (   0.0000000  -1.1547005   0.1947928), wk =   0.0185185
        k(   15) = (   0.0000000  -1.1547005   0.3895856), wk =   0.0185185
        k(   16) = (   0.0000000  -1.1547005  -0.5843784), wk =   0.0092593
        k(   17) = (   0.1666667   0.0962250   0.0000000), wk =   0.0185185
        k(   18) = (   0.1666667   0.0962250   0.1947928), wk =   0.0185185
        k(   19) = (   0.1666667   0.0962250   0.3895856), wk =   0.0185185
        k(   20) = (   0.1666667   0.0962250  -0.5843784), wk =   0.0185185
        k(   21) = (   0.1666667   0.4811252   0.0000000), wk =   0.0370370
        k(   22) = (   0.1666667   0.4811252   0.1947928), wk =   0.0370370
        k(   23) = (   0.1666667   0.4811252   0.3895856), wk =   0.0370370
        k(   24) = (   0.1666667   0.4811252  -0.5843784), wk =   0.0370370
        k(   25) = (   0.1666667   0.8660254   0.0000000), wk =   0.0185185
        k(   26) = (   0.1666667   0.8660254   0.1947928), wk =   0.0370370
        k(   27) = (   0.1666667   0.8660254   0.3895856), wk =   0.0370370
        k(   28) = (   0.1666667   0.8660254  -0.5843784), wk =   0.0185185
        k(   29) = (   0.1666667  -1.0584755   0.0000000), wk =   0.0185185
        k(   30) = (   0.1666667  -1.0584755   0.1947928), wk =   0.0185185
        k(   31) = (   0.1666667  -1.0584755   0.3895856), wk =   0.0185185
        k(   32) = (   0.1666667  -1.0584755  -0.5843784), wk =   0.0185185
        k(   33) = (   0.1666667  -0.6735753   0.0000000), wk =   0.0370370
        k(   34) = (   0.1666667  -0.6735753   0.1947928), wk =   0.0370370
        k(   35) = (   0.1666667  -0.6735753   0.3895856), wk =   0.0370370
        k(   36) = (   0.1666667  -0.6735753  -0.5843784), wk =   0.0370370
        k(   37) = (   0.1666667  -0.2886751   0.0000000), wk =   0.0185185
        k(   38) = (   0.1666667  -0.2886751   0.1947928), wk =   0.0370370
        k(   39) = (   0.1666667  -0.2886751   0.3895856), wk =   0.0370370
        k(   40) = (   0.1666667  -0.2886751  -0.5843784), wk =   0.0185185
        k(   41) = (   0.3333333   0.1924501   0.0000000), wk =   0.0185185
        k(   42) = (   0.3333333   0.1924501   0.1947928), wk =   0.0185185
        k(   43) = (   0.3333333   0.1924501   0.3895856), wk =   0.0185185
        k(   44) = (   0.3333333   0.1924501  -0.5843784), wk =   0.0185185
        k(   45) = (   0.3333333   0.5773503   0.0000000), wk =   0.0185185
        k(   46) = (   0.3333333   0.5773503   0.1947928), wk =   0.0370370
        k(   47) = (   0.3333333   0.5773503   0.3895856), wk =   0.0370370
        k(   48) = (   0.3333333   0.5773503  -0.5843784), wk =   0.0185185
        k(   49) = (   0.3333333  -0.9622504   0.0000000), wk =   0.0185185
        k(   50) = (   0.3333333  -0.9622504   0.1947928), wk =   0.0185185
        k(   51) = (   0.3333333  -0.9622504   0.3895856), wk =   0.0185185
        k(   52) = (   0.3333333  -0.9622504  -0.5843784), wk =   0.0185185
        k(   53) = (   0.3333333  -0.5773503   0.0000000), wk =   0.0185185
        k(   54) = (   0.3333333  -0.5773503   0.1947928), wk =   0.0370370
        k(   55) = (   0.3333333  -0.5773503   0.3895856), wk =   0.0370370
        k(   56) = (   0.3333333  -0.5773503  -0.5843784), wk =   0.0185185
        k(   57) = (  -0.5000000  -0.2886751   0.0000000), wk =   0.0092593
        k(   58) = (  -0.5000000  -0.2886751   0.1947928), wk =   0.0185185
        k(   59) = (  -0.5000000  -0.2886751   0.3895856), wk =   0.0185185
        k(   60) = (  -0.5000000  -0.2886751  -0.5843784), wk =   0.0092593
        k(   61) = (  -0.5000000  -1.4433757   0.0000000), wk =   0.0092593
        k(   62) = (  -0.5000000  -1.4433757   0.1947928), wk =   0.0185185
        k(   63) = (  -0.5000000  -1.4433757   0.3895856), wk =   0.0185185
        k(   64) = (  -0.5000000  -1.4433757  -0.5843784), wk =   0.0092593
        k(   65) = (   0.3333333  -0.1924501  -0.1947928), wk =   0.0370370
        k(   66) = (   0.3333333  -0.1924501  -0.3895856), wk =   0.0370370
        k(   67) = (   0.6666667  -0.3849002  -0.1947928), wk =   0.0370370
        k(   68) = (   0.6666667  -0.3849002  -0.3895856), wk =   0.0370370
        k(   69) = (   0.1666667   0.0962250  -0.1947928), wk =   0.0185185
        k(   70) = (   0.1666667   0.0962250  -0.3895856), wk =   0.0185185
        k(   71) = (   0.5000000  -0.0962250  -0.1947928), wk =   0.0370370
        k(   72) = (   0.5000000  -0.0962250  -0.3895856), wk =   0.0370370
        k(   73) = (  -0.8333333   0.6735753  -0.1947928), wk =   0.0185185
        k(   74) = (  -0.8333333   0.6735753  -0.3895856), wk =   0.0185185
        k(   75) = (  -0.5000000   0.4811252  -0.1947928), wk =   0.0370370
        k(   76) = (  -0.5000000   0.4811252  -0.3895856), wk =   0.0370370
        k(   77) = (   0.3333333   0.1924501  -0.1947928), wk =   0.0185185
        k(   78) = (   0.3333333   0.1924501  -0.3895856), wk =   0.0185185
        k(   79) = (  -0.6666667   0.7698004  -0.1947928), wk =   0.0185185
        k(   80) = (  -0.6666667   0.7698004  -0.3895856), wk =   0.0185185

     Dense  grid:    78475 G-vectors     FFT dimensions: (  75,  40,  64)

     Smooth grid:    27727 G-vectors     FFT dimensions: (  54,  27,  45)

     Estimated max dynamical RAM per process >      34.38 MB

     Estimated total dynamical RAM >     530.99 MB

     Check: negative core charge=   -0.000002

     Initial potential from superposition of free atoms

     starting charge      71.9851, renormalised to      72.0000
     Starting wfcs are   52 randomized atomic wfcs

     total cpu time spent up to now is        3.7 secs

     Self-consistent Calculation

     iteration #  1     ecut=    50.00 Ry     beta= 0.30
     Davidson diagonalization with overlap
     ethr =  1.00E-02,  avg # of iterations =  2.0

     total cpu time spent up to now is        7.6 secs

     total energy              =    -722.92223660 Ry
     estimated scf accuracy    <       1.34480622 Ry

     iteration #  2     ecut=    50.00 Ry     beta= 0.30
     Davidson diagonalization with overlap
     ethr =  1.87E-03,  avg # of iterations =  2.0

     total cpu time spent up to now is       12.4 secs

     total energy              =    -723.05219519 Ry
     estimated scf accuracy    <       0.22669375 Ry

     iteration #  3     ecut=    50.00 Ry     beta= 0.30
     Davidson diagonalization with overlap
     ethr =  3.15E-04,  avg # of iterations =  6.5

     total cpu time spent up to now is       21.0 secs

     total energy              =    -723.15206162 Ry
     estimated scf accuracy    <       0.16687090 Ry

     iteration #  4     ecut=    50.00 Ry     beta= 0.30
     Davidson diagonalization with overlap
     ethr =  2.32E-04,  avg # of iterations =  4.8

     total cpu time spent up to now is       27.5 secs

     total energy              =    -723.25242333 Ry
     estimated scf accuracy    <       0.04149141 Ry

     iteration #  5     ecut=    50.00 Ry     beta= 0.30
     Davidson diagonalization with overlap
     ethr =  5.76E-05,  avg # of iterations =  5.8

     total cpu time spent up to now is       35.1 secs

     total energy              =    -723.14215758 Ry
     estimated scf accuracy    <       0.25772695 Ry

     iteration #  6     ecut=    50.00 Ry     beta= 0.30
     Davidson diagonalization with overlap
     ethr =  5.76E-05,  avg # of iterations =  8.2

     total cpu time spent up to now is       45.2 secs

     total energy              =    -723.21053453 Ry
     estimated scf accuracy    <       0.01265475 Ry

     iteration #  7     ecut=    50.00 Ry     beta= 0.30
     Davidson diagonalization with overlap
     ethr =  1.76E-05,  avg # of iterations =  1.9

     total cpu time spent up to now is       49.2 secs

     total energy              =    -723.20631938 Ry
     estimated scf accuracy    <       0.00884553 Ry

     iteration #  8     ecut=    50.00 Ry     beta= 0.30
     Davidson diagonalization with overlap
     ethr =  1.23E-05,  avg # of iterations =  4.3

     total cpu time spent up to now is       55.2 secs

     total energy              =    -723.20906614 Ry
     estimated scf accuracy    <       0.00011329 Ry

     iteration #  9     ecut=    50.00 Ry     beta= 0.30
     Davidson diagonalization with overlap
     ethr =  1.57E-07,  avg # of iterations =  7.6

     total cpu time spent up to now is       65.3 secs

     total energy              =    -723.20918697 Ry
     estimated scf accuracy    <       0.00028654 Ry

     iteration # 10     ecut=    50.00 Ry     beta= 0.30
     Davidson diagonalization with overlap
     ethr =  1.57E-07,  avg # of iterations =  9.1

     total cpu time spent up to now is       76.6 secs

     total energy              =    -723.20922287 Ry
     estimated scf accuracy    <       0.00064238 Ry

     iteration # 11     ecut=    50.00 Ry     beta= 0.30
     Davidson diagonalization with overlap
     ethr =  1.57E-07,  avg # of iterations =  7.2

     total cpu time spent up to now is       85.6 secs

     total energy              =    -723.20933698 Ry
     estimated scf accuracy    <       0.00000124 Ry

     iteration # 12     ecut=    50.00 Ry     beta= 0.30
     Davidson diagonalization with overlap
     ethr =  1.72E-09,  avg # of iterations = 12.2

     total cpu time spent up to now is      100.0 secs

     total energy              =    -723.20933961 Ry
     estimated scf accuracy    <       0.00003604 Ry

     iteration # 13     ecut=    50.00 Ry     beta= 0.30
     Davidson diagonalization with overlap
     ethr =  1.72E-09,  avg # of iterations =  8.2

     total cpu time spent up to now is      110.2 secs

     total energy              =    -723.20934083 Ry
     estimated scf accuracy    <       0.00000704 Ry

     iteration # 14     ecut=    50.00 Ry     beta= 0.30
     Davidson diagonalization with overlap
     ethr =  1.72E-09,  avg # of iterations =  1.8

     total cpu time spent up to now is      114.1 secs

     total energy              =    -723.20933945 Ry
     estimated scf accuracy    <       0.00000501 Ry

     iteration # 15     ecut=    50.00 Ry     beta= 0.30
     Davidson diagonalization with overlap
     ethr =  1.72E-09,  avg # of iterations =  5.3

     total cpu time spent up to now is      121.3 secs

     total energy              =    -723.20934001 Ry
     estimated scf accuracy    <       0.00000051 Ry

     iteration # 16     ecut=    50.00 Ry     beta= 0.30
     Davidson diagonalization with overlap
     ethr =  7.11E-10,  avg # of iterations =  3.5

     total cpu time spent up to now is      126.3 secs

     total energy              =    -723.20934006 Ry
     estimated scf accuracy    <       0.00000015 Ry

     iteration # 17     ecut=    50.00 Ry     beta= 0.30
     Davidson diagonalization with overlap
     ethr =  2.06E-10,  avg # of iterations =  4.7

     total cpu time spent up to now is      132.0 secs

     total energy              =    -723.20934009 Ry
     estimated scf accuracy    <       0.00000004 Ry

     iteration # 18     ecut=    50.00 Ry     beta= 0.30
     Davidson diagonalization with overlap
     ethr =  5.69E-11,  avg # of iterations =  4.0

     total cpu time spent up to now is      137.7 secs

     total energy              =    -723.20934009 Ry
     estimated scf accuracy    <       0.00000001 Ry

     iteration # 19     ecut=    50.00 Ry     beta= 0.30
     Davidson diagonalization with overlap
     ethr =  1.50E-11,  avg # of iterations =  5.5

     total cpu time spent up to now is      144.5 secs

     End of self-consistent calculation

          k = 0.0000 0.0000 0.0000 (  3481 PWs)   bands (ev):

   -10.0678  -9.2665  -9.1883  -8.9475   2.1657   2.2506   2.3851   2.4903
     2.7073   2.7075   2.9105   2.9735   2.9736   3.1302   3.3055   3.6312
     4.0998   4.1466   4.1467   4.3800   4.3800   4.3908   4.4486   4.5661
     4.6232   4.9132   5.2127   5.7528   6.4480   7.2625   8.0010   8.0013
     8.0785   8.7303   8.9109   8.9112

          k = 0.0000 0.0000 0.1948 (  3479 PWs)   bands (ev):

   -10.0178  -9.3243  -9.1705  -8.9617   2.1314   2.1931   2.2898   2.4342
     2.7199   2.7201   2.9471   2.9495   2.9496   3.1398   3.2744   3.5654
     4.1662   4.1662   4.1812   4.3684   4.3685   4.3926   4.4383   4.5609
     4.8806   4.8967   5.1540   5.9953   6.5768   7.3295   7.9784   8.0627
     8.0630   8.1497   8.8506   8.8510

          k = 0.0000 0.0000 0.3896 (  3468 PWs)   bands (ev):

    -9.8788  -9.4789  -9.1228  -9.0021   2.0845   2.1045   2.1216   2.2995
     2.7577   2.7580   2.8892   2.8894   3.0528   3.1607   3.2257   3.4032
     4.2168   4.2169   4.3319   4.3346   4.3346   4.3974   4.4201   4.5340
     4.8925   5.0347   5.5321   6.5457   6.9039   7.2733   7.3556   7.7024
     8.2306   8.2309   8.6855   8.6858

          k = 0.0000 0.0000-0.5844 (  3478 PWs)   bands (ev):

    -9.6828  -9.6828  -9.0606  -9.0606   2.0395   2.0395   2.1653   2.1653
     2.8178   2.8178   2.8180   2.8180   3.1879   3.1879   3.2145   3.2145
     4.2795   4.2795   4.2795   4.2795   4.4062   4.4062   4.4603   4.4603
     4.9362   4.9362   6.3757   6.3757   7.0866   7.0866   7.3147   7.3147
     8.4587   8.4587   8.4590   8.4590

          k = 0.0000 0.3849 0.0000 (  3466 PWs)   bands (ev):

    -9.8789  -9.1995  -9.1708  -8.9427   2.3516   2.3814   2.5869   2.6016
     2.6119   2.7835   2.8902   2.9396   3.1100   3.1586   3.2985   3.6030
     4.0595   4.0859   4.1326   4.1499   4.3896   4.4011   4.4787   4.6143
     4.6748   4.8218   5.3451   5.8399   6.0782   7.0151   7.3217   7.6404
     7.7415   7.7926   8.5407   8.7245

          k = 0.0000 0.3849 0.1948 (  3470 PWs)   bands (ev):

    -9.8339  -9.2208  -9.1807  -8.9581   2.3044   2.3128   2.4329   2.5122
     2.6840   2.8000   2.8789   2.9413   3.0816   3.0991   3.3159   3.5263
     4.0877   4.0915   4.1679   4.2466   4.3757   4.3920   4.4796   4.7225
     4.7776   4.8977   5.4613   5.8936   6.2191   7.0775   7.3549   7.6294
     7.6448   7.7156   8.3937   8.6536

          k = 0.0000 0.3849 0.3896 (  3482 PWs)   bands (ev):

    -9.7093  -9.3554  -9.1303  -9.0016   2.1850   2.2288   2.2664   2.3218
     2.7560   2.8486   2.8829   2.9013   3.0098   3.0503   3.3130   3.4067
     4.1670   4.1714   4.2155   4.3045   4.3355   4.3404   4.4931   4.6201
     4.9665   5.4061   5.5882   6.2440   6.6210   7.0382   7.2195   7.4034
     7.4854   7.9185   8.0479   8.4591

          k = 0.0000 0.3849-0.5844 (  3484 PWs)   bands (ev):

    -9.5348  -9.5348  -9.0642  -9.0642   2.1673   2.1673   2.2085   2.2085
     2.8306   2.8306   2.9234   2.9234   2.9629   2.9629   3.3337   3.3337
     4.2588   4.2588   4.2649   4.2649   4.2774   4.2774   4.5348   4.5348
     5.2003   5.2003   6.3875   6.3875   6.6892   6.6892   7.2239   7.2239
     7.6702   7.6702   8.1908   8.1908

          k = 0.0000 0.7698 0.0000 (  3464 PWs)   bands (ev):

    -9.4544  -9.1995  -8.9970  -8.9427   2.1674   2.3518   2.5975   2.6118
     2.8872   2.8901   3.0098   3.1587   3.2298   3.2985   3.4350   3.6029
     4.0369   4.0859   4.1327   4.2620   4.3753   4.4154   4.4787   4.6748
     4.8049   4.8219   5.3452   5.4006   5.8399   6.0781   6.6029   6.8827
     7.3217   7.7414   7.8753   8.3104

          k = 0.0000 0.7698 0.1948 (  3465 PWs)   bands (ev):

    -9.4235  -9.1807  -9.0271  -8.9581   2.1302   2.3129   2.4652   2.5122
     2.8788   2.9162   2.9887   3.0992   3.1844   3.3159   3.3880   3.5261
     4.0642   4.0878   4.2466   4.2709   4.4018   4.4386   4.4796   4.7226
     4.7776   5.0051   5.4613   5.5250   5.8936   6.2190   6.5268   6.9884
     7.3549   7.6447   7.8471   8.2200

          k = 0.0000 0.7698 0.3896 (  3453 PWs)   bands (ev):

    -9.3391  -9.1303  -9.1100  -9.0016   2.0675   2.2225   2.2289   2.3219
     2.8829   2.9960   2.9998   3.0503   3.1129   3.2692   3.3130   3.4066
     4.1548   4.1714   4.2954   4.3046   4.3690   4.3853   4.4931   4.6202
     4.9665   5.4062   5.4130   5.7970   6.2439   6.5403   6.6209   7.2194
     7.2657   7.4854   7.6161   7.9714

          k = 0.0000 0.7698-0.5844 (  3466 PWs)   bands (ev):

    -9.2242  -9.2242  -9.0642  -9.0642   2.0771   2.0771   2.2086   2.2086
     2.9629   2.9629   3.0438   3.0438   3.1258   3.1258   3.3336   3.3336
     4.2649   4.2649   4.2733   4.2733   4.3302   4.3302   4.5348   4.5348
     5.2004   5.2004   5.7066   5.7066   6.6891   6.6891   7.0785   7.0785
     7.2239   7.2239   7.6252   7.6252

          k = 0.0000-1.1547 0.0000 (  3460 PWs)   bands (ev):

    -9.1883  -9.1883  -8.9475  -8.9475   2.2507   2.2507   2.3852   2.3852
     2.9103   2.9103   3.1302   3.1302   3.3056   3.3056   3.6310   3.6310
     4.0998   4.0998   4.3909   4.3909   4.4486   4.4486   4.5662   4.5662
     4.9133   4.9133   5.2128   5.2128   5.7529   5.7529   6.4478   6.4478
     7.2625   7.2625   8.0782   8.0782

          k = 0.0000-1.1547 0.1948 (  3444 PWs)   bands (ev):

    -9.1705  -9.1705  -8.9617  -8.9617   2.1932   2.1932   2.2900   2.2900
     2.9470   2.9470   3.1399   3.1399   3.2745   3.2745   3.5652   3.5652
     4.1812   4.1812   4.3927   4.3927   4.4384   4.4384   4.5610   4.5610
     4.8968   4.8968   5.1541   5.1541   5.9953   5.9953   6.5766   6.5766
     7.3294   7.3295   7.9781   7.9781

          k = 0.0000-1.1547 0.3896 (  3436 PWs)   bands (ev):

    -9.1228  -9.1228  -9.0021  -9.0020   2.0846   2.0846   2.1217   2.1217
     3.0527   3.0527   3.1607   3.1607   3.2258   3.2258   3.4031   3.4031
     4.3319   4.3319   4.3974   4.3974   4.4201   4.4201   4.5341   4.5341
     4.8926   4.8926   5.0348   5.0348   6.5457   6.5457   6.9037   6.9037
     7.3556   7.3557   7.7021   7.7021

          k = 0.0000-1.1547-0.5844 (  3432 PWs)   bands (ev):

    -9.0607  -9.0606  -9.0606  -9.0606   2.0396   2.0396   2.0396   2.0396
     3.1880   3.1880   3.1880   3.1880   3.2144   3.2144   3.2144   3.2144
     4.4062   4.4062   4.4062   4.4062   4.4604   4.4604   4.4604   4.4604
     4.9363   4.9363   4.9363   4.9363   7.0867   7.0867   7.0867   7.0867
     7.3144   7.3144   7.3144   7.3144

          k = 0.1667 0.0962 0.0000 (  3461 PWs)   bands (ev):

   -10.0183  -9.2679  -9.2406  -8.9536   2.1772   2.2450   2.4907   2.5208
     2.6498   2.7292   2.9063   2.9591   3.0089   3.1471   3.2468   3.5765
     4.1042   4.1234   4.1445   4.3494   4.3830   4.3898   4.4372   4.6156
     4.6522   4.7691   5.0712   6.0806   6.5714   7.4603   7.7241   7.9048
     8.1427   8.4352   8.6868   8.8626

          k = 0.1667 0.0962 0.1948 (  3478 PWs)   bands (ev):

    -9.9695  -9.2964  -9.2455  -8.9731   2.1325   2.1924   2.3777   2.4430
     2.6861   2.7427   2.9404   2.9407   2.9839   3.1304   3.2279   3.5165
     4.1455   4.1560   4.1639   4.3529   4.3707   4.3759   4.4260   4.5786
     4.8379   4.8832   5.2554   6.1205   6.6928   7.5019   7.7815   7.9701
     8.0307   8.0453   8.6416   8.7994

          k = 0.1667 0.0962 0.3896 (  3477 PWs)   bands (ev):

    -9.8342  -9.4459  -9.1852  -9.0277   2.0542   2.1338   2.1704   2.2967
     2.7443   2.7829   2.8851   2.9211   3.0403   3.1250   3.1899   3.3677
     4.2025   4.2143   4.2555   4.3343   4.3354   4.3640   4.4033   4.4682
     5.0050   5.3397   5.5486   6.4978   7.0048   7.2473   7.4473   7.7768
     7.9722   8.1475   8.4619   8.6261

          k = 0.1667 0.0962-0.5844 (  3478 PWs)   bands (ev):

    -9.6436  -9.6436  -9.1050  -9.1050   2.0471   2.0471   2.1712   2.1712
     2.8128   2.8128   2.8463   2.8464   3.1495   3.1495   3.1922   3.1922
     4.2733   4.2733   4.2777   4.2777   4.3618   4.3618   4.3813   4.3813
     5.1948   5.1948   6.3893   6.3893   7.0786   7.0786   7.4007   7.4007
     8.2141   8.2141   8.3878   8.3878

          k = 0.1667 0.4811 0.0000 (  3475 PWs)   bands (ev):

    -9.7527  -9.3698  -9.1119  -8.9713   2.3408   2.3754   2.5399   2.5857
     2.6696   2.8461   2.8896   2.9731   3.0854   3.1983   3.3316   3.4529
     3.9871   4.0221   4.1298   4.1517   4.3921   4.4005   4.4350   4.5701
     4.6491   4.8734   5.5379   6.0992   6.5051   6.5724   7.1163   7.5742
     7.7759   7.9507   8.3885   8.5467

          k = 0.1667 0.4811 0.1948 (  3469 PWs)   bands (ev):

    -9.7114  -9.3423  -9.1564  -8.9970   2.2876   2.3120   2.4424   2.4659
     2.7193   2.8574   2.8696   2.9966   3.0013   3.1671   3.2773   3.3955
     4.0190   4.0586   4.1778   4.2467   4.3782   4.4089   4.4283   4.5628
     4.9257   5.0136   5.7032   6.1503   6.5043   6.6485   7.1036   7.5495
     7.7569   7.8508   8.2615   8.4669

          k = 0.1667 0.4811 0.3896 (  3473 PWs)   bands (ev):

    -9.5973  -9.2769  -9.2678  -9.0681   2.1925   2.1976   2.2445   2.2871
     2.7872   2.8749   2.9049   2.9524   2.9740   3.0889   3.2210   3.2887
     4.1268   4.1466   4.2257   4.3112   4.3382   4.3525   4.4141   4.4713
     5.3568   5.6119   5.8726   6.4077   6.7006   6.7530   7.0143   7.5283
     7.6295   7.6676   7.8792   8.2491

          k = 0.1667 0.4811-0.5844 (  3478 PWs)   bands (ev):

    -9.4387  -9.4387  -9.1671  -9.1671   2.1560   2.1560   2.1723   2.1723
     2.8545   2.8545   2.9445   2.9445   3.0014   3.0014   3.2116   3.2116
     4.2536   4.2536   4.2584   4.2584   4.2841   4.2841   4.4088   4.4088
     5.6622   5.6622   6.3182   6.3182   6.9135   6.9135   7.2917   7.2917
     7.3612   7.3612   7.9550   7.9550

          k = 0.1667 0.8660 0.0000 (  3476 PWs)   bands (ev):

    -9.3326  -9.3326  -8.9640  -8.9640   2.2087   2.2087   2.5698   2.5698
     2.8702   2.8702   3.1187   3.1187   3.2523   3.2523   3.5233   3.5233
     4.0849   4.0849   4.2133   4.2133   4.4337   4.4337   4.5663   4.5663
     4.8546   4.8546   5.1903   5.1903   6.2954   6.2954   6.5055   6.5055
     7.6362   7.6362   8.0988   8.0988

          k = 0.1667 0.8660 0.1948 (  3464 PWs)   bands (ev):

    -9.3070  -9.3069  -8.9875  -8.9875   2.1673   2.1673   2.4535   2.4535
     2.8981   2.8981   3.0766   3.0766   3.2349   3.2349   3.4612   3.4612
     4.0954   4.0955   4.2831   4.2831   4.4248   4.4248   4.5509   4.5509
     4.9497   4.9497   5.3853   5.3853   6.2570   6.2570   6.6278   6.6278
     7.6478   7.6478   7.9992   7.9992

          k = 0.1667 0.8660 0.3896 (  3462 PWs)   bands (ev):

    -9.2374  -9.2374  -9.0527  -9.0527   2.0953   2.0953   2.2315   2.2315
     2.9701   2.9701   3.0556   3.0556   3.1987   3.1987   3.3277   3.3277
     4.1775   4.1775   4.3257   4.3257   4.4050   4.4050   4.4590   4.4590
     5.1943   5.1943   5.5887   5.5887   6.4680   6.4680   6.9322   6.9322
     7.5198   7.5198   7.7328   7.7328

          k = 0.1667 0.8660-0.5844 (  3456 PWs)   bands (ev):

    -9.1440  -9.1440  -9.1440  -9.1440   2.0962   2.0962   2.0962   2.0962
     3.0452   3.0452   3.0452   3.0452   3.2082   3.2082   3.2082   3.2082
     4.2860   4.2860   4.2860   4.2860   4.3975   4.3975   4.3975   4.3975
     5.4387   5.4387   5.4387   5.4387   7.0321   7.0321   7.0321   7.0321
     7.3762   7.3762   7.3762   7.3762

          k = 0.1667-1.0585 0.0000 (  3444 PWs)   bands (ev):

    -9.1921  -9.1921  -8.9458  -8.9458   2.2637   2.2637   2.4873   2.4873
     2.8947   2.8947   3.1692   3.1692   3.2550   3.2550   3.6245   3.6245
     4.0954   4.0954   4.3230   4.3230   4.4628   4.4628   4.6175   4.6175
     4.8718   4.8718   5.2142   5.2142   5.8119   5.8119   6.3400   6.3400
     7.2616   7.2616   7.9722   7.9723

          k = 0.1667-1.0585 0.1948 (  3442 PWs)   bands (ev):

    -9.1739  -9.1739  -8.9605  -8.9604   2.2135   2.2135   2.3817   2.3817
     2.9120   2.9120   3.1730   3.1730   3.2421   3.2421   3.5563   3.5563
     4.1633   4.1633   4.3331   4.3331   4.4583   4.4583   4.6112   4.6112
     4.8447   4.8447   5.2513   5.2513   5.9760   5.9761   6.4730   6.4730
     7.3238   7.3238   7.8687   7.8687

          k = 0.1667-1.0585 0.3896 (  3448 PWs)   bands (ev):

    -9.1254  -9.1253  -9.0019  -9.0019   2.1184   2.1184   2.1929   2.1929
     2.9801   2.9801   3.1656   3.1656   3.2321   3.2321   3.4100   3.4100
     4.2721   4.2721   4.3474   4.3474   4.4623   4.4623   4.5678   4.5678
     4.8905   4.8905   5.1662   5.1662   6.4693   6.4693   6.8170   6.8170
     7.3243   7.3243   7.6005   7.6005

          k = 0.1667-1.0585-0.5844 (  3452 PWs)   bands (ev):

    -9.0619  -9.0618  -9.0618  -9.0618   2.0904   2.0904   2.0904   2.0904
     3.0869   3.0870   3.0870   3.0870   3.2864   3.2864   3.2864   3.2864
     4.3347   4.3347   4.3347   4.3347   4.5043   4.5043   4.5043   4.5043
     5.0173   5.0173   5.0174   5.0174   6.9906   6.9906   6.9906   6.9906
     7.2557   7.2557   7.2557   7.2557

          k = 0.1667-0.6736 0.0000 (  3466 PWs)   bands (ev):

    -9.5396  -9.0804  -9.0252  -8.9492   2.2475   2.4114   2.6197   2.7928
     2.8844   2.9750   2.9905   3.1130   3.1813   3.3552   3.3940   3.6492
     3.9901   4.0236   4.1346   4.1853   4.3999   4.4115   4.4225   4.4736
     4.7613   5.0146   5.1495   5.4700   5.7773   6.2362   6.6928   6.9858
     7.0142   7.3465   8.0609   8.3101

          k = 0.1667-0.6736 0.1948 (  3469 PWs)   bands (ev):

    -9.5054  -9.0695  -9.0597  -8.9557   2.2041   2.4207   2.4873   2.7147
     2.8305   2.8876   2.9482   3.0851   3.1452   3.3140   3.4218   3.6045
     4.0300   4.0607   4.1988   4.2312   4.3940   4.4388   4.4953   4.5054
     4.9628   4.9961   5.2930   5.4216   5.8791   6.4118   6.6623   7.0315
     7.0533   7.2685   7.9978   8.2190

          k = 0.1667-0.6736 0.3896 (  3468 PWs)   bands (ev):

    -9.4116  -9.1541  -9.0412  -8.9754   2.1273   2.2519   2.4088   2.5009
     2.7567   2.8943   2.9477   2.9744   3.0925   3.2141   3.4620   3.5489
     4.1313   4.1331   4.2217   4.2735   4.3609   4.3789   4.5747   4.7122
     4.8632   5.2082   5.5496   5.7429   6.1053   6.6194   6.6385   6.9505
     7.2689   7.3015   7.7030   7.9714

          k = 0.1667-0.6736-0.5844 (  3464 PWs)   bands (ev):

    -9.2830  -9.2830  -9.0062  -9.0062   2.1210   2.1210   2.3927   2.3927
     2.8242   2.8242   2.9489   2.9489   3.1089   3.1089   3.5039   3.5039
     4.1917   4.1917   4.2558   4.2558   4.3214   4.3214   4.6887   4.6887
     4.9999   4.9999   5.9640   5.9640   6.2329   6.2329   7.0980   7.0980
     7.2224   7.2224   7.6369   7.6369

          k = 0.1667-0.2887 0.0000 (  3465 PWs)   bands (ev):

    -9.9238  -9.1927  -9.1235  -8.9449   2.3585   2.3824   2.5499   2.5761
     2.6860   2.7793   2.8945   2.9422   3.0757   3.1995   3.2257   3.6526
     4.0679   4.0851   4.1405   4.2497   4.3866   4.4029   4.4933   4.5341
     4.6110   4.9968   5.3555   5.4236   6.2396   7.0226   7.2942   7.5972
     7.6656   8.0345   8.5925   8.7493

          k = 0.1667-0.2887 0.1948 (  3463 PWs)   bands (ev):

    -9.8776  -9.2446  -9.1096  -8.9548   2.2945   2.3290   2.4275   2.5534
     2.6621   2.7877   2.8551   2.9377   3.0489   3.1853   3.2727   3.5871
     4.1116   4.1366   4.1614   4.2594   4.3727   4.3892   4.5125   4.5518
     4.8920   4.9450   5.2807   5.6476   6.4080   7.0833   7.3637   7.5689
     7.5818   7.9059   8.4596   8.6799

          k = 0.1667-0.2887 0.3896 (  3475 PWs)   bands (ev):

    -9.7494  -9.3841  -9.0729  -8.9833   2.1788   2.2537   2.2772   2.3386
     2.7404   2.8246   2.8603   2.8967   2.9814   3.0957   3.3418   3.4806
     4.1797   4.2121   4.2299   4.2720   4.3336   4.3403   4.5892   4.5969
     4.8914   5.1154   5.5773   6.1050   6.8162   7.0014   7.1466   7.4155
     7.5579   7.9671   8.1788   8.4902

          k = 0.1667-0.2887-0.5844 (  3490 PWs)   bands (ev):

    -9.5696  -9.5696  -9.0261  -9.0261   2.1734   2.1734   2.2287   2.2287
     2.8145   2.8145   2.9031   2.9031   2.9596   2.9596   3.4040   3.4040
     4.2641   4.2641   4.2675   4.2675   4.2760   4.2760   4.6348   4.6348
     4.9493   4.9493   6.3975   6.3975   6.5985   6.5985   7.2172   7.2172
     7.8391   7.8391   8.2340   8.2340

          k = 0.3333 0.1925 0.0000 (  3480 PWs)   bands (ev):

    -9.8789  -9.4544  -9.1708  -8.9970   2.1672   2.3814   2.5869   2.5974
     2.6016   2.7837   2.8874   2.9395   3.0098   3.1102   3.2297   3.4351
     4.0368   4.0595   4.1499   4.2620   4.3754   4.3896   4.4011   4.4154
     4.6143   4.8048   5.4004   6.6028   6.8829   7.0149   7.6407   7.7924
     7.8753   8.3106   8.5407   8.7248

          k = 0.3333 0.1925 0.1948 (  3473 PWs)   bands (ev):

    -9.8339  -9.4234  -9.2208  -9.0271   2.1300   2.3044   2.4329   2.4651
     2.6839   2.8002   2.9164   2.9412   2.9886   3.0818   3.1844   3.3881
     4.0642   4.0915   4.1678   4.2709   4.3757   4.3919   4.4018   4.4386
     4.8977   5.0051   5.5248   6.5267   6.9887   7.0772   7.6293   7.7158
     7.8471   8.2203   8.3937   8.6539

          k = 0.3333 0.1925 0.3896 (  3479 PWs)   bands (ev):

    -9.7093  -9.3554  -9.3391  -9.1100   2.0674   2.1849   2.2224   2.2663
     2.7559   2.8488   2.9012   2.9959   3.0000   3.0099   3.1129   3.2694
     4.1548   4.1670   4.2155   4.2954   4.3355   4.3404   4.3690   4.3853
     5.4130   5.5882   5.7968   6.5403   7.0381   7.2659   7.4032   7.6161
     7.9187   7.9717   8.0478   8.4593

          k = 0.3333 0.1925-0.5844 (  3494 PWs)   bands (ev):

    -9.5348  -9.5348  -9.2242  -9.2242   2.0770   2.0770   2.1673   2.1673
     2.8305   2.8305   2.9236   2.9236   3.0438   3.0438   3.1260   3.1260
     4.2588   4.2588   4.2732   4.2732   4.2774   4.2774   4.3302   4.3302
     5.7065   5.7065   6.3875   6.3875   7.0784   7.0784   7.6255   7.6255
     7.6700   7.6700   8.1910   8.1910

          k = 0.3333 0.5774 0.0000 (  3478 PWs)   bands (ev):

    -9.5702  -9.5702  -9.0361  -9.0361   2.3526   2.3526   2.5428   2.5428
     2.7617   2.7617   3.0004   3.0004   3.1567   3.1567   3.3156   3.3156
     3.9851   3.9851   4.1535   4.1535   4.4039   4.4039   4.4268   4.4268
     4.7508   4.7508   6.0816   6.0816   6.4850   6.4850   7.1301   7.1301
     8.1380   8.1380   8.2497   8.2497

          k = 0.3333 0.5774 0.1948 (  3474 PWs)   bands (ev):

    -9.5349  -9.5349  -9.0721  -9.0721   2.2932   2.2932   2.4504   2.4504
     2.7897   2.7897   2.9266   2.9266   3.1327   3.1327   3.2800   3.2800
     4.0251   4.0251   4.2157   4.2157   4.3912   4.3912   4.4475   4.4475
     4.9942   4.9942   6.1892   6.1892   6.4975   6.4975   7.1108   7.1108
     8.0632   8.0632   8.1542   8.1542

          k = 0.3333 0.5774 0.3896 (  3502 PWs)   bands (ev):

    -9.4379  -9.4379  -9.1706  -9.1705   2.1887   2.1887   2.2544   2.2544
     2.8449   2.8449   2.9012   2.9012   3.0932   3.0932   3.1922   3.1922
     4.1275   4.1275   4.2678   4.2678   4.3589   4.3589   4.3819   4.3819
     5.5910   5.5910   6.3893   6.3893   6.5362   6.5362   7.2193   7.2193
     7.7513   7.7513   7.8979   7.8979

          k = 0.3333 0.5774-0.5844 (  3472 PWs)   bands (ev):

    -9.3046  -9.3046  -9.3046  -9.3046   2.1533   2.1533   2.1533   2.1533
     2.8941   2.8941   2.8941   2.8941   3.1062   3.1062   3.1062   3.1062
     4.2537   4.2537   4.2537   4.2537   4.3208   4.3208   4.3208   4.3208
     6.0841   6.0841   6.0841   6.0841   7.1193   7.1193   7.1193   7.1193
     7.5722   7.5722   7.5722   7.5722

          k = 0.3333-0.9623 0.0000 (  3450 PWs)   bands (ev):

    -9.1995  -9.1995  -8.9428  -8.9427   2.3517   2.3517   2.6120   2.6120
     2.8901   2.8901   3.1586   3.1587   3.2985   3.2985   3.6029   3.6029
     4.0859   4.0859   4.1327   4.1327   4.4788   4.4788   4.6749   4.6749
     4.8219   4.8219   5.3452   5.3452   5.8398   5.8398   6.0781   6.0781
     7.3216   7.3217   7.7413   7.7413

          k = 0.3333-0.9623 0.1948 (  3462 PWs)   bands (ev):

    -9.1807  -9.1807  -8.9581  -8.9581   2.3129   2.3129   2.5123   2.5123
     2.8788   2.8788   3.0992   3.0992   3.3159   3.3159   3.5261   3.5261
     4.0877   4.0877   4.2466   4.2466   4.4797   4.4797   4.7226   4.7226
     4.7776   4.7777   5.4614   5.4614   5.8935   5.8935   6.2190   6.2190
     7.3548   7.3548   7.6446   7.6446

          k = 0.3333-0.9623 0.3896 (  3456 PWs)   bands (ev):

    -9.1303  -9.1303  -9.0016  -9.0016   2.2289   2.2289   2.3219   2.3219
     2.8828   2.8828   3.0503   3.0503   3.3129   3.3129   3.4066   3.4066
     4.1713   4.1713   4.3046   4.3046   4.4931   4.4932   4.6202   4.6202
     4.9665   4.9665   5.4062   5.4062   6.2439   6.2439   6.6209   6.6209
     7.2193   7.2193   7.4854   7.4854

          k = 0.3333-0.9623-0.5844 (  3456 PWs)   bands (ev):

    -9.0643  -9.0642  -9.0642  -9.0642   2.2086   2.2086   2.2086   2.2086
     2.9629   2.9629   2.9629   2.9629   3.3336   3.3336   3.3336   3.3336
     4.2649   4.2649   4.2649   4.2649   4.5348   4.5348   4.5349   4.5349
     5.2004   5.2004   5.2004   5.2004   6.6890   6.6890   6.6890   6.6890
     7.2239   7.2239   7.2239   7.2239

          k = 0.3333-0.5774 0.0000 (  3467 PWs)   bands (ev):

    -9.5702  -9.0361  -8.9942  -8.9942   2.3527   2.4131   2.5428   2.7617
     3.0003   3.0398   3.0399   3.1568   3.1847   3.3155   3.5167   3.5167
     3.9851   4.0197   4.1536   4.1782   4.3038   4.3038   4.4039   4.4268
     4.7509   4.9730   5.2417   5.2418   6.0817   6.4851   6.6675   6.6676
     7.1001   7.1300   8.1380   8.2495

          k = 0.3333-0.5774 0.1948 (  3447 PWs)   bands (ev):

    -9.5349  -9.0721  -8.9919  -8.9919   2.2933   2.4458   2.4504   2.7897
     2.8752   2.8752   2.9266   3.0918   3.1328   3.2799   3.5721   3.5721
     4.0251   4.0391   4.1700   4.2158   4.3912   4.4064   4.4065   4.4475
     4.9943   5.1306   5.1764   5.1764   6.1893   6.4976   6.8118   6.8118
     6.9500   7.1106   8.0632   8.1540

          k = 0.3333-0.5774 0.3896 (  3479 PWs)   bands (ev):

    -9.4379  -9.1706  -8.9873  -8.9873   2.1888   2.2545   2.5418   2.6392
     2.6393   2.8449   2.8948   2.9012   3.0932   3.1921   3.6139   3.6139
     4.0756   4.1274   4.1466   4.2678   4.3589   4.3819   4.6192   4.6192
     5.0280   5.0280   5.5290   5.5911   6.3894   6.5363   6.5564   7.0907
     7.0907   7.2191   7.7514   7.8977

          k = 0.3333-0.5774-0.5844 (  3464 PWs)   bands (ev):

    -9.3046  -9.3046  -8.9850  -8.9850   2.1534   2.1534   2.5432   2.5432
     2.6967   2.6967   2.8941   2.8941   3.1061   3.1061   3.6232   3.6232
     4.1132   4.1132   4.2537   4.2537   4.3209   4.3209   4.8010   4.8010
     4.8742   4.8742   6.0422   6.0422   6.0842   6.0842   7.1193   7.1193
     7.2280   7.2280   7.5720   7.5720

          k =-0.5000-0.2887 0.0000 (  3474 PWs)   bands (ev):

    -9.6766  -9.6766  -9.0790  -9.0790   2.2672   2.2672   2.6421   2.6421
     2.8161   2.8161   2.8448   2.8448   3.0391   3.0391   3.2624   3.2624
     3.9904   3.9905   4.1863   4.1863   4.3748   4.3748   4.3995   4.3995
     4.6784   4.6784   6.1631   6.1631   7.1797   7.1797   7.2724   7.2724
     8.2682   8.2682   8.5250   8.5250

          k =-0.5000-0.2887 0.1948 (  3462 PWs)   bands (ev):

    -9.6377  -9.6377  -9.1201  -9.1200   2.2216   2.2216   2.4892   2.4892
     2.8105   2.8105   2.8669   2.8670   3.0369   3.0369   3.2271   3.2271
     4.0366   4.0366   4.2007   4.2007   4.3846   4.3847   4.4071   4.4071
     4.9440   4.9440   6.2448   6.2448   7.0728   7.0728   7.3617   7.3617
     8.1609   8.1609   8.4442   8.4442

          k =-0.5000-0.2887 0.3896 (  3470 PWs)   bands (ev):

    -9.5305  -9.5305  -9.2315  -9.2315   2.1400   2.1400   2.2498   2.2498
     2.8503   2.8503   2.9309   2.9309   2.9877   2.9877   3.1369   3.1369
     4.1350   4.1350   4.2394   4.2394   4.3446   4.3446   4.3535   4.3535
     5.6038   5.6039   6.4157   6.4157   6.8984   6.8984   7.5998   7.5998
     7.7825   7.7825   8.2223   8.2223

          k =-0.5000-0.2887-0.5844 (  3480 PWs)   bands (ev):

    -9.3821  -9.3821  -9.3821  -9.3821   2.1278   2.1278   2.1278   2.1278
     2.9157   2.9157   2.9157   2.9157   3.0275   3.0275   3.0275   3.0275
     4.2503   4.2503   4.2503   4.2503   4.2917   4.2917   4.2917   4.2917
     6.1973   6.1973   6.1973   6.1973   7.2117   7.2118   7.2118   7.2118
     7.9149   7.9149   7.9149   7.9150

          k =-0.5000-1.4434 0.0000 (  3474 PWs)   bands (ev):

    -9.2031  -9.2031  -8.9413  -8.9413   2.4468   2.4468   2.5834   2.5834
     2.9253   2.9253   3.1120   3.1120   3.4755   3.4755   3.5416   3.5416
     3.9711   3.9711   4.0815   4.0815   4.4836   4.4837   4.6629   4.6629
     4.8510   4.8510   5.5075   5.5075   5.7554   5.7554   5.9307   5.9307
     7.4287   7.4287   7.5668   7.5668

          k =-0.5000-1.4434 0.1948 (  3466 PWs)   bands (ev):

    -9.1840  -9.1840  -8.9571  -8.9570   2.4330   2.4330   2.4838   2.4838
     2.9611   2.9611   2.9799   2.9799   3.4333   3.4333   3.4598   3.4598
     4.0133   4.0133   4.2237   4.2237   4.4857   4.4857   4.7508   4.7508
     4.7927   4.7927   5.5972   5.5972   5.8981   5.8981   5.9838   5.9838
     7.4441   7.4441   7.4751   7.4751

          k =-0.5000-1.4434 0.3896 (  3456 PWs)   bands (ev):

    -9.1328  -9.1327  -9.0015  -9.0015   2.3346   2.3346   2.3542   2.3542
     2.8552   2.8552   2.9647   2.9647   3.3601   3.3601   3.3883   3.3883
     4.1242   4.1242   4.2942   4.2942   4.5005   4.5005   4.6406   4.6406
     5.0409   5.0409   5.5449   5.5449   6.1054   6.1054   6.4708   6.4708
     7.1574   7.1574   7.4661   7.4662

          k =-0.5000-1.4434-0.5844 (  3448 PWs)   bands (ev):

    -9.0655  -9.0654  -9.0654  -9.0654   2.2815   2.2815   2.2815   2.2815
     2.8955   2.8955   2.8955   2.8956   3.3474   3.3474   3.3474   3.3474
     4.2417   4.2417   4.2417   4.2417   4.5447   4.5447   4.5447   4.5447
     5.3169   5.3169   5.3169   5.3169   6.5001   6.5002   6.5002   6.5002
     7.2205   7.2205   7.2205   7.2205

          k = 0.3333-0.1925-0.1948 (  3470 PWs)   bands (ev):

    -9.8339  -9.2208  -9.1807  -8.9581   2.3044   2.3128   2.4329   2.5122
     2.6840   2.8000   2.8789   2.9413   3.0816   3.0991   3.3159   3.5263
     4.0877   4.0915   4.1679   4.2466   4.3757   4.3920   4.4796   4.7225
     4.7776   4.8977   5.4613   5.8936   6.2191   7.0775   7.3549   7.6294
     7.6448   7.7156   8.3937   8.6536

          k = 0.3333-0.1925-0.3896 (  3482 PWs)   bands (ev):

    -9.7093  -9.3554  -9.1303  -9.0016   2.1850   2.2288   2.2664   2.3218
     2.7560   2.8486   2.8829   2.9013   3.0098   3.0503   3.3130   3.4067
     4.1670   4.1714   4.2155   4.3045   4.3355   4.3404   4.4931   4.6201
     4.9665   5.4061   5.5882   6.2440   6.6210   7.0382   7.2195   7.4034
     7.4854   7.9185   8.0479   8.4591

          k = 0.6667-0.3849-0.1948 (  3465 PWs)   bands (ev):

    -9.4235  -9.1807  -9.0271  -8.9581   2.1302   2.3129   2.4652   2.5122
     2.8788   2.9162   2.9887   3.0992   3.1844   3.3159   3.3880   3.5261
     4.0642   4.0878   4.2466   4.2709   4.4018   4.4386   4.4796   4.7226
     4.7776   5.0051   5.4613   5.5250   5.8936   6.2190   6.5268   6.9884
     7.3549   7.6447   7.8471   8.2200

          k = 0.6667-0.3849-0.3896 (  3453 PWs)   bands (ev):

    -9.3391  -9.1303  -9.1100  -9.0016   2.0675   2.2225   2.2289   2.3219
     2.8829   2.9960   2.9998   3.0503   3.1129   3.2692   3.3130   3.4066
     4.1548   4.1714   4.2954   4.3046   4.3690   4.3853   4.4931   4.6202
     4.9665   5.4062   5.4130   5.7970   6.2439   6.5403   6.6209   7.2194
     7.2657   7.4854   7.6161   7.9714

          k = 0.1667 0.0962-0.1948 (  3478 PWs)   bands (ev):

    -9.9695  -9.2964  -9.2455  -8.9731   2.1325   2.1924   2.3777   2.4430
     2.6861   2.7427   2.9404   2.9407   2.9839   3.1304   3.2279   3.5165
     4.1455   4.1560   4.1639   4.3529   4.3707   4.3759   4.4260   4.5786
     4.8379   4.8832   5.2554   6.1205   6.6928   7.5019   7.7815   7.9701
     8.0307   8.0453   8.6416   8.7994

          k = 0.1667 0.0962-0.3896 (  3477 PWs)   bands (ev):

    -9.8342  -9.4459  -9.1852  -9.0277   2.0542   2.1338   2.1704   2.2967
     2.7443   2.7829   2.8851   2.9211   3.0403   3.1250   3.1899   3.3677
     4.2025   4.2143   4.2555   4.3343   4.3354   4.3640   4.4033   4.4682
     5.0050   5.3397   5.5486   6.4978   7.0048   7.2473   7.4473   7.7768
     7.9722   8.1475   8.4619   8.6261

          k = 0.5000-0.0962-0.1948 (  3469 PWs)   bands (ev):

    -9.7114  -9.3423  -9.1564  -8.9970   2.2876   2.3120   2.4424   2.4659
     2.7193   2.8574   2.8696   2.9966   3.0013   3.1671   3.2773   3.3955
     4.0190   4.0586   4.1778   4.2467   4.3782   4.4089   4.4283   4.5628
     4.9257   5.0136   5.7032   6.1503   6.5043   6.6485   7.1036   7.5495
     7.7569   7.8508   8.2615   8.4669

          k = 0.5000-0.0962-0.3896 (  3473 PWs)   bands (ev):

    -9.5973  -9.2769  -9.2678  -9.0681   2.1925   2.1976   2.2445   2.2871
     2.7872   2.8749   2.9049   2.9524   2.9740   3.0889   3.2210   3.2887
     4.1268   4.1466   4.2257   4.3112   4.3382   4.3525   4.4141   4.4713
     5.3568   5.6119   5.8726   6.4077   6.7006   6.7530   7.0143   7.5283
     7.6295   7.6676   7.8792   8.2491

          k =-0.8333 0.6736-0.1948 (  3442 PWs)   bands (ev):

    -9.1739  -9.1739  -8.9605  -8.9604   2.2135   2.2135   2.3817   2.3817
     2.9120   2.9120   3.1730   3.1731   3.2421   3.2421   3.5563   3.5563
     4.1633   4.1633   4.3331   4.3331   4.4583   4.4583   4.6112   4.6112
     4.8447   4.8447   5.2513   5.2513   5.9760   5.9761   6.4730   6.4730
     7.3238   7.3238   7.8687   7.8687

          k =-0.8333 0.6736-0.3896 (  3448 PWs)   bands (ev):

    -9.1254  -9.1253  -9.0019  -9.0019   2.1184   2.1184   2.1929   2.1929
     2.9801   2.9801   3.1656   3.1656   3.2321   3.2321   3.4100   3.4100
     4.2721   4.2721   4.3474   4.3474   4.4623   4.4623   4.5678   4.5678
     4.8905   4.8905   5.1662   5.1662   6.4693   6.4693   6.8170   6.8170
     7.3243   7.3243   7.6005   7.6006

          k =-0.5000 0.4811-0.1948 (  3469 PWs)   bands (ev):

    -9.5054  -9.0695  -9.0597  -8.9557   2.2041   2.4207   2.4873   2.7147
     2.8305   2.8876   2.9482   3.0851   3.1452   3.3140   3.4218   3.6045
     4.0300   4.0607   4.1988   4.2312   4.3940   4.4388   4.4953   4.5054
     4.9628   4.9961   5.2930   5.4216   5.8791   6.4118   6.6623   7.0315
     7.0533   7.2685   7.9978   8.2190

          k =-0.5000 0.4811-0.3896 (  3468 PWs)   bands (ev):

    -9.4116  -9.1541  -9.0412  -8.9754   2.1273   2.2519   2.4088   2.5009
     2.7567   2.8943   2.9477   2.9744   3.0925   3.2141   3.4620   3.5489
     4.1313   4.1331   4.2217   4.2735   4.3609   4.3789   4.5747   4.7122
     4.8632   5.2082   5.5496   5.7429   6.1053   6.6194   6.6385   6.9505
     7.2689   7.3015   7.7030   7.9714

          k = 0.3333 0.1925-0.1948 (  3473 PWs)   bands (ev):

    -9.8339  -9.4234  -9.2208  -9.0271   2.1300   2.3044   2.4329   2.4651
     2.6839   2.8002   2.9164   2.9412   2.9886   3.0818   3.1844   3.3881
     4.0642   4.0915   4.1678   4.2709   4.3757   4.3919   4.4018   4.4386
     4.8977   5.0051   5.5248   6.5267   6.9887   7.0772   7.6293   7.7158
     7.8471   8.2203   8.3937   8.6539

          k = 0.3333 0.1925-0.3896 (  3479 PWs)   bands (ev):

    -9.7093  -9.3554  -9.3391  -9.1100   2.0674   2.1849   2.2224   2.2663
     2.7559   2.8488   2.9012   2.9959   3.0000   3.0099   3.1129   3.2694
     4.1548   4.1670   4.2155   4.2954   4.3355   4.3404   4.3690   4.3853
     5.4130   5.5882   5.7968   6.5403   7.0381   7.2659   7.4032   7.6161
     7.9187   7.9717   8.0478   8.4593

          k =-0.6667 0.7698-0.1948 (  3462 PWs)   bands (ev):

    -9.1807  -9.1807  -8.9581  -8.9581   2.3129   2.3129   2.5123   2.5123
     2.8788   2.8788   3.0992   3.0992   3.3159   3.3159   3.5261   3.5261
     4.0877   4.0877   4.2466   4.2466   4.4797   4.4797   4.7226   4.7226
     4.7776   4.7777   5.4614   5.4614   5.8935   5.8935   6.2190   6.2190
     7.3548   7.3548   7.6446   7.6446

          k =-0.6667 0.7698-0.3896 (  3456 PWs)   bands (ev):

    -9.1303  -9.1303  -9.0016  -9.0016   2.2289   2.2289   2.3219   2.3219
     2.8828   2.8828   3.0503   3.0503   3.3129   3.3129   3.4066   3.4066
     4.1713   4.1713   4.3046   4.3046   4.4931   4.4932   4.6202   4.6202
     4.9665   4.9665   5.4062   5.4062   6.2439   6.2439   6.6209   6.6209
     7.2193   7.2193   7.4854   7.4854

     highest occupied level (ev):     8.9112

!    total energy              =    -723.20934010 Ry
     estimated scf accuracy    <          3.1E-10 Ry

     The total energy is the sum of the following terms:
     one-electron contribution =    -278.36667986 Ry
     hartree contribution      =     225.65019833 Ry
     xc contribution           =    -219.62766973 Ry
     ewald contribution        =    -450.86518883 Ry

     convergence has been achieved in  19 iterations

     Forces acting on atoms (cartesian axes, Ry/au):

     atom    1 type  1   force =    -0.00001439   -0.00000831   -0.00425538
     atom    2 type  2   force =     0.00000298    0.00000172    0.00426035
     atom    3 type  1   force =     0.00002282    0.00001318   -0.00426321
     atom    4 type  2   force =    -0.00000335   -0.00000193    0.00426035
     atom    5 type  1   force =    -0.00001561   -0.00000901   -0.00426409
     atom    6 type  2   force =     0.00000377    0.00000217    0.00426006
     atom    7 type  1   force =     0.00000671    0.00000387   -0.00425860
     atom    8 type  2   force =    -0.00000294   -0.00000170    0.00426050
     The non-local contrib.  to forces
     atom    1 type  1   force =     0.00002424    0.00001400   -0.07896640
     atom    2 type  2   force =    -0.00017766   -0.00010257   -0.06539609
     atom    3 type  1   force =    -0.00001966   -0.00001135   -0.07896918
     atom    4 type  2   force =     0.00017630    0.00010179   -0.06539588
     atom    5 type  1   force =     0.00002280    0.00001316   -0.07896860
     atom    6 type  2   force =    -0.00017394   -0.00010042   -0.06539644
     atom    7 type  1   force =    -0.00002793   -0.00001612   -0.07896700
     atom    8 type  2   force =     0.00017604    0.00010164   -0.06539577
     The ionic contribution  to forces
     atom    1 type  1   force =     0.00000000    0.00000000   -0.76076090
     atom    2 type  2   force =    -0.00000000   -0.00000000    0.76076090
     atom    3 type  1   force =    -0.00000000   -0.00000000   -0.76076090
     atom    4 type  2   force =     0.00000000    0.00000000    0.76076090
     atom    5 type  1   force =     0.00000000    0.00000000   -0.76076090
     atom    6 type  2   force =    -0.00000000   -0.00000000    0.76076090
     atom    7 type  1   force =    -0.00000000   -0.00000000   -0.76076090
     atom    8 type  2   force =     0.00000000    0.00000000    0.76076090
     The local contribution  to forces
     atom    1 type  1   force =    -0.00004506   -0.00002602    0.83044001
     atom    2 type  2   force =     0.00017785    0.00010268   -0.69158222
     atom    3 type  1   force =     0.00003010    0.00001738    0.83045051
     atom    4 type  2   force =    -0.00017811   -0.00010283   -0.69158107
     atom    5 type  1   force =    -0.00004231   -0.00002443    0.83045193
     atom    6 type  2   force =     0.00017740    0.00010242   -0.69158181
     atom    7 type  1   force =     0.00005766    0.00003329    0.83044369
     atom    8 type  2   force =    -0.00017720   -0.00010231   -0.69158084
     The core correction contribution to forces
     atom    1 type  1   force =     0.00000379    0.00000225    0.00501848
     atom    2 type  2   force =     0.00000201    0.00000116    0.00048086
     atom    3 type  1   force =    -0.00000373   -0.00000217    0.00501836
     atom    4 type  2   force =    -0.00000203   -0.00000117    0.00048087
     atom    5 type  1   force =     0.00000404    0.00000233    0.00501821
     atom    6 type  2   force =     0.00000199    0.00000116    0.00048087
     atom    7 type  1   force =    -0.00000406   -0.00000232    0.00501842
     atom    8 type  2   force =    -0.00000199   -0.00000115    0.00048085
     The Hubbard contrib.    to forces
     atom    1 type  1   force =     0.00000000    0.00000000    0.00000000
     atom    2 type  2   force =     0.00000000    0.00000000    0.00000000
     atom    3 type  1   force =     0.00000000    0.00000000    0.00000000
     atom    4 type  2   force =     0.00000000    0.00000000    0.00000000
     atom    5 type  1   force =     0.00000000    0.00000000    0.00000000
     atom    6 type  2   force =     0.00000000    0.00000000    0.00000000
     atom    7 type  1   force =     0.00000000    0.00000000    0.00000000
     atom    8 type  2   force =     0.00000000    0.00000000    0.00000000
     The SCF correction term to forces
     atom    1 type  1   force =     0.00000257    0.00000148    0.00001733
     atom    2 type  2   force =     0.00000075    0.00000043    0.00000079
     atom    3 type  1   force =     0.00001608    0.00000928    0.00000189
     atom    4 type  2   force =     0.00000044    0.00000026   -0.00000057
     atom    5 type  1   force =    -0.00000017   -0.00000010   -0.00000083
     atom    6 type  2   force =    -0.00000173   -0.00000100    0.00000043
     atom    7 type  1   force =    -0.00001902   -0.00001098    0.00001109
     atom    8 type  2   force =     0.00000017    0.00000010   -0.00000075

     Total force =     0.012050     Total SCF correction =     0.000036

     Writing all to output data dir ./ZnO-3.07-1.71-211.in.save/

     init_run     :      3.77s CPU      3.30s WALL (       1 calls)
     electrons    :    183.33s CPU    140.82s WALL (       1 calls)
     forces       :      1.11s CPU      0.91s WALL (       1 calls)

     Called by init_run:
     wfcinit      :      2.50s CPU      2.00s WALL (       1 calls)
     potinit      :      0.37s CPU      0.38s WALL (       1 calls)
     hinit0       :      0.76s CPU      0.78s WALL (       1 calls)

     Called by electrons:
     c_bands      :    166.21s CPU    126.90s WALL (      19 calls)
     sum_band     :     15.33s CPU     12.44s WALL (      19 calls)
     v_of_rho     :      0.58s CPU      0.52s WALL (      20 calls)
     newd         :      1.10s CPU      0.89s WALL (      20 calls)
     mix_rho      :      0.08s CPU      0.08s WALL (      19 calls)

     Called by c_bands:
     init_us_2    :      0.91s CPU      0.77s WALL (    1600 calls)
     init_us_2:cp :      0.90s CPU      0.76s WALL (    1600 calls)
     cegterg      :    154.68s CPU    117.28s WALL (     760 calls)

     Called by *egterg:
     cdiaghg      :     24.81s CPU     19.51s WALL (    4956 calls)
     h_psi        :    101.08s CPU     82.14s WALL (    4996 calls)
     s_psi        :      6.71s CPU      3.61s WALL (    4996 calls)
     g_psi        :      0.61s CPU      0.38s WALL (    4196 calls)

     Called by h_psi:
     h_psi:calbec :      6.95s CPU      4.14s WALL (    4996 calls)
     vloc_psi     :     87.09s CPU     74.07s WALL (    4996 calls)
     add_vuspsi   :      6.74s CPU      3.70s WALL (    4996 calls)

     General routines
     calbec       :      8.86s CPU      5.25s WALL (    5916 calls)
     fft          :      0.56s CPU      0.54s WALL (     269 calls)
     ffts         :      0.11s CPU      0.11s WALL (      39 calls)
     fftw         :     86.35s CPU     74.03s WALL (  247678 calls)
     interpolate  :      0.13s CPU      0.13s WALL (      20 calls)

     Parallel routines

     PWSCF        :   3m 8.75s CPU   2m25.82s WALL


   This run was terminated on:  13: 9:12  12Jul2025            

=------------------------------------------------------------------------------=
   JOB DONE.
=------------------------------------------------------------------------------=
Note: The following floating-point exceptions are signalling: IEEE_INVALID_FLAG
Note: The following floating-point exceptions are signalling: IEEE_INVALID_FLAG
