
     Program PWSCF v.7.0 starts on 27Aug2025 at 16:45:25 

     This program is part of the open-source Quantum ESPRESSO suite
     for quantum simulation of materials; please cite
         "P. Giannozzi et al., J. Phys.:Condens. Matter 21 395502 (2009);
         "P. Giannozzi et al., J. Phys.:Condens. Matter 29 465901 (2017);
         "P. Giannozzi et al., J. Chem. Phys. 152 154105 (2020);
          URL http://www.quantum-espresso.org", 
     in publications or presentations arising from this work. More details at
     http://www.quantum-espresso.org/quote

     Parallel version (MPI & OpenMP), running on      17 processor cores
     Number of MPI processes:                17
     Threads/MPI process:                     1

     MPI processes distributed on     1 nodes
     K-points division:     npool     =      17
     103505 MiB available memory on the printing compute node when the environment starts

     Reading input from /home/jvc/QEspresso7.2/ZnO_database/scripts/cell131.in/ZnO-3.14-1.74-131.in
Warning: card &CELL ignored
Warning: card / ignored
Warning: card &FCP ignored
Warning: card / ignored
Warning: card &RISM ignored
Warning: card / ignored

     Current dimensions of program PWSCF are:
     Max number of different atomic species (ntypx) = 10
     Max number of k-points (npk) =  40000
     Max angular momentum in pseudopotentials (lmaxx) =  4
     file Zn.upf: wavefunction(s)  3D renormalized
     Found identity + ( -0.0000  0.3333  0.0000) symmetry
     This is a supercell, fractional translations are disabled
     Message from routine setup:
     using ibrav=0 with symmetry is DISCOURAGED, use correct ibrav instead

     Subspace diagonalization in iterative solution of the eigenvalue problem:
     a serial algorithm will be used


     G-vector sticks info
     --------------------
     sticks:   dense  smooth     PW     G-vecs:    dense   smooth      PW
     Sum        2897    1465    441               127621    45267    7489

     Using Slab Decomposition



     bravais-lattice index     =            0
     lattice parameter (alat)  =       5.9317  a.u.
     unit-cell volume          =     945.3945 (a.u.)^3
     number of atoms/cell      =           12
     number of atomic types    =            2
     number of electrons       =       108.00
     number of Kohn-Sham states=           54
     kinetic-energy cutoff     =      50.0000  Ry
     charge density cutoff     =     400.0000  Ry
     scf convergence threshold =      1.0E-08
     mixing beta               =       0.3000
     number of iterations used =            8  plain     mixing
     Exchange-correlation= PBE
                           (   1   4   3   4   0   0   0)

     celldm(1)=   5.931700  celldm(2)=   0.000000  celldm(3)=   0.000000
     celldm(4)=   0.000000  celldm(5)=   0.000000  celldm(6)=   0.000000

     crystal axes: (cart. coord. in units of alat)
               a(1) = (   1.000000   0.000000   0.000000 )  
               a(2) = (  -1.500000   2.598076   0.000000 )  
               a(3) = (   0.000000   0.000000   1.743507 )  

     reciprocal axes: (cart. coord. in units 2 pi/alat)
               b(1) = (  1.000000  0.577350 -0.000000 )  
               b(2) = (  0.000000  0.384900  0.000000 )  
               b(3) = (  0.000000 -0.000000  0.573557 )  


     PseudoPot. # 1 for Zn read from file:
     /home/jvc/QEspresso7.2/ZnO_database/pseudos/Zn.upf
     MD5 check sum: 7f56cabf9682ed8c977c2f7d0c5985c5
     Pseudo is Ultrasoft + core correction, Zval = 12.0
     Generated using &quot;atomic&quot; code by A. Dal Corso  v.6.2.2
     Using radial grid of 1201 points,  6 beta functions with: 
                l(1) =   0
                l(2) =   0
                l(3) =   1
                l(4) =   1
                l(5) =   2
                l(6) =   2
     Q(r) pseudized with 0 coefficients 


     PseudoPot. # 2 for O  read from file:
     /home/jvc/QEspresso7.2/ZnO_database/pseudos/O.upf
     MD5 check sum: 91400c9766925bcf19f520983a725ff0
     Pseudo is Ultrasoft + core correction, Zval =  6.0
     Generated using &quot;atomic&quot; code by A. Dal Corso  v.6.3MaX
     Using radial grid of 1095 points,  4 beta functions with: 
                l(1) =   0
                l(2) =   0
                l(3) =   1
                l(4) =   1
     Q(r) pseudized with 0 coefficients 


     atomic species   valence    mass     pseudopotential
        Zn            12.00    65.38000     Zn( 1.00)
        O              6.00    15.99900     O ( 1.00)

      2 Sym. Ops. (no inversion) found


                                    s                        frac. trans.

      isym =  1     identity                                     

 cryst.   s( 1) = (     1          0          0      )
                  (     0          1          0      )
                  (     0          0          1      )

 cart.    s( 1) = (  1.0000000  0.0000000  0.0000000 )
                  (  0.0000000  1.0000000  0.0000000 )
                  (  0.0000000  0.0000000  1.0000000 )


      isym =  2     inv. 180 deg rotation - cart. axis [1,0,0]   

 cryst.   s( 2) = (    -1          0          0      )
                  (     3          1          0      )
                  (     0          0          1      )

 cart.    s( 2) = ( -1.0000000  0.0000000  0.0000000 )
                  (  0.0000000  1.0000000  0.0000000 )
                  (  0.0000000  0.0000000  1.0000000 )


   Cartesian axes

     site n.     atom                  positions (alat units)
         1           Zn  tau(   1) = (   0.5000000   0.2886751   0.8728582  )
         2           Zn  tau(   2) = (   0.0000000   0.5773503   0.0011047  )
         3           O   tau(   3) = (   0.5000000   0.2886751   1.5337220  )
         4           O   tau(   4) = (   0.0000000   0.5773503   0.6619685  )
         5           Zn  tau(   5) = (   0.0000000   1.1547005   0.8728582  )
         6           Zn  tau(   6) = (  -0.5000000   1.4433757   0.0011047  )
         7           O   tau(   7) = (   0.0000000   1.1547005   1.5337220  )
         8           O   tau(   8) = (  -0.5000000   1.4433757   0.6619685  )
         9           Zn  tau(   9) = (  -0.5000000   2.0207259   0.8728582  )
        10           Zn  tau(  10) = (  -1.0000000   2.3094011   0.0011047  )
        11           O   tau(  11) = (  -0.5000000   2.0207259   1.5337220  )
        12           O   tau(  12) = (  -1.0000000   2.3094011   0.6619685  )

   Crystallographic axes

     site n.     atom                  positions (cryst. coord.)
         1           Zn  tau(   1) = (  0.6666667  0.1111111  0.5006336  )
         2           Zn  tau(   2) = (  0.3333333  0.2222222  0.0006336  )
         3           O   tau(   3) = (  0.6666667  0.1111111  0.8796764  )
         4           O   tau(   4) = (  0.3333333  0.2222222  0.3796764  )
         5           Zn  tau(   5) = (  0.6666667  0.4444444  0.5006336  )
         6           Zn  tau(   6) = (  0.3333333  0.5555556  0.0006336  )
         7           O   tau(   7) = (  0.6666667  0.4444444  0.8796764  )
         8           O   tau(   8) = (  0.3333333  0.5555556  0.3796764  )
         9           Zn  tau(   9) = (  0.6666667  0.7777778  0.5006336  )
        10           Zn  tau(  10) = (  0.3333333  0.8888889  0.0006336  )
        11           O   tau(  11) = (  0.6666667  0.7777778  0.8796764  )
        12           O   tau(  12) = (  0.3333333  0.8888889  0.3796764  )

     number of k points=    68
                       cart. coord. in units 2pi/alat
        k(    1) = (   0.0000000   0.0000000   0.0000000), wk =   0.0092593
        k(    2) = (   0.0000000   0.0000000   0.0955928), wk =   0.0185185
        k(    3) = (   0.0000000   0.0000000   0.1911855), wk =   0.0185185
        k(    4) = (   0.0000000   0.0000000  -0.2867783), wk =   0.0092593
        k(    5) = (   0.0000000   0.0641500   0.0000000), wk =   0.0185185
        k(    6) = (   0.0000000   0.0641500   0.0955928), wk =   0.0185185
        k(    7) = (   0.0000000   0.0641500   0.1911855), wk =   0.0185185
        k(    8) = (   0.0000000   0.0641500  -0.2867783), wk =   0.0185185
        k(    9) = (   0.0000000   0.1283001   0.0000000), wk =   0.0185185
        k(   10) = (   0.0000000   0.1283001   0.0955928), wk =   0.0185185
        k(   11) = (   0.0000000   0.1283001   0.1911855), wk =   0.0185185
        k(   12) = (   0.0000000   0.1283001  -0.2867783), wk =   0.0185185
        k(   13) = (   0.0000000  -0.1924501   0.0000000), wk =   0.0092593
        k(   14) = (   0.0000000  -0.1924501   0.0955928), wk =   0.0185185
        k(   15) = (   0.0000000  -0.1924501   0.1911855), wk =   0.0185185
        k(   16) = (   0.0000000  -0.1924501  -0.2867783), wk =   0.0092593
        k(   17) = (   0.1666667   0.0962250   0.0000000), wk =   0.0370370
        k(   18) = (   0.1666667   0.0962250   0.0955928), wk =   0.0370370
        k(   19) = (   0.1666667   0.0962250   0.1911855), wk =   0.0370370
        k(   20) = (   0.1666667   0.0962250  -0.2867783), wk =   0.0370370
        k(   21) = (   0.1666667   0.1603751   0.0000000), wk =   0.0370370
        k(   22) = (   0.1666667   0.1603751   0.0955928), wk =   0.0370370
        k(   23) = (   0.1666667   0.1603751   0.1911855), wk =   0.0370370
        k(   24) = (   0.1666667   0.1603751  -0.2867783), wk =   0.0370370
        k(   25) = (   0.1666667  -0.0320750   0.0000000), wk =   0.0370370
        k(   26) = (   0.1666667  -0.0320750   0.0955928), wk =   0.0370370
        k(   27) = (   0.1666667  -0.0320750   0.1911855), wk =   0.0370370
        k(   28) = (   0.1666667  -0.0320750  -0.2867783), wk =   0.0370370
        k(   29) = (   0.3333333   0.1924501   0.0000000), wk =   0.0185185
        k(   30) = (   0.3333333   0.1924501   0.0955928), wk =   0.0370370
        k(   31) = (   0.3333333   0.1924501   0.1911855), wk =   0.0370370
        k(   32) = (   0.3333333   0.1924501  -0.2867783), wk =   0.0185185
        k(   33) = (   0.3333333   0.2566001   0.0000000), wk =   0.0370370
        k(   34) = (   0.3333333   0.2566001   0.0955928), wk =   0.0370370
        k(   35) = (   0.3333333   0.2566001   0.1911855), wk =   0.0370370
        k(   36) = (   0.3333333   0.2566001  -0.2867783), wk =   0.0370370
        k(   37) = (   0.3333333   0.3207501   0.0000000), wk =   0.0370370
        k(   38) = (   0.3333333   0.3207501   0.0955928), wk =   0.0370370
        k(   39) = (   0.3333333   0.3207501   0.1911855), wk =   0.0370370
        k(   40) = (   0.3333333   0.3207501  -0.2867783), wk =   0.0370370
        k(   41) = (   0.3333333  -0.0000000   0.0000000), wk =   0.0185185
        k(   42) = (   0.3333333  -0.0000000   0.0955928), wk =   0.0370370
        k(   43) = (   0.3333333  -0.0000000   0.1911855), wk =   0.0370370
        k(   44) = (   0.3333333  -0.0000000  -0.2867783), wk =   0.0185185
        k(   45) = (  -0.5000000  -0.2886751   0.0000000), wk =   0.0185185
        k(   46) = (  -0.5000000  -0.2886751   0.0955928), wk =   0.0370370
        k(   47) = (  -0.5000000  -0.2886751   0.1911855), wk =   0.0370370
        k(   48) = (  -0.5000000  -0.2886751  -0.2867783), wk =   0.0185185
        k(   49) = (  -0.5000000  -0.2245251   0.0000000), wk =   0.0370370
        k(   50) = (  -0.5000000  -0.2245251   0.0955928), wk =   0.0370370
        k(   51) = (  -0.5000000  -0.2245251   0.1911855), wk =   0.0370370
        k(   52) = (  -0.5000000  -0.2245251  -0.2867783), wk =   0.0370370
        k(   53) = (   0.0000000   0.0641500  -0.0955928), wk =   0.0185185
        k(   54) = (   0.0000000   0.0641500  -0.1911855), wk =   0.0185185
        k(   55) = (   0.0000000   0.1283001  -0.0955928), wk =   0.0185185
        k(   56) = (   0.0000000   0.1283001  -0.1911855), wk =   0.0185185
        k(   57) = (  -0.1666667   0.0962250  -0.0955928), wk =   0.0370370
        k(   58) = (  -0.1666667   0.0962250  -0.1911855), wk =   0.0370370
        k(   59) = (  -0.1666667   0.1603751  -0.0955928), wk =   0.0370370
        k(   60) = (  -0.1666667   0.1603751  -0.1911855), wk =   0.0370370
        k(   61) = (  -0.1666667  -0.0320750  -0.0955928), wk =   0.0370370
        k(   62) = (  -0.1666667  -0.0320750  -0.1911855), wk =   0.0370370
        k(   63) = (  -0.3333333   0.2566001  -0.0955928), wk =   0.0370370
        k(   64) = (  -0.3333333   0.2566001  -0.1911855), wk =   0.0370370
        k(   65) = (  -0.3333333   0.3207501  -0.0955928), wk =   0.0370370
        k(   66) = (  -0.3333333   0.3207501  -0.1911855), wk =   0.0370370
        k(   67) = (   0.5000000  -0.2245251  -0.0955928), wk =   0.0370370
        k(   68) = (   0.5000000  -0.2245251  -0.1911855), wk =   0.0370370

                       cryst. coord.
        k(    1) = (   0.0000000   0.0000000   0.0000000), wk =   0.0092593
        k(    2) = (   0.0000000   0.0000000   0.1666667), wk =   0.0185185
        k(    3) = (   0.0000000   0.0000000   0.3333333), wk =   0.0185185
        k(    4) = (   0.0000000   0.0000000  -0.5000000), wk =   0.0092593
        k(    5) = (   0.0000000   0.1666667   0.0000000), wk =   0.0185185
        k(    6) = (   0.0000000   0.1666667   0.1666667), wk =   0.0185185
        k(    7) = (   0.0000000   0.1666667   0.3333333), wk =   0.0185185
        k(    8) = (   0.0000000   0.1666667  -0.5000000), wk =   0.0185185
        k(    9) = (   0.0000000   0.3333333   0.0000000), wk =   0.0185185
        k(   10) = (   0.0000000   0.3333333   0.1666667), wk =   0.0185185
        k(   11) = (   0.0000000   0.3333333   0.3333333), wk =   0.0185185
        k(   12) = (   0.0000000   0.3333333  -0.5000000), wk =   0.0185185
        k(   13) = (   0.0000000  -0.5000000   0.0000000), wk =   0.0092593
        k(   14) = (   0.0000000  -0.5000000   0.1666667), wk =   0.0185185
        k(   15) = (   0.0000000  -0.5000000   0.3333333), wk =   0.0185185
        k(   16) = (   0.0000000  -0.5000000  -0.5000000), wk =   0.0092593
        k(   17) = (   0.1666667  -0.0000000   0.0000000), wk =   0.0370370
        k(   18) = (   0.1666667  -0.0000000   0.1666667), wk =   0.0370370
        k(   19) = (   0.1666667  -0.0000000   0.3333333), wk =   0.0370370
        k(   20) = (   0.1666667  -0.0000000  -0.5000000), wk =   0.0370370
        k(   21) = (   0.1666667   0.1666667   0.0000000), wk =   0.0370370
        k(   22) = (   0.1666667   0.1666667   0.1666667), wk =   0.0370370
        k(   23) = (   0.1666667   0.1666667   0.3333333), wk =   0.0370370
        k(   24) = (   0.1666667   0.1666667  -0.5000000), wk =   0.0370370
        k(   25) = (   0.1666667  -0.3333333   0.0000000), wk =   0.0370370
        k(   26) = (   0.1666667  -0.3333333   0.1666667), wk =   0.0370370
        k(   27) = (   0.1666667  -0.3333333   0.3333333), wk =   0.0370370
        k(   28) = (   0.1666667  -0.3333333  -0.5000000), wk =   0.0370370
        k(   29) = (   0.3333333  -0.0000000   0.0000000), wk =   0.0185185
        k(   30) = (   0.3333333  -0.0000000   0.1666667), wk =   0.0370370
        k(   31) = (   0.3333333  -0.0000000   0.3333333), wk =   0.0370370
        k(   32) = (   0.3333333  -0.0000000  -0.5000000), wk =   0.0185185
        k(   33) = (   0.3333333   0.1666667   0.0000000), wk =   0.0370370
        k(   34) = (   0.3333333   0.1666667   0.1666667), wk =   0.0370370
        k(   35) = (   0.3333333   0.1666667   0.3333333), wk =   0.0370370
        k(   36) = (   0.3333333   0.1666667  -0.5000000), wk =   0.0370370
        k(   37) = (   0.3333333   0.3333333   0.0000000), wk =   0.0370370
        k(   38) = (   0.3333333   0.3333333   0.1666667), wk =   0.0370370
        k(   39) = (   0.3333333   0.3333333   0.3333333), wk =   0.0370370
        k(   40) = (   0.3333333   0.3333333  -0.5000000), wk =   0.0370370
        k(   41) = (   0.3333333  -0.5000000   0.0000000), wk =   0.0185185
        k(   42) = (   0.3333333  -0.5000000   0.1666667), wk =   0.0370370
        k(   43) = (   0.3333333  -0.5000000   0.3333333), wk =   0.0370370
        k(   44) = (   0.3333333  -0.5000000  -0.5000000), wk =   0.0185185
        k(   45) = (  -0.5000000   0.0000000   0.0000000), wk =   0.0185185
        k(   46) = (  -0.5000000   0.0000000   0.1666667), wk =   0.0370370
        k(   47) = (  -0.5000000   0.0000000   0.3333333), wk =   0.0370370
        k(   48) = (  -0.5000000   0.0000000  -0.5000000), wk =   0.0185185
        k(   49) = (  -0.5000000   0.1666667   0.0000000), wk =   0.0370370
        k(   50) = (  -0.5000000   0.1666667   0.1666667), wk =   0.0370370
        k(   51) = (  -0.5000000   0.1666667   0.3333333), wk =   0.0370370
        k(   52) = (  -0.5000000   0.1666667  -0.5000000), wk =   0.0370370
        k(   53) = (   0.0000000   0.1666667  -0.1666667), wk =   0.0185185
        k(   54) = (   0.0000000   0.1666667  -0.3333333), wk =   0.0185185
        k(   55) = (   0.0000000   0.3333333  -0.1666667), wk =   0.0185185
        k(   56) = (   0.0000000   0.3333333  -0.3333333), wk =   0.0185185
        k(   57) = (  -0.1666667   0.5000000  -0.1666667), wk =   0.0370370
        k(   58) = (  -0.1666667   0.5000000  -0.3333333), wk =   0.0370370
        k(   59) = (  -0.1666667   0.6666667  -0.1666667), wk =   0.0370370
        k(   60) = (  -0.1666667   0.6666667  -0.3333333), wk =   0.0370370
        k(   61) = (  -0.1666667   0.1666667  -0.1666667), wk =   0.0370370
        k(   62) = (  -0.1666667   0.1666667  -0.3333333), wk =   0.0370370
        k(   63) = (  -0.3333333   1.1666667  -0.1666667), wk =   0.0370370
        k(   64) = (  -0.3333333   1.1666667  -0.3333333), wk =   0.0370370
        k(   65) = (  -0.3333333   1.3333333  -0.1666667), wk =   0.0370370
        k(   66) = (  -0.3333333   1.3333333  -0.3333333), wk =   0.0370370
        k(   67) = (   0.5000000  -1.3333333  -0.1666667), wk =   0.0370370
        k(   68) = (   0.5000000  -1.3333333  -0.3333333), wk =   0.0370370

     Dense  grid:   127621 G-vectors     FFT dimensions: (  40, 120,  72)

     Smooth grid:    45267 G-vectors     FFT dimensions: (  27,  81,  48)

     Dynamical RAM for                 wfc:       4.65 MB

     Dynamical RAM for     wfc (w. buffer):      23.25 MB

     Dynamical RAM for           str. fact:       3.89 MB

     Dynamical RAM for           local pot:       0.00 MB

     Dynamical RAM for          nlocal pot:      13.43 MB

     Dynamical RAM for                qrad:       3.21 MB

     Dynamical RAM for          rho,v,vnew:      13.75 MB

     Dynamical RAM for               rhoin:       4.58 MB

     Dynamical RAM for            rho*nmix:      31.16 MB

     Dynamical RAM for           G-vectors:       7.65 MB

     Dynamical RAM for          h,s,v(r/c):       0.53 MB

     Dynamical RAM for          <psi|beta>:       0.13 MB

     Dynamical RAM for                 psi:       9.30 MB

     Dynamical RAM for                hpsi:       9.30 MB

     Dynamical RAM for                spsi:       9.30 MB

     Dynamical RAM for      wfcinit/wfcrot:      13.57 MB

     Dynamical RAM for           addusdens:      23.83 MB

     Dynamical RAM for          addusforce:      24.14 MB

     Estimated static dynamical RAM per process >      88.80 MB

     Estimated max dynamical RAM per process >     148.53 MB

     Estimated total dynamical RAM >       1.98 GB

     Check: negative core charge=   -0.000002

     Initial potential from superposition of free atoms

     starting charge     107.9776, renormalised to     108.0000
     Starting wfcs are   78 randomized atomic wfcs

     total cpu time spent up to now is       14.5 secs

     per-process dynamical memory:   112.9 Mb

     Self-consistent Calculation

     iteration #  1     ecut=    50.00 Ry     beta= 0.30
     Davidson diagonalization with overlap

---- Real-time Memory Report at c_bands before calling an iterative solver
           135 MiB given to the printing process from OS
           110 MiB allocation reported by mallinfo(arena+hblkhd)
        101802 MiB available memory on the node where the printing process lives
------------------
     ethr =  1.00E-02,  avg # of iterations =  2.0

     total cpu time spent up to now is       26.4 secs

     total energy              =   -1084.40644779 Ry
     estimated scf accuracy    <       2.06206732 Ry

     iteration #  2     ecut=    50.00 Ry     beta= 0.30
     Davidson diagonalization with overlap

---- Real-time Memory Report at c_bands before calling an iterative solver
           181 MiB given to the printing process from OS
           156 MiB allocation reported by mallinfo(arena+hblkhd)
        101357 MiB available memory on the node where the printing process lives
------------------
     ethr =  1.91E-03,  avg # of iterations =  2.0

     total cpu time spent up to now is       40.5 secs

     total energy              =   -1084.67521859 Ry
     estimated scf accuracy    <       0.28939097 Ry

     iteration #  3     ecut=    50.00 Ry     beta= 0.30
     Davidson diagonalization with overlap

---- Real-time Memory Report at c_bands before calling an iterative solver
           183 MiB given to the printing process from OS
           158 MiB allocation reported by mallinfo(arena+hblkhd)
        101473 MiB available memory on the node where the printing process lives
------------------
     ethr =  2.68E-04,  avg # of iterations =  7.0

     total cpu time spent up to now is       64.1 secs

     total energy              =   -1084.78223137 Ry
     estimated scf accuracy    <       0.18539577 Ry

     iteration #  4     ecut=    50.00 Ry     beta= 0.30
     Davidson diagonalization with overlap

---- Real-time Memory Report at c_bands before calling an iterative solver
           184 MiB given to the printing process from OS
           159 MiB allocation reported by mallinfo(arena+hblkhd)
        101431 MiB available memory on the node where the printing process lives
------------------
     ethr =  1.72E-04,  avg # of iterations =  8.4

     total cpu time spent up to now is       92.2 secs

     total energy              =   -1084.90311845 Ry
     estimated scf accuracy    <       0.51760308 Ry

     iteration #  5     ecut=    50.00 Ry     beta= 0.30
     Davidson diagonalization with overlap

---- Real-time Memory Report at c_bands before calling an iterative solver
           185 MiB given to the printing process from OS
           160 MiB allocation reported by mallinfo(arena+hblkhd)
        101510 MiB available memory on the node where the printing process lives
------------------
     ethr =  1.72E-04,  avg # of iterations =  1.2

     total cpu time spent up to now is      102.9 secs

     total energy              =   -1084.68276765 Ry
     estimated scf accuracy    <       0.30322269 Ry

     iteration #  6     ecut=    50.00 Ry     beta= 0.30
     Davidson diagonalization with overlap

---- Real-time Memory Report at c_bands before calling an iterative solver
           187 MiB given to the printing process from OS
           162 MiB allocation reported by mallinfo(arena+hblkhd)
        101531 MiB available memory on the node where the printing process lives
------------------
     ethr =  1.72E-04,  avg # of iterations =  8.6

     total cpu time spent up to now is      130.8 secs

     total energy              =   -1084.84338488 Ry
     estimated scf accuracy    <       0.53360452 Ry

     iteration #  7     ecut=    50.00 Ry     beta= 0.30
     Davidson diagonalization with overlap

---- Real-time Memory Report at c_bands before calling an iterative solver
           188 MiB given to the printing process from OS
           163 MiB allocation reported by mallinfo(arena+hblkhd)
        101526 MiB available memory on the node where the printing process lives
------------------
     ethr =  1.72E-04,  avg # of iterations =  2.0

     total cpu time spent up to now is      142.8 secs

     total energy              =   -1084.85518699 Ry
     estimated scf accuracy    <       0.21958059 Ry

     iteration #  8     ecut=    50.00 Ry     beta= 0.30
     Davidson diagonalization with overlap

---- Real-time Memory Report at c_bands before calling an iterative solver
           189 MiB given to the printing process from OS
           165 MiB allocation reported by mallinfo(arena+hblkhd)
        101572 MiB available memory on the node where the printing process lives
------------------
     ethr =  1.72E-04,  avg # of iterations =  2.0

     total cpu time spent up to now is      155.6 secs

     total energy              =   -1084.86716462 Ry
     estimated scf accuracy    <       0.13143940 Ry

     iteration #  9     ecut=    50.00 Ry     beta= 0.30
     Davidson diagonalization with overlap

---- Real-time Memory Report at c_bands before calling an iterative solver
           191 MiB given to the printing process from OS
           166 MiB allocation reported by mallinfo(arena+hblkhd)
        101525 MiB available memory on the node where the printing process lives
------------------
     ethr =  1.22E-04,  avg # of iterations =  2.0

     total cpu time spent up to now is      167.6 secs

     total energy              =   -1084.86620483 Ry
     estimated scf accuracy    <       0.09736428 Ry

     iteration # 10     ecut=    50.00 Ry     beta= 0.30
     Davidson diagonalization with overlap

---- Real-time Memory Report at c_bands before calling an iterative solver
           192 MiB given to the printing process from OS
           167 MiB allocation reported by mallinfo(arena+hblkhd)
        101511 MiB available memory on the node where the printing process lives
------------------
     ethr =  9.02E-05,  avg # of iterations =  2.0

     total cpu time spent up to now is      179.7 secs

     total energy              =   -1084.84754609 Ry
     estimated scf accuracy    <       0.06821171 Ry

     iteration # 11     ecut=    50.00 Ry     beta= 0.30
     Davidson diagonalization with overlap

---- Real-time Memory Report at c_bands before calling an iterative solver
           192 MiB given to the printing process from OS
           167 MiB allocation reported by mallinfo(arena+hblkhd)
        101393 MiB available memory on the node where the printing process lives
------------------
     ethr =  6.32E-05,  avg # of iterations =  4.8

     total cpu time spent up to now is      196.0 secs

     total energy              =   -1084.86226681 Ry
     estimated scf accuracy    <       0.00252776 Ry

     iteration # 12     ecut=    50.00 Ry     beta= 0.30
     Davidson diagonalization with overlap

---- Real-time Memory Report at c_bands before calling an iterative solver
           192 MiB given to the printing process from OS
           167 MiB allocation reported by mallinfo(arena+hblkhd)
        101520 MiB available memory on the node where the printing process lives
------------------
     ethr =  2.34E-06,  avg # of iterations =  9.1

     total cpu time spent up to now is      224.9 secs

     total energy              =   -1084.87203215 Ry
     estimated scf accuracy    <       0.00825292 Ry

     iteration # 13     ecut=    50.00 Ry     beta= 0.30
     Davidson diagonalization with overlap

---- Real-time Memory Report at c_bands before calling an iterative solver
           192 MiB given to the printing process from OS
           167 MiB allocation reported by mallinfo(arena+hblkhd)
        101336 MiB available memory on the node where the printing process lives
------------------
     ethr =  2.34E-06,  avg # of iterations =  3.5

     total cpu time spent up to now is      237.7 secs

     total energy              =   -1084.86783386 Ry
     estimated scf accuracy    <       0.01410105 Ry

     iteration # 14     ecut=    50.00 Ry     beta= 0.30
     Davidson diagonalization with overlap

---- Real-time Memory Report at c_bands before calling an iterative solver
           192 MiB given to the printing process from OS
           167 MiB allocation reported by mallinfo(arena+hblkhd)
        101730 MiB available memory on the node where the printing process lives
------------------
     ethr =  2.34E-06,  avg # of iterations =  2.8

     total cpu time spent up to now is      250.0 secs

     total energy              =   -1084.86855928 Ry
     estimated scf accuracy    <       0.00641944 Ry

     iteration # 15     ecut=    50.00 Ry     beta= 0.30
     Davidson diagonalization with overlap

---- Real-time Memory Report at c_bands before calling an iterative solver
           192 MiB given to the printing process from OS
           167 MiB allocation reported by mallinfo(arena+hblkhd)
        100962 MiB available memory on the node where the printing process lives
------------------
     ethr =  2.34E-06,  avg # of iterations =  1.0

     total cpu time spent up to now is      259.7 secs

     total energy              =   -1084.86849302 Ry
     estimated scf accuracy    <       0.00650185 Ry

     iteration # 16     ecut=    50.00 Ry     beta= 0.30
     Davidson diagonalization with overlap

---- Real-time Memory Report at c_bands before calling an iterative solver
           192 MiB given to the printing process from OS
           167 MiB allocation reported by mallinfo(arena+hblkhd)
        102779 MiB available memory on the node where the printing process lives
------------------
     ethr =  2.34E-06,  avg # of iterations =  1.0

     total cpu time spent up to now is      270.3 secs

     total energy              =   -1084.86822017 Ry
     estimated scf accuracy    <       0.00590273 Ry

     iteration # 17     ecut=    50.00 Ry     beta= 0.30
     Davidson diagonalization with overlap

---- Real-time Memory Report at c_bands before calling an iterative solver
           192 MiB given to the printing process from OS
           167 MiB allocation reported by mallinfo(arena+hblkhd)
        101368 MiB available memory on the node where the printing process lives
------------------
     ethr =  2.34E-06,  avg # of iterations =  1.0

     total cpu time spent up to now is      281.4 secs

     total energy              =   -1084.86762674 Ry
     estimated scf accuracy    <       0.00497892 Ry

     iteration # 18     ecut=    50.00 Ry     beta= 0.30
     Davidson diagonalization with overlap

---- Real-time Memory Report at c_bands before calling an iterative solver
           192 MiB given to the printing process from OS
           167 MiB allocation reported by mallinfo(arena+hblkhd)
        101500 MiB available memory on the node where the printing process lives
------------------
     ethr =  2.34E-06,  avg # of iterations =  1.3

     total cpu time spent up to now is      292.5 secs

     total energy              =   -1084.86829200 Ry
     estimated scf accuracy    <       0.00348710 Ry

     iteration # 19     ecut=    50.00 Ry     beta= 0.30
     Davidson diagonalization with overlap

---- Real-time Memory Report at c_bands before calling an iterative solver
           192 MiB given to the printing process from OS
           167 MiB allocation reported by mallinfo(arena+hblkhd)
        101295 MiB available memory on the node where the printing process lives
------------------
     ethr =  2.34E-06,  avg # of iterations =  1.0

     total cpu time spent up to now is      302.7 secs

     total energy              =   -1084.86879834 Ry
     estimated scf accuracy    <       0.00443728 Ry

     iteration # 20     ecut=    50.00 Ry     beta= 0.30
     Davidson diagonalization with overlap

---- Real-time Memory Report at c_bands before calling an iterative solver
           192 MiB given to the printing process from OS
           167 MiB allocation reported by mallinfo(arena+hblkhd)
        101391 MiB available memory on the node where the printing process lives
------------------
     ethr =  2.34E-06,  avg # of iterations =  1.0

     total cpu time spent up to now is      313.5 secs

     total energy              =   -1084.86505665 Ry
     estimated scf accuracy    <       0.00537109 Ry

     iteration # 21     ecut=    50.00 Ry     beta= 0.30
     Davidson diagonalization with overlap

---- Real-time Memory Report at c_bands before calling an iterative solver
           192 MiB given to the printing process from OS
           167 MiB allocation reported by mallinfo(arena+hblkhd)
        101326 MiB available memory on the node where the printing process lives
------------------
     ethr =  2.34E-06,  avg # of iterations =  7.9

     total cpu time spent up to now is      339.6 secs

     total energy              =   -1084.86718934 Ry
     estimated scf accuracy    <       0.00332324 Ry

     iteration # 22     ecut=    50.00 Ry     beta= 0.30
     Davidson diagonalization with overlap

---- Real-time Memory Report at c_bands before calling an iterative solver
           192 MiB given to the printing process from OS
           167 MiB allocation reported by mallinfo(arena+hblkhd)
        101423 MiB available memory on the node where the printing process lives
------------------
     ethr =  2.34E-06,  avg # of iterations =  1.5

     total cpu time spent up to now is      351.0 secs

     total energy              =   -1084.86635289 Ry
     estimated scf accuracy    <       0.00136458 Ry

     iteration # 23     ecut=    50.00 Ry     beta= 0.30
     Davidson diagonalization with overlap

---- Real-time Memory Report at c_bands before calling an iterative solver
           192 MiB given to the printing process from OS
           167 MiB allocation reported by mallinfo(arena+hblkhd)
        101485 MiB available memory on the node where the printing process lives
------------------
     ethr =  1.26E-06,  avg # of iterations =  6.9

     total cpu time spent up to now is      374.7 secs

     total energy              =   -1084.86729716 Ry
     estimated scf accuracy    <       0.00178733 Ry

     iteration # 24     ecut=    50.00 Ry     beta= 0.30
     Davidson diagonalization with overlap

---- Real-time Memory Report at c_bands before calling an iterative solver
           192 MiB given to the printing process from OS
           167 MiB allocation reported by mallinfo(arena+hblkhd)
        101337 MiB available memory on the node where the printing process lives
------------------
     ethr =  1.26E-06,  avg # of iterations =  1.1

     total cpu time spent up to now is      386.2 secs

     total energy              =   -1084.86699132 Ry
     estimated scf accuracy    <       0.00083668 Ry

     iteration # 25     ecut=    50.00 Ry     beta= 0.30
     Davidson diagonalization with overlap

---- Real-time Memory Report at c_bands before calling an iterative solver
           192 MiB given to the printing process from OS
           167 MiB allocation reported by mallinfo(arena+hblkhd)
        101376 MiB available memory on the node where the printing process lives
------------------
     ethr =  7.75E-07,  avg # of iterations =  3.8

     total cpu time spent up to now is      402.4 secs

     total energy              =   -1084.86727127 Ry
     estimated scf accuracy    <       0.00000243 Ry

     iteration # 26     ecut=    50.00 Ry     beta= 0.30
     Davidson diagonalization with overlap

---- Real-time Memory Report at c_bands before calling an iterative solver
           192 MiB given to the printing process from OS
           167 MiB allocation reported by mallinfo(arena+hblkhd)
        101430 MiB available memory on the node where the printing process lives
------------------
     ethr =  2.25E-09,  avg # of iterations = 11.6

     total cpu time spent up to now is      439.9 secs

     total energy              =   -1084.86729942 Ry
     estimated scf accuracy    <       0.00000067 Ry

     iteration # 27     ecut=    50.00 Ry     beta= 0.30
     Davidson diagonalization with overlap

---- Real-time Memory Report at c_bands before calling an iterative solver
           192 MiB given to the printing process from OS
           167 MiB allocation reported by mallinfo(arena+hblkhd)
        101432 MiB available memory on the node where the printing process lives
------------------
     ethr =  6.23E-10,  avg # of iterations =  6.3

     total cpu time spent up to now is      460.4 secs

     total energy              =   -1084.86729987 Ry
     estimated scf accuracy    <       0.00000367 Ry

     iteration # 28     ecut=    50.00 Ry     beta= 0.30
     Davidson diagonalization with overlap

---- Real-time Memory Report at c_bands before calling an iterative solver
           192 MiB given to the printing process from OS
           167 MiB allocation reported by mallinfo(arena+hblkhd)
        101357 MiB available memory on the node where the printing process lives
------------------
     ethr =  6.23E-10,  avg # of iterations =  1.7

     total cpu time spent up to now is      471.3 secs

     total energy              =   -1084.86729814 Ry
     estimated scf accuracy    <       0.00000404 Ry

     iteration # 29     ecut=    50.00 Ry     beta= 0.30
     Davidson diagonalization with overlap

---- Real-time Memory Report at c_bands before calling an iterative solver
           192 MiB given to the printing process from OS
           167 MiB allocation reported by mallinfo(arena+hblkhd)
        101459 MiB available memory on the node where the printing process lives
------------------
     ethr =  6.23E-10,  avg # of iterations =  6.9

     total cpu time spent up to now is      494.1 secs

     total energy              =   -1084.86729870 Ry
     estimated scf accuracy    <       0.00000008 Ry

     iteration # 30     ecut=    50.00 Ry     beta= 0.30
     Davidson diagonalization with overlap

---- Real-time Memory Report at c_bands before calling an iterative solver
           192 MiB given to the printing process from OS
           167 MiB allocation reported by mallinfo(arena+hblkhd)
        101468 MiB available memory on the node where the printing process lives
------------------
     ethr =  7.42E-11,  avg # of iterations =  5.2

     total cpu time spent up to now is      511.9 secs

     total energy              =   -1084.86729872 Ry
     estimated scf accuracy    <       0.00000004 Ry

     iteration # 31     ecut=    50.00 Ry     beta= 0.30
     Davidson diagonalization with overlap

---- Real-time Memory Report at c_bands before calling an iterative solver
           192 MiB given to the printing process from OS
           167 MiB allocation reported by mallinfo(arena+hblkhd)
        101483 MiB available memory on the node where the printing process lives
------------------
     ethr =  3.76E-11,  avg # of iterations =  2.3

     total cpu time spent up to now is      524.2 secs

     total energy              =   -1084.86729870 Ry
     estimated scf accuracy    <       0.00000005 Ry

     iteration # 32     ecut=    50.00 Ry     beta= 0.30
     Davidson diagonalization with overlap

---- Real-time Memory Report at c_bands before calling an iterative solver
           192 MiB given to the printing process from OS
           167 MiB allocation reported by mallinfo(arena+hblkhd)
        101378 MiB available memory on the node where the printing process lives
------------------
     ethr =  3.76E-11,  avg # of iterations =  4.7

     total cpu time spent up to now is      540.5 secs

     End of self-consistent calculation

          k = 0.0000 0.0000 0.0000 (  5651 PWs)   bands (ev):

   -10.7057 -10.1727 -10.1726 -10.0818  -9.8176  -9.8175   1.3482   1.3482
     1.5980   1.7071   1.7071   1.7152   1.7155   1.7896   1.8735   1.8737
     1.9725   1.9726   2.2309   2.2309   2.3094   2.3095   2.4424   2.4424
     2.8970   2.8971   3.0416   3.0416   3.1151   3.1151   3.2080   3.2080
     3.2410   3.2411   3.4388   3.4389   3.5735   3.6492   3.6493   4.3637
     4.3637   5.3018   5.3018   5.9419   5.9420   6.6673   6.6673   6.9571
     6.9572   7.0251   7.0256   7.3302   7.6607   7.6612

     occupation numbers 
     1.0000   1.0000   1.0000   1.0000   1.0000   1.0000   1.0000   1.0000
     1.0000   1.0000   1.0000   1.0000   1.0000   1.0000   1.0000   1.0000
     1.0000   1.0000   1.0000   1.0000   1.0000   1.0000   1.0000   1.0000
     1.0000   1.0000   1.0000   1.0000   1.0000   1.0000   1.0000   1.0000
     1.0000   1.0000   1.0000   1.0000   1.0000   1.0000   1.0000   1.0000
     1.0000   1.0000   1.0000   1.0000   1.0000   1.0000   1.0000   1.0000
     1.0000   1.0000   1.0000   1.0000   1.0000   1.0000

          k = 0.0000 0.0000 0.0956 (  5639 PWs)   bands (ev):

   -10.6664 -10.1488 -10.1487 -10.1262  -9.8411  -9.8411   1.3312   1.3312
     1.5608   1.6249   1.6250   1.7231   1.7234   1.7478   1.8599   1.8602
     1.9915   1.9915   2.2138   2.2138   2.2825   2.2826   2.3596   2.3596
     2.9386   2.9386   3.0554   3.0555   3.1224   3.1225   3.2002   3.2002
     3.2308   3.2309   3.3553   3.3553   3.8000   3.9270   3.9270   4.4545
     4.4545   5.2713   5.2713   6.0139   6.0140   6.6304   6.6304   6.7679
     6.8915   6.8915   7.0679   7.0684   7.6184   7.6189

     occupation numbers 
     1.0000   1.0000   1.0000   1.0000   1.0000   1.0000   1.0000   1.0000
     1.0000   1.0000   1.0000   1.0000   1.0000   1.0000   1.0000   1.0000
     1.0000   1.0000   1.0000   1.0000   1.0000   1.0000   1.0000   1.0000
     1.0000   1.0000   1.0000   1.0000   1.0000   1.0000   1.0000   1.0000
     1.0000   1.0000   1.0000   1.0000   1.0000   1.0000   1.0000   1.0000
     1.0000   1.0000   1.0000   1.0000   1.0000   1.0000   1.0000   1.0000
     1.0000   1.0000   1.0000   1.0000   1.0000   1.0000

          k = 0.0000 0.0000 0.1912 (  5645 PWs)   bands (ev):

   -10.5572 -10.2456 -10.0834 -10.0834  -9.9057  -9.9056   1.3073   1.3073
     1.4565   1.4565   1.5213   1.6489   1.7460   1.7463   1.8246   1.8248
     2.0455   2.0456   2.1923   2.1923   2.2128   2.2128   2.2603   2.2603
     3.0348   3.0348   3.0909   3.0909   3.1431   3.1432   3.1750   3.1750
     3.2049   3.2049   3.2567   3.2567   4.2748   4.2748   4.3706   4.6056
     4.6056   5.4128   5.4129   5.9389   6.2064   6.2064   6.4124   6.4124
     6.7112   6.7113   7.1846   7.1851   7.5025   7.5030

     occupation numbers 
     1.0000   1.0000   1.0000   1.0000   1.0000   1.0000   1.0000   1.0000
     1.0000   1.0000   1.0000   1.0000   1.0000   1.0000   1.0000   1.0000
     1.0000   1.0000   1.0000   1.0000   1.0000   1.0000   1.0000   1.0000
     1.0000   1.0000   1.0000   1.0000   1.0000   1.0000   1.0000   1.0000
     1.0000   1.0000   1.0000   1.0000   1.0000   1.0000   1.0000   1.0000
     1.0000   1.0000   1.0000   1.0000   1.0000   1.0000   1.0000   1.0000
     1.0000   1.0000   1.0000   1.0000   1.0000   1.0000

          k = 0.0000 0.0000-0.2868 (  5640 PWs)   bands (ev):

   -10.4039 -10.4039  -9.9944  -9.9944  -9.9943  -9.9943   1.3362   1.3362
     1.3362   1.3362   1.5543   1.5543   1.7823   1.7823   1.7825   1.7825
     2.1253   2.1253   2.1254   2.1254   2.2055   2.2056   2.2056   2.2056
     3.1355   3.1355   3.1355   3.1355   3.1477   3.1477   3.1478   3.1478
     3.1729   3.1729   3.1730   3.1730   4.5045   4.5045   4.5045   4.5045
     5.1194   5.1194   5.9350   5.9350   5.9350   5.9351   6.4618   6.4618
     6.4618   6.4618   7.3437   7.3437   7.3442   7.3442

     occupation numbers 
     1.0000   1.0000   1.0000   1.0000   1.0000   1.0000   1.0000   1.0000
     1.0000   1.0000   1.0000   1.0000   1.0000   1.0000   1.0000   1.0000
     1.0000   1.0000   1.0000   1.0000   1.0000   1.0000   1.0000   1.0000
     1.0000   1.0000   1.0000   1.0000   1.0000   1.0000   1.0000   1.0000
     1.0000   1.0000   1.0000   1.0000   1.0000   1.0000   1.0000   1.0000
     1.0000   1.0000   1.0000   1.0000   1.0000   1.0000   1.0000   1.0000
     1.0000   1.0000   1.0000   1.0000   1.0000   1.0000

          k = 0.0000 0.0642 0.0000 (  5659 PWs)   bands (ev):

   -10.6862 -10.2998 -10.0705 -10.0600  -9.8699  -9.7812   1.3623   1.3784
     1.6255   1.6619   1.6966   1.7276   1.7445   1.8014   1.8695   1.8892
     1.9264   2.0042   2.1100   2.2027   2.2821   2.3572   2.4016   2.4999
     2.8888   2.9717   3.0324   3.0399   3.0741   3.1630   3.2092   3.2197
     3.2290   3.2561   3.4539   3.4584   3.5300   3.5694   3.6898   4.0143
     4.8710   4.9884   5.6827   5.7301   6.1889   6.4458   6.8187   6.8783
     6.8973   6.9832   7.1203   7.2751   7.4198   7.6350

     occupation numbers 
     1.0000   1.0000   1.0000   1.0000   1.0000   1.0000   1.0000   1.0000
     1.0000   1.0000   1.0000   1.0000   1.0000   1.0000   1.0000   1.0000
     1.0000   1.0000   1.0000   1.0000   1.0000   1.0000   1.0000   1.0000
     1.0000   1.0000   1.0000   1.0000   1.0000   1.0000   1.0000   1.0000
     1.0000   1.0000   1.0000   1.0000   1.0000   1.0000   1.0000   1.0000
     1.0000   1.0000   1.0000   1.0000   1.0000   1.0000   1.0000   1.0000
     1.0000   1.0000   1.0000   1.0000   1.0000   1.0000

          k = 0.0000 0.0642 0.0956 (  5656 PWs)   bands (ev):

   -10.6473 -10.2714 -10.1143 -10.0407  -9.8991  -9.7991   1.3409   1.3624
     1.5787   1.5872   1.6551   1.6853   1.7354   1.7784   1.8614   1.8750
     1.9419   2.0264   2.0958   2.1806   2.2190   2.3358   2.3695   2.4385
     2.9310   3.0003   3.0473   3.0536   3.0843   3.1677   3.2008   3.2065
     3.2181   3.2472   3.3269   3.3895   3.8028   3.8048   3.9048   4.1503
     4.9345   5.0405   5.6155   5.8088   6.2538   6.4482   6.7204   6.7490
     6.8008   6.9460   7.0271   7.0595   7.4928   7.5916

     occupation numbers 
     1.0000   1.0000   1.0000   1.0000   1.0000   1.0000   1.0000   1.0000
     1.0000   1.0000   1.0000   1.0000   1.0000   1.0000   1.0000   1.0000
     1.0000   1.0000   1.0000   1.0000   1.0000   1.0000   1.0000   1.0000
     1.0000   1.0000   1.0000   1.0000   1.0000   1.0000   1.0000   1.0000
     1.0000   1.0000   1.0000   1.0000   1.0000   1.0000   1.0000   1.0000
     1.0000   1.0000   1.0000   1.0000   1.0000   1.0000   1.0000   1.0000
     1.0000   1.0000   1.0000   1.0000   1.0000   1.0000

          k = 0.0000 0.0642 0.1912 (  5652 PWs)   bands (ev):

   -10.5395 -10.2319 -10.1936  -9.9884  -9.9785  -9.8488   1.3071   1.3381
     1.4339   1.4800   1.5231   1.6213   1.7590   1.7693   1.8331   1.8392
     1.9863   2.0810   2.0896   2.1233   2.1432   2.2866   2.3049   2.3561
     3.0231   3.0822   3.0858   3.0895   3.1121   3.1748   3.1769   3.1811
     3.1888   3.2258   3.2312   3.2900   3.9727   4.2445   4.3805   4.4470
     5.0289   5.3892   5.5976   5.9317   6.0174   6.3271   6.4287   6.5020
     6.5575   6.8928   7.0648   7.1468   7.3935   7.4728

     occupation numbers 
     1.0000   1.0000   1.0000   1.0000   1.0000   1.0000   1.0000   1.0000
     1.0000   1.0000   1.0000   1.0000   1.0000   1.0000   1.0000   1.0000
     1.0000   1.0000   1.0000   1.0000   1.0000   1.0000   1.0000   1.0000
     1.0000   1.0000   1.0000   1.0000   1.0000   1.0000   1.0000   1.0000
     1.0000   1.0000   1.0000   1.0000   1.0000   1.0000   1.0000   1.0000
     1.0000   1.0000   1.0000   1.0000   1.0000   1.0000   1.0000   1.0000
     1.0000   1.0000   1.0000   1.0000   1.0000   1.0000

          k = 0.0000 0.0642-0.2868 (  5644 PWs)   bands (ev):

   -10.3881 -10.3881 -10.0865 -10.0865  -9.9179  -9.9179   1.3257   1.3257
     1.3631   1.3631   1.5420   1.5420   1.7961   1.7961   1.7962   1.7962
     2.0513   2.0513   2.0965   2.0965   2.1834   2.1834   2.3099   2.3099
     3.1295   3.1295   3.1337   3.1338   3.1346   3.1346   3.1498   3.1499
     3.1856   3.1856   3.2019   3.2019   4.1368   4.1368   4.8512   4.8512
     5.1276   5.1276   5.9362   5.9362   5.9984   5.9984   6.2916   6.2916
     6.6627   6.6627   7.2302   7.2302   7.3101   7.3101

     occupation numbers 
     1.0000   1.0000   1.0000   1.0000   1.0000   1.0000   1.0000   1.0000
     1.0000   1.0000   1.0000   1.0000   1.0000   1.0000   1.0000   1.0000
     1.0000   1.0000   1.0000   1.0000   1.0000   1.0000   1.0000   1.0000
     1.0000   1.0000   1.0000   1.0000   1.0000   1.0000   1.0000   1.0000
     1.0000   1.0000   1.0000   1.0000   1.0000   1.0000   1.0000   1.0000
     1.0000   1.0000   1.0000   1.0000   1.0000   1.0000   1.0000   1.0000
     1.0000   1.0000   1.0000   1.0000   1.0000   1.0000

          k = 0.0000 0.1283 0.0000 (  5667 PWs)   bands (ev):

   -10.6294 -10.4267 -10.0382  -9.9785  -9.9302  -9.7640   1.4140   1.4459
     1.6044   1.6166   1.7364   1.7613   1.7789   1.8228   1.8702   1.8705
     1.9338   2.0029   2.0220   2.0793   2.0973   2.4533   2.4639   2.5106
     2.9241   3.0066   3.0365   3.0389   3.0482   3.2032   3.2119   3.2211
     3.2542   3.2696   3.4013   3.4519   3.5058   3.5563   3.6145   3.9162
     4.7998   5.4382   5.5846   6.0941   6.2621   6.4417   6.5321   6.7252
     6.8611   6.9268   7.0555   7.2872   7.2899   7.5584

     occupation numbers 
     1.0000   1.0000   1.0000   1.0000   1.0000   1.0000   1.0000   1.0000
     1.0000   1.0000   1.0000   1.0000   1.0000   1.0000   1.0000   1.0000
     1.0000   1.0000   1.0000   1.0000   1.0000   1.0000   1.0000   1.0000
     1.0000   1.0000   1.0000   1.0000   1.0000   1.0000   1.0000   1.0000
     1.0000   1.0000   1.0000   1.0000   1.0000   1.0000   1.0000   1.0000
     1.0000   1.0000   1.0000   1.0000   1.0000   1.0000   1.0000   1.0000
     1.0000   1.0000   1.0000   1.0000   1.0000   1.0000

          k = 0.0000 0.1283 0.0956 (  5665 PWs)   bands (ev):

   -10.5918 -10.3945 -10.0800  -9.9645  -9.9632  -9.7773   1.3842   1.4281
     1.5387   1.5879   1.6550   1.6776   1.7699   1.8242   1.8781   1.8825
     1.9190   1.9885   2.0462   2.0619   2.0787   2.4278   2.4352   2.4673
     2.9569   3.0248   3.0504   3.0604   3.0801   3.2024   3.2059   3.2099
     3.2259   3.2618   3.2928   3.4142   3.6327   3.8121   3.8613   3.9614
     4.9682   5.4821   5.6683   6.0000   6.2930   6.4973   6.4999   6.6528
     6.6716   6.9083   6.9487   7.2316   7.2681   7.5121

     occupation numbers 
     1.0000   1.0000   1.0000   1.0000   1.0000   1.0000   1.0000   1.0000
     1.0000   1.0000   1.0000   1.0000   1.0000   1.0000   1.0000   1.0000
     1.0000   1.0000   1.0000   1.0000   1.0000   1.0000   1.0000   1.0000
     1.0000   1.0000   1.0000   1.0000   1.0000   1.0000   1.0000   1.0000
     1.0000   1.0000   1.0000   1.0000   1.0000   1.0000   1.0000   1.0000
     1.0000   1.0000   1.0000   1.0000   1.0000   1.0000   1.0000   1.0000
     1.0000   1.0000   1.0000   1.0000   1.0000   1.0000

          k = 0.0000 0.1283 0.1912 (  5645 PWs)   bands (ev):

   -10.4879 -10.3057 -10.1925 -10.0575  -9.9220  -9.8146   1.3306   1.3960
     1.4085   1.5056   1.5175   1.5659   1.7956   1.8201   1.8652   1.8813
     1.9181   1.9788   2.0271   2.0308   2.1160   2.3347   2.3996   2.4154
     3.0332   3.0716   3.0867   3.0932   3.1618   3.1748   3.1795   3.1830
     3.2103   3.2140   3.2446   3.3338   3.7183   3.9337   4.4079   4.4743
     5.4371   5.4607   5.8889   5.8931   5.9239   6.2516   6.4537   6.6275
     6.6573   6.7468   7.0368   7.0792   7.1321   7.3853

     occupation numbers 
     1.0000   1.0000   1.0000   1.0000   1.0000   1.0000   1.0000   1.0000
     1.0000   1.0000   1.0000   1.0000   1.0000   1.0000   1.0000   1.0000
     1.0000   1.0000   1.0000   1.0000   1.0000   1.0000   1.0000   1.0000
     1.0000   1.0000   1.0000   1.0000   1.0000   1.0000   1.0000   1.0000
     1.0000   1.0000   1.0000   1.0000   1.0000   1.0000   1.0000   1.0000
     1.0000   1.0000   1.0000   1.0000   1.0000   1.0000   1.0000   1.0000
     1.0000   1.0000   1.0000   1.0000   1.0000   1.0000

          k = 0.0000 0.1283-0.2868 (  5638 PWs)   bands (ev):

   -10.3423 -10.3423 -10.1826 -10.1826  -9.8673  -9.8673   1.3254   1.3254
     1.4062   1.4062   1.5073   1.5073   1.8354   1.8354   1.8378   1.8378
     1.9715   1.9715   1.9938   1.9938   2.2195   2.2195   2.3907   2.3907
     3.1238   3.1238   3.1297   3.1297   3.1327   3.1327   3.1369   3.1369
     3.2272   3.2272   3.2490   3.2490   3.8318   3.8318   5.0729   5.0729
     5.1449   5.1449   5.9507   5.9508   6.1764   6.1764   6.2061   6.2061
     6.8695   6.8695   6.9350   6.9350   7.2114   7.2114

     occupation numbers 
     1.0000   1.0000   1.0000   1.0000   1.0000   1.0000   1.0000   1.0000
     1.0000   1.0000   1.0000   1.0000   1.0000   1.0000   1.0000   1.0000
     1.0000   1.0000   1.0000   1.0000   1.0000   1.0000   1.0000   1.0000
     1.0000   1.0000   1.0000   1.0000   1.0000   1.0000   1.0000   1.0000
     1.0000   1.0000   1.0000   1.0000   1.0000   1.0000   1.0000   1.0000
     1.0000   1.0000   1.0000   1.0000   1.0000   1.0000   1.0000   1.0000
     1.0000   1.0000   1.0000   1.0000   1.0000   1.0000

          k = 0.0000-0.1925 0.0000 (  5684 PWs)   bands (ev):

   -10.5402 -10.5401  -9.9892  -9.9892  -9.9475  -9.7606   1.4590   1.5332
     1.5333   1.5603   1.8090   1.8091   1.8116   1.8117   1.8804   1.8805
     1.9254   1.9255   2.0049   2.0050   2.0275   2.4624   2.4858   2.5450
     2.9681   2.9682   3.0371   3.0372   3.0594   3.2157   3.2158   3.2192
     3.2750   3.3143   3.3144   3.3662   3.5342   3.5343   3.7076   3.8393
     4.7497   5.5323   6.0127   6.0127   6.1873   6.5130   6.5130   6.6738
     6.6739   6.6920   7.1915   7.1915   7.4385   7.4386

     occupation numbers 
     1.0000   1.0000   1.0000   1.0000   1.0000   1.0000   1.0000   1.0000
     1.0000   1.0000   1.0000   1.0000   1.0000   1.0000   1.0000   1.0000
     1.0000   1.0000   1.0000   1.0000   1.0000   1.0000   1.0000   1.0000
     1.0000   1.0000   1.0000   1.0000   1.0000   1.0000   1.0000   1.0000
     1.0000   1.0000   1.0000   1.0000   1.0000   1.0000   1.0000   1.0000
     1.0000   1.0000   1.0000   1.0000   1.0000   1.0000   1.0000   1.0000
     1.0000   1.0000   1.0000   1.0000   1.0000   1.0000

          k = 0.0000-0.1925 0.0956 (  5670 PWs)   bands (ev):

   -10.5049 -10.5048 -10.0278 -10.0277  -9.9339  -9.7719   1.4235   1.5005
     1.5124   1.5125   1.6810   1.6810   1.8217   1.8218   1.8926   1.8926
     1.9401   1.9401   1.9887   1.9888   2.0526   2.4482   2.4507   2.5011
     2.9924   2.9924   3.0505   3.0506   3.1170   3.2053   3.2054   3.2211
     3.2564   3.2565   3.2678   3.3629   3.6897   3.8085   3.8300   3.8301
     4.9691   5.6180   6.0310   6.0310   6.2285   6.3679   6.3679   6.6187
     6.7259   6.7260   7.0898   7.0899   7.3879   7.3880

     occupation numbers 
     1.0000   1.0000   1.0000   1.0000   1.0000   1.0000   1.0000   1.0000
     1.0000   1.0000   1.0000   1.0000   1.0000   1.0000   1.0000   1.0000
     1.0000   1.0000   1.0000   1.0000   1.0000   1.0000   1.0000   1.0000
     1.0000   1.0000   1.0000   1.0000   1.0000   1.0000   1.0000   1.0000
     1.0000   1.0000   1.0000   1.0000   1.0000   1.0000   1.0000   1.0000
     1.0000   1.0000   1.0000   1.0000   1.0000   1.0000   1.0000   1.0000
     1.0000   1.0000   1.0000   1.0000   1.0000   1.0000

          k = 0.0000-0.1925 0.1912 (  5642 PWs)   bands (ev):

   -10.4073 -10.4073 -10.1320 -10.1319  -9.8975  -9.8039   1.3541   1.3870
     1.4674   1.4674   1.5300   1.5300   1.8513   1.8514   1.8902   1.8902
     1.9305   1.9305   1.9472   1.9473   2.1246   2.3513   2.4298   2.4445
     3.0521   3.0522   3.0862   3.0863   3.1756   3.1757   3.1940   3.1941
     3.2174   3.2272   3.2521   3.3457   3.6746   3.7446   4.4452   4.4453
     5.4662   5.7635   5.7635   5.8431   6.2187   6.3291   6.3291   6.4169
     6.8420   6.8420   6.8674   6.8675   7.2494   7.2495

     occupation numbers 
     1.0000   1.0000   1.0000   1.0000   1.0000   1.0000   1.0000   1.0000
     1.0000   1.0000   1.0000   1.0000   1.0000   1.0000   1.0000   1.0000
     1.0000   1.0000   1.0000   1.0000   1.0000   1.0000   1.0000   1.0000
     1.0000   1.0000   1.0000   1.0000   1.0000   1.0000   1.0000   1.0000
     1.0000   1.0000   1.0000   1.0000   1.0000   1.0000   1.0000   1.0000
     1.0000   1.0000   1.0000   1.0000   1.0000   1.0000   1.0000   1.0000
     1.0000   1.0000   1.0000   1.0000   1.0000   1.0000

          k = 0.0000-0.1925-0.2868 (  5672 PWs)   bands (ev):

   -10.2713 -10.2713 -10.2712 -10.2712  -9.8496  -9.8496   1.3266   1.3266
     1.4579   1.4579   1.4579   1.4580   1.8961   1.8961   1.8962   1.8962
     1.9051   1.9051   1.9051   1.9051   2.2318   2.2318   2.4224   2.4224
     3.1249   3.1249   3.1250   3.1250   3.1322   3.1322   3.1323   3.1323
     3.2374   3.2374   3.2987   3.2987   3.6925   3.6925   5.1458   5.1459
     5.1459   5.1459   5.9575   5.9575   6.1355   6.1355   6.5554   6.5554
     6.5554   6.5554   7.0591   7.0591   7.0592   7.0592

     occupation numbers 
     1.0000   1.0000   1.0000   1.0000   1.0000   1.0000   1.0000   1.0000
     1.0000   1.0000   1.0000   1.0000   1.0000   1.0000   1.0000   1.0000
     1.0000   1.0000   1.0000   1.0000   1.0000   1.0000   1.0000   1.0000
     1.0000   1.0000   1.0000   1.0000   1.0000   1.0000   1.0000   1.0000
     1.0000   1.0000   1.0000   1.0000   1.0000   1.0000   1.0000   1.0000
     1.0000   1.0000   1.0000   1.0000   1.0000   1.0000   1.0000   1.0000
     1.0000   1.0000   1.0000   1.0000   1.0000   1.0000

          k = 0.1667 0.0962 0.0000 (  5660 PWs)   bands (ev):

   -10.5402 -10.2721  -9.9892  -9.9564  -9.8572  -9.7573   1.4813   1.5334
     1.5637   1.7083   1.7826   1.8091   1.8114   1.8805   1.9255   1.9704
     1.9848   2.0047   2.0252   2.2599   2.3131   2.3233   2.4913   2.5471
     2.9010   2.9589   2.9681   3.0372   3.0584   3.0830   3.2158   3.2303
     3.2987   3.3144   3.4635   3.5342   3.5349   3.5910   3.6207   4.2272
     4.7229   5.0668   5.0893   5.3634   5.9744   6.0130   6.1561   6.3966
     6.5133   6.6735   6.8827   6.9070   7.1915   7.4382

     occupation numbers 
     1.0000   1.0000   1.0000   1.0000   1.0000   1.0000   1.0000   1.0000
     1.0000   1.0000   1.0000   1.0000   1.0000   1.0000   1.0000   1.0000
     1.0000   1.0000   1.0000   1.0000   1.0000   1.0000   1.0000   1.0000
     1.0000   1.0000   1.0000   1.0000   1.0000   1.0000   1.0000   1.0000
     1.0000   1.0000   1.0000   1.0000   1.0000   1.0000   1.0000   1.0000
     1.0000   1.0000   1.0000   1.0000   1.0000   1.0000   1.0000   1.0000
     1.0000   1.0000   1.0000   1.0000   1.0000   1.0000

          k = 0.1667 0.0962 0.0956 (  5654 PWs)   bands (ev):

   -10.5049 -10.2446 -10.0278  -9.9421  -9.8852  -9.7695   1.4580   1.5126
     1.5422   1.6491   1.6811   1.7199   1.8215   1.8926   1.9402   1.9528
     1.9774   1.9885   2.0232   2.2411   2.2431   2.2956   2.4498   2.4809
     2.9384   2.9845   2.9924   3.0506   3.0815   3.1419   3.2054   3.2198
     3.2565   3.2976   3.3509   3.5143   3.6653   3.8301   3.9380   4.2436
     4.8368   5.1813   5.1937   5.3206   5.9958   6.0312   6.1302   6.3680
     6.3716   6.7256   6.8151   6.8374   7.0899   7.3876

     occupation numbers 
     1.0000   1.0000   1.0000   1.0000   1.0000   1.0000   1.0000   1.0000
     1.0000   1.0000   1.0000   1.0000   1.0000   1.0000   1.0000   1.0000
     1.0000   1.0000   1.0000   1.0000   1.0000   1.0000   1.0000   1.0000
     1.0000   1.0000   1.0000   1.0000   1.0000   1.0000   1.0000   1.0000
     1.0000   1.0000   1.0000   1.0000   1.0000   1.0000   1.0000   1.0000
     1.0000   1.0000   1.0000   1.0000   1.0000   1.0000   1.0000   1.0000
     1.0000   1.0000   1.0000   1.0000   1.0000   1.0000

          k = 0.1667 0.0962 0.1912 (  5639 PWs)   bands (ev):

   -10.4073 -10.1693 -10.1319  -9.9617  -9.9036  -9.8038   1.4151   1.4675
     1.4977   1.5084   1.5301   1.5872   1.8511   1.8903   1.9306   1.9471
     1.9489   1.9678   2.0459   2.1733   2.1966   2.2158   2.3852   2.4146
     3.0305   3.0522   3.0736   3.0863   3.1172   3.1757   3.1773   3.1928
     3.1941   3.2518   3.3043   3.4254   3.8222   4.1578   4.4453   4.4695
     5.1606   5.1639   5.4848   5.5212   5.7636   5.9711   6.1072   6.3129
     6.3294   6.5561   6.6516   6.8422   6.8671   7.2491

     occupation numbers 
     1.0000   1.0000   1.0000   1.0000   1.0000   1.0000   1.0000   1.0000
     1.0000   1.0000   1.0000   1.0000   1.0000   1.0000   1.0000   1.0000
     1.0000   1.0000   1.0000   1.0000   1.0000   1.0000   1.0000   1.0000
     1.0000   1.0000   1.0000   1.0000   1.0000   1.0000   1.0000   1.0000
     1.0000   1.0000   1.0000   1.0000   1.0000   1.0000   1.0000   1.0000
     1.0000   1.0000   1.0000   1.0000   1.0000   1.0000   1.0000   1.0000
     1.0000   1.0000   1.0000   1.0000   1.0000   1.0000

          k = 0.1667 0.0962-0.2868 (  5652 PWs)   bands (ev):

   -10.2713 -10.2713 -10.0658 -10.0658  -9.8527  -9.8527   1.4162   1.4162
     1.4580   1.4580   1.4973   1.4973   1.8960   1.8960   1.9052   1.9052
     1.9612   1.9612   2.1181   2.1181   2.1614   2.1614   2.3783   2.3783
     3.1250   3.1250   3.1323   3.1323   3.1363   3.1363   3.1540   3.1540
     3.1628   3.1628   3.3427   3.3427   3.9991   3.9991   4.8841   4.8841
     5.1459   5.1459   5.5102   5.5102   5.9734   5.9734   6.0846   6.0846
     6.4256   6.4256   6.5557   6.5557   7.0588   7.0588

     occupation numbers 
     1.0000   1.0000   1.0000   1.0000   1.0000   1.0000   1.0000   1.0000
     1.0000   1.0000   1.0000   1.0000   1.0000   1.0000   1.0000   1.0000
     1.0000   1.0000   1.0000   1.0000   1.0000   1.0000   1.0000   1.0000
     1.0000   1.0000   1.0000   1.0000   1.0000   1.0000   1.0000   1.0000
     1.0000   1.0000   1.0000   1.0000   1.0000   1.0000   1.0000   1.0000
     1.0000   1.0000   1.0000   1.0000   1.0000   1.0000   1.0000   1.0000
     1.0000   1.0000   1.0000   1.0000   1.0000   1.0000

          k = 0.1667 0.1604 0.0000 (  5673 PWs)   bands (ev):

   -10.4736 -10.3813  -9.9541  -9.9078  -9.9011  -9.7544   1.4809   1.4980
     1.5785   1.7388   1.7785   1.8327   1.8405   1.8832   1.9473   1.9640
     2.0161   2.0276   2.0694   2.1595   2.1733   2.3861   2.5284   2.5535
     2.9229   2.9454   3.0232   3.0382   3.0419   3.0816   3.2175   3.2209
     3.3106   3.3654   3.3667   3.4441   3.5071   3.5181   3.7445   4.0599
     4.5299   5.2048   5.4180   5.7208   5.7637   5.9345   6.1837   6.3218
     6.3219   6.5576   7.0198   7.1200   7.1355   7.3245

     occupation numbers 
     1.0000   1.0000   1.0000   1.0000   1.0000   1.0000   1.0000   1.0000
     1.0000   1.0000   1.0000   1.0000   1.0000   1.0000   1.0000   1.0000
     1.0000   1.0000   1.0000   1.0000   1.0000   1.0000   1.0000   1.0000
     1.0000   1.0000   1.0000   1.0000   1.0000   1.0000   1.0000   1.0000
     1.0000   1.0000   1.0000   1.0000   1.0000   1.0000   1.0000   1.0000
     1.0000   1.0000   1.0000   1.0000   1.0000   1.0000   1.0000   1.0000
     1.0000   1.0000   1.0000   1.0000   1.0000   1.0000

          k = 0.1667 0.1604 0.0956 (  5643 PWs)   bands (ev):

   -10.4401 -10.3504  -9.9902  -9.9403  -9.8901  -9.7629   1.4598   1.4780
     1.5613   1.6593   1.6743   1.7596   1.8464   1.8831   1.9318   1.9521
     2.0137   2.0239   2.0535   2.1310   2.1454   2.3587   2.4886   2.5206
     2.9553   2.9737   3.0523   3.0546   3.0591   3.1206   3.2067   3.2099
     3.2805   3.3140   3.3205   3.3951   3.7072   3.8485   3.8843   4.0169
     4.6971   5.3426   5.4754   5.7143   5.7563   5.9341   6.0993   6.2904
     6.3389   6.5854   6.9261   7.0125   7.0745   7.2703

     occupation numbers 
     1.0000   1.0000   1.0000   1.0000   1.0000   1.0000   1.0000   1.0000
     1.0000   1.0000   1.0000   1.0000   1.0000   1.0000   1.0000   1.0000
     1.0000   1.0000   1.0000   1.0000   1.0000   1.0000   1.0000   1.0000
     1.0000   1.0000   1.0000   1.0000   1.0000   1.0000   1.0000   1.0000
     1.0000   1.0000   1.0000   1.0000   1.0000   1.0000   1.0000   1.0000
     1.0000   1.0000   1.0000   1.0000   1.0000   1.0000   1.0000   1.0000
     1.0000   1.0000   1.0000   1.0000   1.0000   1.0000

          k = 0.1667 0.1604 0.1912 (  5636 PWs)   bands (ev):

   -10.3476 -10.2654 -10.0878 -10.0286  -9.8608  -9.7873   1.4187   1.4371
     1.5042   1.5145   1.5216   1.6092   1.8751   1.9019   1.9185   1.9374
     1.9931   2.0152   2.0482   2.0860   2.1062   2.2562   2.4511   2.4774
     3.0347   3.0423   3.0877   3.0949   3.1133   3.1524   3.1762   3.1798
     3.2055   3.2250   3.3580   3.4434   3.6877   3.9055   4.4678   4.4873
     5.0496   5.4216   5.6242   5.6599   5.7693   5.8113   6.0758   6.2527
     6.4303   6.6412   6.6725   6.7565   6.9089   7.1218

     occupation numbers 
     1.0000   1.0000   1.0000   1.0000   1.0000   1.0000   1.0000   1.0000
     1.0000   1.0000   1.0000   1.0000   1.0000   1.0000   1.0000   1.0000
     1.0000   1.0000   1.0000   1.0000   1.0000   1.0000   1.0000   1.0000
     1.0000   1.0000   1.0000   1.0000   1.0000   1.0000   1.0000   1.0000
     1.0000   1.0000   1.0000   1.0000   1.0000   1.0000   1.0000   1.0000
     1.0000   1.0000   1.0000   1.0000   1.0000   1.0000   1.0000   1.0000
     1.0000   1.0000   1.0000   1.0000   1.0000   1.0000

          k = 0.1667 0.1604-0.2868 (  5628 PWs)   bands (ev):

   -10.2190 -10.2190 -10.1478 -10.1478  -9.8228  -9.8228   1.4164   1.4164
     1.4326   1.4326   1.5192   1.5192   1.9065   1.9065   1.9251   1.9251
     1.9840   1.9840   2.0762   2.0762   2.1326   2.1326   2.4523   2.4523
     3.1247   3.1247   3.1287   3.1287   3.1340   3.1340   3.1415   3.1415
     3.1480   3.1480   3.4165   3.4165   3.7752   3.7752   5.0459   5.0459
     5.1209   5.1209   5.4270   5.4270   6.0808   6.0808   6.1387   6.1387
     6.3451   6.3451   6.6914   6.6914   6.9203   6.9203

     occupation numbers 
     1.0000   1.0000   1.0000   1.0000   1.0000   1.0000   1.0000   1.0000
     1.0000   1.0000   1.0000   1.0000   1.0000   1.0000   1.0000   1.0000
     1.0000   1.0000   1.0000   1.0000   1.0000   1.0000   1.0000   1.0000
     1.0000   1.0000   1.0000   1.0000   1.0000   1.0000   1.0000   1.0000
     1.0000   1.0000   1.0000   1.0000   1.0000   1.0000   1.0000   1.0000
     1.0000   1.0000   1.0000   1.0000   1.0000   1.0000   1.0000   1.0000
     1.0000   1.0000   1.0000   1.0000   1.0000   1.0000

          k = 0.1667-0.0321 0.0000 (  5645 PWs)   bands (ev):

   -10.5750 -10.1566 -10.0470 -10.0081  -9.8105  -9.7754   1.5012   1.5345
     1.5839   1.6995   1.7235   1.7331   1.8347   1.8625   1.8777   1.9832
     1.9991   2.0155   2.0962   2.2227   2.3541   2.4214   2.4333   2.4990
     2.8860   2.8984   2.9852   3.0340   3.0833   3.0927   3.2134   3.2483
     3.2739   3.2913   3.4682   3.5116   3.5432   3.7147   3.7329   4.3949
     4.7071   4.9384   5.0874   5.1642   5.5639   6.2585   6.4177   6.5360
     6.5373   6.6658   6.7130   6.8235   7.2322   7.4700

     occupation numbers 
     1.0000   1.0000   1.0000   1.0000   1.0000   1.0000   1.0000   1.0000
     1.0000   1.0000   1.0000   1.0000   1.0000   1.0000   1.0000   1.0000
     1.0000   1.0000   1.0000   1.0000   1.0000   1.0000   1.0000   1.0000
     1.0000   1.0000   1.0000   1.0000   1.0000   1.0000   1.0000   1.0000
     1.0000   1.0000   1.0000   1.0000   1.0000   1.0000   1.0000   1.0000
     1.0000   1.0000   1.0000   1.0000   1.0000   1.0000   1.0000   1.0000
     1.0000   1.0000   1.0000   1.0000   1.0000   1.0000

          k = 0.1667-0.0321 0.0956 (  5662 PWs)   bands (ev):

   -10.5388 -10.1333 -10.0479 -10.0282  -9.8334  -9.7928   1.4754   1.5087
     1.5616   1.6510   1.6523   1.6761   1.8066   1.8567   1.9111   1.9683
     1.9908   2.0120   2.0729   2.1952   2.3253   2.3340   2.3932   2.4109
     2.9289   2.9396   3.0064   3.0480   3.1163   3.1413   3.2032   3.2396
     3.2458   3.2683   3.3927   3.4524   3.8228   3.8750   3.9724   4.4918
     4.8102   4.9762   5.0774   5.2512   5.6045   6.2695   6.3583   6.4145
     6.5140   6.5928   6.6742   6.8078   7.1548   7.4206

     occupation numbers 
     1.0000   1.0000   1.0000   1.0000   1.0000   1.0000   1.0000   1.0000
     1.0000   1.0000   1.0000   1.0000   1.0000   1.0000   1.0000   1.0000
     1.0000   1.0000   1.0000   1.0000   1.0000   1.0000   1.0000   1.0000
     1.0000   1.0000   1.0000   1.0000   1.0000   1.0000   1.0000   1.0000
     1.0000   1.0000   1.0000   1.0000   1.0000   1.0000   1.0000   1.0000
     1.0000   1.0000   1.0000   1.0000   1.0000   1.0000   1.0000   1.0000
     1.0000   1.0000   1.0000   1.0000   1.0000   1.0000

          k = 0.1667-0.0321 0.1912 (  5651 PWs)   bands (ev):

   -10.4387 -10.1554 -10.0694  -9.9771  -9.8962  -9.8411   1.4298   1.4613
     1.5043   1.5270   1.5309   1.5557   1.8242   1.8495   1.9072   1.9317
     1.9930   2.0278   2.0391   2.1352   2.2427   2.2761   2.3087   2.3429
     3.0326   3.0458   3.0608   3.0846   3.1518   3.1742   3.1778   3.1907
     3.2194   3.2584   3.2895   3.3490   4.1024   4.3492   4.4321   4.4801
     4.8290   5.3145   5.3413   5.4913   5.7605   5.8310   6.1612   6.3903
     6.3982   6.4820   6.4881   6.8908   6.9796   7.2858

     occupation numbers 
     1.0000   1.0000   1.0000   1.0000   1.0000   1.0000   1.0000   1.0000
     1.0000   1.0000   1.0000   1.0000   1.0000   1.0000   1.0000   1.0000
     1.0000   1.0000   1.0000   1.0000   1.0000   1.0000   1.0000   1.0000
     1.0000   1.0000   1.0000   1.0000   1.0000   1.0000   1.0000   1.0000
     1.0000   1.0000   1.0000   1.0000   1.0000   1.0000   1.0000   1.0000
     1.0000   1.0000   1.0000   1.0000   1.0000   1.0000   1.0000   1.0000
     1.0000   1.0000   1.0000   1.0000   1.0000   1.0000

          k = 0.1667-0.0321-0.2868 (  5644 PWs)   bands (ev):

   -10.2989 -10.2989  -9.9826  -9.9826  -9.9084  -9.9084   1.4334   1.4334
     1.4640   1.4640   1.4794   1.4794   1.8486   1.8486   1.8997   1.8997
     2.0158   2.0158   2.0767   2.0767   2.2319   2.2319   2.2973   2.2973
     3.1273   3.1273   3.1319   3.1319   3.1457   3.1457   3.1533   3.1533
     3.2048   3.2049   3.2672   3.2673   4.3110   4.3110   4.6270   4.6270
     5.1513   5.1513   5.6593   5.6593   5.8275   5.8275   6.1111   6.1111
     6.2108   6.2108   6.7031   6.7031   7.1036   7.1036

     occupation numbers 
     1.0000   1.0000   1.0000   1.0000   1.0000   1.0000   1.0000   1.0000
     1.0000   1.0000   1.0000   1.0000   1.0000   1.0000   1.0000   1.0000
     1.0000   1.0000   1.0000   1.0000   1.0000   1.0000   1.0000   1.0000
     1.0000   1.0000   1.0000   1.0000   1.0000   1.0000   1.0000   1.0000
     1.0000   1.0000   1.0000   1.0000   1.0000   1.0000   1.0000   1.0000
     1.0000   1.0000   1.0000   1.0000   1.0000   1.0000   1.0000   1.0000
     1.0000   1.0000   1.0000   1.0000   1.0000   1.0000

          k = 0.3333 0.1925 0.0000 (  5619 PWs)   bands (ev):

   -10.1727 -10.1726  -9.8176  -9.8175  -9.7883  -9.7883   1.3484   1.3484
     1.6515   1.7072   1.7072   1.9723   1.9723   2.2137   2.2137   2.2310
     2.2310   2.2370   2.3092   2.3093   2.4424   2.4424   2.8235   2.8235
     2.8971   2.8972   2.9203   3.0355   3.0355   3.0446   3.1151   3.1152
     3.2411   3.2411   3.4388   3.4389   3.6493   3.6493   3.9657   3.9657
     3.9871   4.3639   4.3639   5.3020   5.3020   5.6204   5.6204   5.6429
     5.9416   5.9416   6.6673   6.6673   6.9568   6.9568

     occupation numbers 
     1.0000   1.0000   1.0000   1.0000   1.0000   1.0000   1.0000   1.0000
     1.0000   1.0000   1.0000   1.0000   1.0000   1.0000   1.0000   1.0000
     1.0000   1.0000   1.0000   1.0000   1.0000   1.0000   1.0000   1.0000
     1.0000   1.0000   1.0000   1.0000   1.0000   1.0000   1.0000   1.0000
     1.0000   1.0000   1.0000   1.0000   1.0000   1.0000   1.0000   1.0000
     1.0000   1.0000   1.0000   1.0000   1.0000   1.0000   1.0000   1.0000
     1.0000   1.0000   1.0000   1.0000   1.0000   1.0000

          k = 0.3333 0.1925 0.0956 (  5631 PWs)   bands (ev):

   -10.1488 -10.1487  -9.8411  -9.8411  -9.7869  -9.7869   1.3314   1.3314
     1.6250   1.6251   1.6771   1.9913   1.9913   2.1242   2.1242   2.1708
     2.2138   2.2139   2.2823   2.2824   2.3597   2.3597   2.7236   2.7236
     2.9357   2.9386   2.9386   3.0386   3.1225   3.1225   3.2125   3.2125
     3.2308   3.2309   3.3553   3.3554   3.9212   3.9212   3.9270   3.9271
     4.1065   4.4547   4.4547   5.2715   5.2715   5.5282   5.7400   5.7400
     6.0136   6.0136   6.6304   6.6304   6.8912   6.8912

     occupation numbers 
     1.0000   1.0000   1.0000   1.0000   1.0000   1.0000   1.0000   1.0000
     1.0000   1.0000   1.0000   1.0000   1.0000   1.0000   1.0000   1.0000
     1.0000   1.0000   1.0000   1.0000   1.0000   1.0000   1.0000   1.0000
     1.0000   1.0000   1.0000   1.0000   1.0000   1.0000   1.0000   1.0000
     1.0000   1.0000   1.0000   1.0000   1.0000   1.0000   1.0000   1.0000
     1.0000   1.0000   1.0000   1.0000   1.0000   1.0000   1.0000   1.0000
     1.0000   1.0000   1.0000   1.0000   1.0000   1.0000

          k = 0.3333 0.1925 0.1912 (  5631 PWs)   bands (ev):

   -10.0834 -10.0834  -9.9057  -9.9056  -9.7841  -9.7841   1.3075   1.3075
     1.4566   1.4566   1.7526   1.9621   1.9621   2.0251   2.0453   2.0453
     2.1924   2.1924   2.2126   2.2126   2.2603   2.2603   2.6599   2.6599
     2.9655   3.0213   3.0348   3.0349   3.1432   3.1432   3.2049   3.2050
     3.2567   3.2568   3.4385   3.4385   3.8155   3.8155   4.2749   4.2749
     4.4158   4.6058   4.6058   5.2236   5.4129   5.4130   5.9761   5.9761
     6.2061   6.2061   6.4124   6.4124   6.7109   6.7109

     occupation numbers 
     1.0000   1.0000   1.0000   1.0000   1.0000   1.0000   1.0000   1.0000
     1.0000   1.0000   1.0000   1.0000   1.0000   1.0000   1.0000   1.0000
     1.0000   1.0000   1.0000   1.0000   1.0000   1.0000   1.0000   1.0000
     1.0000   1.0000   1.0000   1.0000   1.0000   1.0000   1.0000   1.0000
     1.0000   1.0000   1.0000   1.0000   1.0000   1.0000   1.0000   1.0000
     1.0000   1.0000   1.0000   1.0000   1.0000   1.0000   1.0000   1.0000
     1.0000   1.0000   1.0000   1.0000   1.0000   1.0000

          k = 0.3333 0.1925-0.2868 (  5640 PWs)   bands (ev):

    -9.9944  -9.9944  -9.9943  -9.9943  -9.7827  -9.7826   1.3363   1.3363
     1.3363   1.3363   1.8734   1.8734   1.8893   1.8893   2.1251   2.1251
     2.1251   2.1252   2.2056   2.2056   2.2057   2.2057   2.6441   2.6441
     2.9955   2.9955   3.1478   3.1478   3.1478   3.1478   3.1729   3.1730
     3.1730   3.1730   3.5711   3.5711   3.7222   3.7222   4.5046   4.5046
     4.5046   4.5046   4.8199   4.8199   5.9351   5.9351   5.9351   5.9351
     6.0937   6.0937   6.4614   6.4615   6.4615   6.4615

     occupation numbers 
     1.0000   1.0000   1.0000   1.0000   1.0000   1.0000   1.0000   1.0000
     1.0000   1.0000   1.0000   1.0000   1.0000   1.0000   1.0000   1.0000
     1.0000   1.0000   1.0000   1.0000   1.0000   1.0000   1.0000   1.0000
     1.0000   1.0000   1.0000   1.0000   1.0000   1.0000   1.0000   1.0000
     1.0000   1.0000   1.0000   1.0000   1.0000   1.0000   1.0000   1.0000
     1.0000   1.0000   1.0000   1.0000   1.0000   1.0000   1.0000   1.0000
     1.0000   1.0000   1.0000   1.0000   1.0000   1.0000

          k = 0.3333 0.2566 0.0000 (  5629 PWs)   bands (ev):

   -10.2260 -10.1055  -9.8382  -9.8306  -9.7942  -9.7625   1.3722   1.3768
     1.6482   1.6994   1.7337   1.9393   1.9819   2.1226   2.1557   2.1753
     2.2713   2.2750   2.2794   2.3737   2.3796   2.4846   2.6386   2.7587
     2.8865   2.9259   2.9768   2.9900   3.0900   3.1302   3.1757   3.2047
     3.2355   3.2512   3.4495   3.4497   3.6087   3.7053   3.8390   4.0683
     4.1025   4.1813   4.6185   5.1174   5.3375   5.4515   5.7079   5.7313
     5.9059   5.9795   6.5493   6.7730   6.8275   6.9832

     occupation numbers 
     1.0000   1.0000   1.0000   1.0000   1.0000   1.0000   1.0000   1.0000
     1.0000   1.0000   1.0000   1.0000   1.0000   1.0000   1.0000   1.0000
     1.0000   1.0000   1.0000   1.0000   1.0000   1.0000   1.0000   1.0000
     1.0000   1.0000   1.0000   1.0000   1.0000   1.0000   1.0000   1.0000
     1.0000   1.0000   1.0000   1.0000   1.0000   1.0000   1.0000   1.0000
     1.0000   1.0000   1.0000   1.0000   1.0000   1.0000   1.0000   1.0000
     1.0000   1.0000   1.0000   1.0000   1.0000   1.0000

          k = 0.3333 0.2566 0.0956 (  5638 PWs)   bands (ev):

   -10.2001 -10.0843  -9.8642  -9.8247  -9.8145  -9.7657   1.3528   1.3598
     1.6219   1.6491   1.6668   1.9569   2.0019   2.0206   2.1135   2.1393
     2.2182   2.2503   2.2596   2.3007   2.3441   2.4064   2.6066   2.6698
     2.9299   2.9599   2.9775   3.0658   3.1027   3.1440   3.2251   3.2422
     3.2518   3.3051   3.3488   3.3820   3.7971   3.8946   3.9328   4.0377
     4.2105   4.3000   4.6950   5.1221   5.4034   5.4430   5.6690   5.8091
     5.9664   6.0462   6.5337   6.7178   6.7584   6.9184

     occupation numbers 
     1.0000   1.0000   1.0000   1.0000   1.0000   1.0000   1.0000   1.0000
     1.0000   1.0000   1.0000   1.0000   1.0000   1.0000   1.0000   1.0000
     1.0000   1.0000   1.0000   1.0000   1.0000   1.0000   1.0000   1.0000
     1.0000   1.0000   1.0000   1.0000   1.0000   1.0000   1.0000   1.0000
     1.0000   1.0000   1.0000   1.0000   1.0000   1.0000   1.0000   1.0000
     1.0000   1.0000   1.0000   1.0000   1.0000   1.0000   1.0000   1.0000
     1.0000   1.0000   1.0000   1.0000   1.0000   1.0000

          k = 0.3333 0.2566 0.1912 (  5628 PWs)   bands (ev):

   -10.1293 -10.0263  -9.9352  -9.8704  -9.8095  -9.7754   1.3234   1.3344
     1.4614   1.4782   1.7112   1.8582   1.9863   2.0040   2.0591   2.0972
     2.1107   2.1900   2.2163   2.2189   2.2765   2.3148   2.5765   2.6011
     3.0181   3.0269   3.0519   3.0679   3.1291   3.1653   3.1981   3.2205
     3.2496   3.2820   3.3892   3.5101   3.7157   3.9198   4.1295   4.3840
     4.4311   4.5214   4.8190   5.2943   5.3791   5.4670   5.8568   6.0099
     6.1024   6.2188   6.3736   6.4728   6.5699   6.7408

     occupation numbers 
     1.0000   1.0000   1.0000   1.0000   1.0000   1.0000   1.0000   1.0000
     1.0000   1.0000   1.0000   1.0000   1.0000   1.0000   1.0000   1.0000
     1.0000   1.0000   1.0000   1.0000   1.0000   1.0000   1.0000   1.0000
     1.0000   1.0000   1.0000   1.0000   1.0000   1.0000   1.0000   1.0000
     1.0000   1.0000   1.0000   1.0000   1.0000   1.0000   1.0000   1.0000
     1.0000   1.0000   1.0000   1.0000   1.0000   1.0000   1.0000   1.0000
     1.0000   1.0000   1.0000   1.0000   1.0000   1.0000

          k = 0.3333 0.2566-0.2868 (  5648 PWs)   bands (ev):

   -10.0323 -10.0323  -9.9479  -9.9479  -9.7911  -9.7910   1.3468   1.3468
     1.3600   1.3600   1.7574   1.7574   1.9856   1.9856   2.0665   2.0665
     2.1421   2.1421   2.1716   2.1716   2.2662   2.2662   2.5756   2.5756
     3.0480   3.0480   3.1380   3.1380   3.1591   3.1591   3.1657   3.1657
     3.2007   3.2008   3.5234   3.5234   3.7711   3.7711   4.3204   4.3204
     4.6856   4.6856   4.9155   4.9155   5.9160   5.9160   5.9453   5.9454
     6.0906   6.0906   6.3117   6.3117   6.4988   6.4988

     occupation numbers 
     1.0000   1.0000   1.0000   1.0000   1.0000   1.0000   1.0000   1.0000
     1.0000   1.0000   1.0000   1.0000   1.0000   1.0000   1.0000   1.0000
     1.0000   1.0000   1.0000   1.0000   1.0000   1.0000   1.0000   1.0000
     1.0000   1.0000   1.0000   1.0000   1.0000   1.0000   1.0000   1.0000
     1.0000   1.0000   1.0000   1.0000   1.0000   1.0000   1.0000   1.0000
     1.0000   1.0000   1.0000   1.0000   1.0000   1.0000   1.0000   1.0000
     1.0000   1.0000   1.0000   1.0000   1.0000   1.0000

          k = 0.3333 0.3208 0.0000 (  5639 PWs)   bands (ev):

   -10.2603 -10.0312  -9.8878  -9.8522  -9.7725  -9.7528   1.4391   1.4528
     1.6299   1.7193   1.7364   1.9202   1.9391   1.9910   2.0673   2.0895
     2.2625   2.3097   2.3101   2.3297   2.4395   2.5090   2.5402   2.6305
     2.8944   2.9497   2.9635   3.0380   3.0679   3.1184   3.2317   3.2717
     3.2964   3.3780   3.4600   3.5039   3.5936   3.6881   3.7204   4.1507
     4.2145   4.3545   4.9002   4.9379   5.1017   5.3783   5.4647   5.9013
     5.9627   6.1634   6.3884   6.6215   6.8512   6.9409

     occupation numbers 
     1.0000   1.0000   1.0000   1.0000   1.0000   1.0000   1.0000   1.0000
     1.0000   1.0000   1.0000   1.0000   1.0000   1.0000   1.0000   1.0000
     1.0000   1.0000   1.0000   1.0000   1.0000   1.0000   1.0000   1.0000
     1.0000   1.0000   1.0000   1.0000   1.0000   1.0000   1.0000   1.0000
     1.0000   1.0000   1.0000   1.0000   1.0000   1.0000   1.0000   1.0000
     1.0000   1.0000   1.0000   1.0000   1.0000   1.0000   1.0000   1.0000
[...]
     1.0000   1.0000   1.0000   1.0000   1.0000   1.0000   1.0000   1.0000
     1.0000   1.0000   1.0000   1.0000   1.0000   1.0000   1.0000   1.0000
     1.0000   1.0000   1.0000   1.0000   1.0000   1.0000   1.0000   1.0000
     1.0000   1.0000   1.0000   1.0000   1.0000   1.0000   1.0000   1.0000
     1.0000   1.0000   1.0000   1.0000   1.0000   1.0000   1.0000   1.0000
     1.0000   1.0000   1.0000   1.0000   1.0000   1.0000   1.0000   1.0000
     1.0000   1.0000   1.0000   1.0000   1.0000   1.0000

          k =-0.1667-0.0321-0.0956 (  5662 PWs)   bands (ev):

   -10.5388 -10.1333 -10.0479 -10.0282  -9.8334  -9.7928   1.4754   1.5087
     1.5616   1.6510   1.6523   1.6761   1.8066   1.8567   1.9111   1.9683
     1.9908   2.0120   2.0729   2.1952   2.3253   2.3340   2.3932   2.4109
     2.9289   2.9396   3.0064   3.0480   3.1163   3.1413   3.2032   3.2396
     3.2458   3.2683   3.3927   3.4524   3.8228   3.8750   3.9724   4.4918
     4.8102   4.9762   5.0774   5.2512   5.6045   6.2695   6.3583   6.4145
     6.5140   6.5928   6.6742   6.8078   7.1548   7.4206

     occupation numbers 
     1.0000   1.0000   1.0000   1.0000   1.0000   1.0000   1.0000   1.0000
     1.0000   1.0000   1.0000   1.0000   1.0000   1.0000   1.0000   1.0000
     1.0000   1.0000   1.0000   1.0000   1.0000   1.0000   1.0000   1.0000
     1.0000   1.0000   1.0000   1.0000   1.0000   1.0000   1.0000   1.0000
     1.0000   1.0000   1.0000   1.0000   1.0000   1.0000   1.0000   1.0000
     1.0000   1.0000   1.0000   1.0000   1.0000   1.0000   1.0000   1.0000
     1.0000   1.0000   1.0000   1.0000   1.0000   1.0000

          k =-0.1667-0.0321-0.1912 (  5651 PWs)   bands (ev):

   -10.4387 -10.1554 -10.0694  -9.9771  -9.8962  -9.8411   1.4298   1.4613
     1.5043   1.5270   1.5309   1.5557   1.8242   1.8495   1.9072   1.9317
     1.9930   2.0278   2.0391   2.1352   2.2427   2.2761   2.3087   2.3429
     3.0326   3.0458   3.0608   3.0846   3.1518   3.1742   3.1778   3.1907
     3.2194   3.2584   3.2895   3.3490   4.1024   4.3492   4.4321   4.4801
     4.8290   5.3145   5.3413   5.4913   5.7605   5.8310   6.1612   6.3903
     6.3982   6.4820   6.4881   6.8908   6.9796   7.2858

     occupation numbers 
     1.0000   1.0000   1.0000   1.0000   1.0000   1.0000   1.0000   1.0000
     1.0000   1.0000   1.0000   1.0000   1.0000   1.0000   1.0000   1.0000
     1.0000   1.0000   1.0000   1.0000   1.0000   1.0000   1.0000   1.0000
     1.0000   1.0000   1.0000   1.0000   1.0000   1.0000   1.0000   1.0000
     1.0000   1.0000   1.0000   1.0000   1.0000   1.0000   1.0000   1.0000
     1.0000   1.0000   1.0000   1.0000   1.0000   1.0000   1.0000   1.0000
     1.0000   1.0000   1.0000   1.0000   1.0000   1.0000

          k =-0.3333 0.2566-0.0956 (  5638 PWs)   bands (ev):

   -10.2001 -10.0843  -9.8642  -9.8247  -9.8145  -9.7657   1.3528   1.3598
     1.6219   1.6491   1.6668   1.9569   2.0019   2.0206   2.1135   2.1393
     2.2182   2.2503   2.2596   2.3007   2.3441   2.4064   2.6066   2.6698
     2.9299   2.9599   2.9775   3.0658   3.1027   3.1440   3.2251   3.2422
     3.2518   3.3051   3.3488   3.3820   3.7971   3.8946   3.9328   4.0377
     4.2105   4.3000   4.6950   5.1221   5.4034   5.4430   5.6690   5.8091
     5.9664   6.0462   6.5337   6.7178   6.7584   6.9184

     occupation numbers 
     1.0000   1.0000   1.0000   1.0000   1.0000   1.0000   1.0000   1.0000
     1.0000   1.0000   1.0000   1.0000   1.0000   1.0000   1.0000   1.0000
     1.0000   1.0000   1.0000   1.0000   1.0000   1.0000   1.0000   1.0000
     1.0000   1.0000   1.0000   1.0000   1.0000   1.0000   1.0000   1.0000
     1.0000   1.0000   1.0000   1.0000   1.0000   1.0000   1.0000   1.0000
     1.0000   1.0000   1.0000   1.0000   1.0000   1.0000   1.0000   1.0000
     1.0000   1.0000   1.0000   1.0000   1.0000   1.0000

          k =-0.3333 0.2566-0.1912 (  5628 PWs)   bands (ev):

   -10.1293 -10.0263  -9.9352  -9.8704  -9.8095  -9.7754   1.3234   1.3344
     1.4614   1.4782   1.7112   1.8582   1.9863   2.0040   2.0591   2.0972
     2.1107   2.1900   2.2163   2.2189   2.2765   2.3148   2.5765   2.6011
     3.0181   3.0269   3.0519   3.0679   3.1291   3.1653   3.1981   3.2205
     3.2496   3.2820   3.3892   3.5101   3.7157   3.9198   4.1295   4.3840
     4.4311   4.5214   4.8190   5.2943   5.3791   5.4670   5.8568   6.0099
     6.1024   6.2188   6.3736   6.4728   6.5699   6.7408

     occupation numbers 
     1.0000   1.0000   1.0000   1.0000   1.0000   1.0000   1.0000   1.0000
     1.0000   1.0000   1.0000   1.0000   1.0000   1.0000   1.0000   1.0000
     1.0000   1.0000   1.0000   1.0000   1.0000   1.0000   1.0000   1.0000
     1.0000   1.0000   1.0000   1.0000   1.0000   1.0000   1.0000   1.0000
     1.0000   1.0000   1.0000   1.0000   1.0000   1.0000   1.0000   1.0000
     1.0000   1.0000   1.0000   1.0000   1.0000   1.0000   1.0000   1.0000
     1.0000   1.0000   1.0000   1.0000   1.0000   1.0000

          k =-0.3333 0.3208-0.0956 (  5631 PWs)   bands (ev):

   -10.2332 -10.0131  -9.8798  -9.8776  -9.7890  -9.7606   1.4190   1.4293
     1.6292   1.6504   1.6617   1.8575   1.9270   2.0060   2.0500   2.0626
     2.2393   2.2597   2.2692   2.2884   2.4046   2.4367   2.5060   2.5600
     2.9343   2.9771   2.9875   3.0877   3.1098   3.1546   3.2214   3.2655
     3.3077   3.3498   3.4415   3.4476   3.6854   3.7931   3.9363   4.1613
     4.2601   4.4913   4.9714   4.9974   5.2515   5.4276   5.4697   5.8584
     6.0051   6.1811   6.3826   6.5585   6.7845   6.8749

     occupation numbers 
     1.0000   1.0000   1.0000   1.0000   1.0000   1.0000   1.0000   1.0000
     1.0000   1.0000   1.0000   1.0000   1.0000   1.0000   1.0000   1.0000
     1.0000   1.0000   1.0000   1.0000   1.0000   1.0000   1.0000   1.0000
     1.0000   1.0000   1.0000   1.0000   1.0000   1.0000   1.0000   1.0000
     1.0000   1.0000   1.0000   1.0000   1.0000   1.0000   1.0000   1.0000
     1.0000   1.0000   1.0000   1.0000   1.0000   1.0000   1.0000   1.0000
     1.0000   1.0000   1.0000   1.0000   1.0000   1.0000

          k =-0.3333 0.3208-0.1912 (  5641 PWs)   bands (ev):

   -10.1590  -9.9642  -9.9548  -9.8504  -9.8347  -9.7828   1.3845   1.3893
     1.5027   1.5038   1.6165   1.7129   1.9559   2.0217   2.0218   2.0572
     2.1694   2.1770   2.2002   2.2296   2.3298   2.3630   2.4654   2.4937
     3.0283   3.0644   3.0668   3.1205   3.1378   3.1838   3.1943   3.2505
     3.2536   3.3385   3.3531   3.5130   3.7086   3.9711   4.0333   4.2876
     4.4485   4.8037   5.0406   5.3566   5.4486   5.4985   5.7027   5.8059
     6.1450   6.2167   6.2411   6.4036   6.5286   6.6928

     occupation numbers 
     1.0000   1.0000   1.0000   1.0000   1.0000   1.0000   1.0000   1.0000
     1.0000   1.0000   1.0000   1.0000   1.0000   1.0000   1.0000   1.0000
     1.0000   1.0000   1.0000   1.0000   1.0000   1.0000   1.0000   1.0000
     1.0000   1.0000   1.0000   1.0000   1.0000   1.0000   1.0000   1.0000
     1.0000   1.0000   1.0000   1.0000   1.0000   1.0000   1.0000   1.0000
     1.0000   1.0000   1.0000   1.0000   1.0000   1.0000   1.0000   1.0000
     1.0000   1.0000   1.0000   1.0000   1.0000   1.0000

          k = 0.5000-0.2245-0.0956 (  5643 PWs)   bands (ev):

    -9.9444  -9.9385  -9.9352  -9.7715  -9.7706  -9.7689   1.4307   1.4696
     1.5428   1.6279   1.6358   1.7222   2.0260   2.0444   2.0791   2.2038
     2.3849   2.4401   2.4534   2.4537   2.4573   2.4686   2.4764   2.4795
     2.9432   3.0502   3.1005   3.1340   3.1615   3.1981   3.2791   3.2920
     3.2996   3.3877   3.4518   3.5396   3.6431   3.6603   3.7105   3.8890
     4.0493   4.4157   4.7691   4.9141   4.9570   5.0001   5.4063   5.5620
     6.0833   6.1814   6.2151   6.3338   6.4638   6.5714

     occupation numbers 
     1.0000   1.0000   1.0000   1.0000   1.0000   1.0000   1.0000   1.0000
     1.0000   1.0000   1.0000   1.0000   1.0000   1.0000   1.0000   1.0000
     1.0000   1.0000   1.0000   1.0000   1.0000   1.0000   1.0000   1.0000
     1.0000   1.0000   1.0000   1.0000   1.0000   1.0000   1.0000   1.0000
     1.0000   1.0000   1.0000   1.0000   1.0000   1.0000   1.0000   1.0000
     1.0000   1.0000   1.0000   1.0000   1.0000   1.0000   1.0000   1.0000
     1.0000   1.0000   1.0000   1.0000   1.0000   1.0000

          k = 0.5000-0.2245-0.1912 (  5635 PWs)   bands (ev):

    -9.9053  -9.9009  -9.8985  -9.8039  -9.8039  -9.8038   1.3678   1.4178
     1.4205   1.4992   1.5829   1.6271   2.0482   2.0807   2.1123   2.1214
     2.2969   2.3402   2.3819   2.3973   2.4004   2.4264   2.4290   2.4336
     3.0517   3.1201   3.1726   3.1794   3.1891   3.2104   3.2766   3.2959
     3.3080   3.3618   3.3958   3.4412   3.6723   3.7233   3.8238   3.9132
     3.9797   4.2941   5.0238   5.3322   5.3750   5.4359   5.6813   5.7980
     5.9139   6.0863   6.1876   6.3086   6.3321   6.3817

     occupation numbers 
     1.0000   1.0000   1.0000   1.0000   1.0000   1.0000   1.0000   1.0000
     1.0000   1.0000   1.0000   1.0000   1.0000   1.0000   1.0000   1.0000
     1.0000   1.0000   1.0000   1.0000   1.0000   1.0000   1.0000   1.0000
     1.0000   1.0000   1.0000   1.0000   1.0000   1.0000   1.0000   1.0000
     1.0000   1.0000   1.0000   1.0000   1.0000   1.0000   1.0000   1.0000
     1.0000   1.0000   1.0000   1.0000   1.0000   1.0000   1.0000   1.0000
     1.0000   1.0000   1.0000   1.0000   1.0000   1.0000

     highest occupied level (ev):     7.6612

!    total energy              =   -1084.86729871 Ry
     estimated scf accuracy    <          1.0E-09 Ry

     The total energy is the sum of the following terms:
     one-electron contribution =    -448.96781685 Ry
     hartree contribution      =     349.81537932 Ry
     xc contribution           =    -328.93729321 Ry
     ewald contribution        =    -656.77756797 Ry

     convergence has been achieved in  32 iterations

     Forces acting on atoms (cartesian axes, Ry/au):

     atom    1 type  1   force =     0.00000000   -0.00003130    0.02413251
     atom    2 type  1   force =     0.00000000   -0.00001380    0.02414675
     atom    3 type  2   force =     0.00000000    0.00000356   -0.02414008
     atom    4 type  2   force =     0.00000000   -0.00000906   -0.02414128
     atom    5 type  1   force =     0.00000000   -0.00002828    0.02413659
     atom    6 type  1   force =     0.00000000   -0.00000412    0.02415641
     atom    7 type  2   force =     0.00000000   -0.00000147   -0.02414079
     atom    8 type  2   force =     0.00000000   -0.00000794   -0.02414802
     atom    9 type  1   force =     0.00000000    0.00004081    0.02414201
     atom   10 type  1   force =     0.00000000    0.00003502    0.02413953
     atom   11 type  2   force =     0.00000000    0.00001491   -0.02414195
     atom   12 type  2   force =     0.00000000    0.00000166   -0.02414168
     The non-local contrib.  to forces
     atom    1 type  1   force =     0.00000000    0.00000158    0.21307799
     atom    2 type  1   force =     0.00000000   -0.00002117    0.21308582
     atom    3 type  2   force =     0.00000000    0.00024199    0.19314394
     atom    4 type  2   force =     0.00000000   -0.00021357    0.19313852
     atom    5 type  1   force =     0.00000000    0.00000908    0.21308218
     atom    6 type  1   force =     0.00000000   -0.00001848    0.21308690
     atom    7 type  2   force =     0.00000000    0.00024280    0.19313528
     atom    8 type  2   force =     0.00000000   -0.00022883    0.19314149
     atom    9 type  1   force =     0.00000000    0.00003081    0.21308280
     atom   10 type  1   force =     0.00000000    0.00000028    0.21308198
     atom   11 type  2   force =     0.00000000    0.00022078    0.19313791
     atom   12 type  2   force =     0.00000000   -0.00024772    0.19313916
     The ionic contribution  to forces
     atom    1 type  1   force =    -0.00000000    0.00000001    1.70690924
     atom    2 type  1   force =     0.00000000    0.00000001    1.70690924
     atom    3 type  2   force =    -0.00000000    0.00000000   -1.70690924
     atom    4 type  2   force =     0.00000000    0.00000000   -1.70690924
     atom    5 type  1   force =    -0.00000001    0.00000001    1.70690923
     atom    6 type  1   force =     0.00000001   -0.00000001    1.70690923
     atom    7 type  2   force =    -0.00000001    0.00000000   -1.70690923
     atom    8 type  2   force =     0.00000001   -0.00000000   -1.70690923
     atom    9 type  1   force =    -0.00000000   -0.00000001    1.70690924
     atom   10 type  1   force =     0.00000000   -0.00000001    1.70690924
     atom   11 type  2   force =    -0.00000000   -0.00000000   -1.70690924
     atom   12 type  2   force =     0.00000000   -0.00000000   -1.70690924
     The local contribution  to forces
     atom    1 type  1   force =    -0.00000004   -0.00000028   -1.88002063
     atom    2 type  1   force =     0.00000000    0.00005315   -1.88004481
     atom    3 type  2   force =    -0.00000001   -0.00021692    1.49114690
     atom    4 type  2   force =     0.00000000    0.00023924    1.49114976
     atom    5 type  1   force =    -0.00000008   -0.00000312   -1.88003010
     atom    6 type  1   force =     0.00000008    0.00003894   -1.88004960
     atom    7 type  2   force =    -0.00000002   -0.00021089    1.49114368
     atom    8 type  2   force =     0.00000002    0.00022874    1.49115426
     atom    9 type  1   force =     0.00000000   -0.00008790   -1.88003627
     atom   10 type  1   force =     0.00000004   -0.00000498   -1.88003363
     atom   11 type  2   force =     0.00000000   -0.00025064    1.49114442
     atom   12 type  2   force =     0.00000001    0.00020074    1.49114931
     The core correction contribution to forces
     atom    1 type  1   force =    -0.00000001    0.00001015   -0.01581385
     atom    2 type  1   force =     0.00000000   -0.00001006   -0.01581355
     atom    3 type  2   force =     0.00000000   -0.00000275   -0.00151849
     atom    4 type  2   force =    -0.00000000    0.00000240   -0.00151842
     atom    5 type  1   force =    -0.00000001    0.00000962   -0.01581381
     atom    6 type  1   force =     0.00000001   -0.00000969   -0.01581396
     atom    7 type  2   force =     0.00000000   -0.00000274   -0.00151840
     atom    8 type  2   force =    -0.00000000    0.00000258   -0.00151846
     atom    9 type  1   force =     0.00000000    0.00001006   -0.01581368
     atom   10 type  1   force =     0.00000001   -0.00001031   -0.01581360
     atom   11 type  2   force =     0.00000000   -0.00000252   -0.00151843
     atom   12 type  2   force =    -0.00000000    0.00000280   -0.00151843
     The Hubbard contrib.    to forces
     atom    1 type  1   force =     0.00000000    0.00000000    0.00000000
     atom    2 type  1   force =     0.00000000    0.00000000    0.00000000
     atom    3 type  2   force =     0.00000000    0.00000000    0.00000000
     atom    4 type  2   force =     0.00000000    0.00000000    0.00000000
     atom    5 type  1   force =     0.00000000    0.00000000    0.00000000
     atom    6 type  1   force =     0.00000000    0.00000000    0.00000000
     atom    7 type  2   force =     0.00000000    0.00000000    0.00000000
     atom    8 type  2   force =     0.00000000    0.00000000    0.00000000
     atom    9 type  1   force =     0.00000000    0.00000000    0.00000000
     atom   10 type  1   force =     0.00000000    0.00000000    0.00000000
     atom   11 type  2   force =     0.00000000    0.00000000    0.00000000
     atom   12 type  2   force =     0.00000000    0.00000000    0.00000000
     The SCF correction term to forces
     atom    1 type  1   force =     0.00000000   -0.00004218   -0.00001762
     atom    2 type  1   force =    -0.00000000   -0.00003516    0.00001269
     atom    3 type  2   force =     0.00000000   -0.00001819   -0.00000056
     atom    4 type  2   force =    -0.00000000   -0.00003657    0.00000074
     atom    5 type  1   force =     0.00000000   -0.00004328   -0.00000827
     atom    6 type  1   force =    -0.00000000   -0.00001430    0.00002646
     atom    7 type  2   force =     0.00000000   -0.00003007    0.00001052
     atom    8 type  2   force =    -0.00000000   -0.00000985   -0.00001344
     atom    9 type  1   force =     0.00000000    0.00008843    0.00000256
     atom   10 type  1   force =    -0.00000000    0.00005061   -0.00000182
     atom   11 type  2   force =     0.00000000    0.00004787    0.00000602
     atom   12 type  2   force =    -0.00000000    0.00004643    0.00000014

     Total force =     0.083631     Total SCF correction =     0.000155

     init_run     :     12.32s CPU     13.63s WALL (       1 calls)
     electrons    :    467.06s CPU    526.03s WALL (       1 calls)
     forces       :      4.78s CPU      5.18s WALL (       1 calls)

     Called by init_run:
     wfcinit      :      4.78s CPU      5.33s WALL (       1 calls)
     wfcinit:atom :      0.04s CPU      0.06s WALL (       4 calls)
     wfcinit:wfcr :      4.46s CPU      4.83s WALL (       4 calls)
     potinit      :      2.19s CPU      2.61s WALL (       1 calls)
     hinit0       :      4.69s CPU      4.93s WALL (       1 calls)

     Called by electrons:
     c_bands      :    389.25s CPU    437.31s WALL (      32 calls)
     sum_band     :     51.89s CPU     59.14s WALL (      32 calls)
     v_of_rho     :     15.50s CPU     17.51s WALL (      33 calls)
     v_h          :      0.93s CPU      1.09s WALL (      33 calls)
     v_xc         :     15.13s CPU     17.06s WALL (      34 calls)
     newd         :      6.84s CPU      7.82s WALL (      33 calls)
     mix_rho      :      2.45s CPU      2.89s WALL (      32 calls)

     Called by c_bands:
     init_us_2    :      3.19s CPU      3.75s WALL (     264 calls)
     init_us_2:cp :      3.18s CPU      3.74s WALL (     264 calls)
     cegterg      :    339.11s CPU    380.29s WALL (     128 calls)

     Called by sum_band:
     sum_band:wei :      0.10s CPU      0.11s WALL (      32 calls)
     sum_band:loo :     40.92s CPU     46.46s WALL (      32 calls)
     sum_band:buf :      0.41s CPU      0.49s WALL (     128 calls)
     sum_band:ini :      1.46s CPU      1.63s WALL (     128 calls)
     sum_band:cal :      8.73s CPU      9.69s WALL (     128 calls)
     sum_band:bec :      0.03s CPU      0.04s WALL (     128 calls)
     addusdens    :      5.69s CPU      6.50s WALL (      32 calls)
     addusd:skk   :      0.04s CPU      0.05s WALL (      64 calls)
     addusd:dgemm :      0.88s CPU      1.00s WALL (      64 calls)
     addusd:qvan2 :      2.53s CPU      2.73s WALL (      64 calls)

     Called by *egterg:
     cdiaghg      :      6.78s CPU      7.74s WALL (     656 calls)
     cegterg:over :     26.43s CPU     30.18s WALL (     528 calls)
     cegterg:upda :     13.56s CPU     15.05s WALL (     528 calls)
     cegterg:last :     31.14s CPU     34.76s WALL (     348 calls)
     h_psi        :    231.12s CPU    259.37s WALL (     660 calls)
     s_psi        :     23.89s CPU     26.13s WALL (     660 calls)
     g_psi        :      1.06s CPU      1.21s WALL (     528 calls)

     Called by h_psi:
     h_psi:calbec :     28.50s CPU     31.46s WALL (     660 calls)
     vloc_psi     :    177.13s CPU    199.61s WALL (     660 calls)
     add_vuspsi   :     24.37s CPU     26.96s WALL (     660 calls)

     General routines
     calbec       :     38.30s CPU     42.33s WALL (     804 calls)
     fft          :      8.91s CPU      9.95s WALL (     438 calls)
     ffts         :      0.74s CPU      0.87s WALL (      65 calls)
     fftw         :    176.11s CPU    199.71s WALL (   48956 calls)
     interpolate  :      1.35s CPU      1.63s WALL (      33 calls)

     Parallel routines

     PWSCF        :   8m 5.10s CPU   9m 5.98s WALL


   This run was terminated on:  16:54:31  27Aug2025            

=------------------------------------------------------------------------------=
   JOB DONE.
=------------------------------------------------------------------------------=
