
     Program PWSCF v.7.0 starts on 27Aug2025 at 20: 8: 6 

     This program is part of the open-source Quantum ESPRESSO suite
     for quantum simulation of materials; please cite
         "P. Giannozzi et al., J. Phys.:Condens. Matter 21 395502 (2009);
         "P. Giannozzi et al., J. Phys.:Condens. Matter 29 465901 (2017);
         "P. Giannozzi et al., J. Chem. Phys. 152 154105 (2020);
          URL http://www.quantum-espresso.org", 
     in publications or presentations arising from this work. More details at
     http://www.quantum-espresso.org/quote

     Parallel version (MPI & OpenMP), running on      17 processor cores
     Number of MPI processes:                17
     Threads/MPI process:                     1

     MPI processes distributed on     1 nodes
     K-points division:     npool     =      17
     103318 MiB available memory on the printing compute node when the environment starts

     Reading input from /home/jvc/QEspresso7.2/ZnO_database/scripts/cell131.in/ZnO-3.27-1.71-131.in
Warning: card &CELL ignored
Warning: card / ignored
Warning: card &FCP ignored
Warning: card / ignored
Warning: card &RISM ignored
Warning: card / ignored

     Current dimensions of program PWSCF are:
     Max number of different atomic species (ntypx) = 10
     Max number of k-points (npk) =  40000
     Max angular momentum in pseudopotentials (lmaxx) =  4
     file Zn.upf: wavefunction(s)  3D renormalized
     Found identity + ( -0.0000  0.3333  0.0000) symmetry
     This is a supercell, fractional translations are disabled
     Message from routine setup:
     using ibrav=0 with symmetry is DISCOURAGED, use correct ibrav instead

     Subspace diagonalization in iterative solution of the eigenvalue problem:
     a serial algorithm will be used


     G-vector sticks info
     --------------------
     sticks:   dense  smooth     PW     G-vecs:    dense   smooth      PW
     Sum        3153    1573    477               141607    50063    8159

     Using Slab Decomposition



     bravais-lattice index     =            0
     lattice parameter (alat)  =       6.1789  a.u.
     unit-cell volume          =    1048.7730 (a.u.)^3
     number of atoms/cell      =           12
     number of atomic types    =            2
     number of electrons       =       108.00
     number of Kohn-Sham states=           54
     kinetic-energy cutoff     =      50.0000  Ry
     charge density cutoff     =     400.0000  Ry
     scf convergence threshold =      1.0E-08
     mixing beta               =       0.3000
     number of iterations used =            8  plain     mixing
     Exchange-correlation= PBE
                           (   1   4   3   4   0   0   0)

     celldm(1)=   6.178854  celldm(2)=   0.000000  celldm(3)=   0.000000
     celldm(4)=   0.000000  celldm(5)=   0.000000  celldm(6)=   0.000000

     crystal axes: (cart. coord. in units of alat)
               a(1) = (   1.000000   0.000000   0.000000 )  
               a(2) = (  -1.500000   2.598076   0.000000 )  
               a(3) = (   0.000000   0.000000   1.711220 )  

     reciprocal axes: (cart. coord. in units 2 pi/alat)
               b(1) = (  1.000000  0.577350 -0.000000 )  
               b(2) = (  0.000000  0.384900  0.000000 )  
               b(3) = (  0.000000 -0.000000  0.584378 )  


     PseudoPot. # 1 for Zn read from file:
     /home/jvc/QEspresso7.2/ZnO_database/pseudos/Zn.upf
     MD5 check sum: 7f56cabf9682ed8c977c2f7d0c5985c5
     Pseudo is Ultrasoft + core correction, Zval = 12.0
     Generated using &quot;atomic&quot; code by A. Dal Corso  v.6.2.2
     Using radial grid of 1201 points,  6 beta functions with: 
                l(1) =   0
                l(2) =   0
                l(3) =   1
                l(4) =   1
                l(5) =   2
                l(6) =   2
     Q(r) pseudized with 0 coefficients 


     PseudoPot. # 2 for O  read from file:
     /home/jvc/QEspresso7.2/ZnO_database/pseudos/O.upf
     MD5 check sum: 91400c9766925bcf19f520983a725ff0
     Pseudo is Ultrasoft + core correction, Zval =  6.0
     Generated using &quot;atomic&quot; code by A. Dal Corso  v.6.3MaX
     Using radial grid of 1095 points,  4 beta functions with: 
                l(1) =   0
                l(2) =   0
                l(3) =   1
                l(4) =   1
     Q(r) pseudized with 0 coefficients 


     atomic species   valence    mass     pseudopotential
        Zn            12.00    65.38000     Zn( 1.00)
        O              6.00    15.99900     O ( 1.00)

      2 Sym. Ops. (no inversion) found


                                    s                        frac. trans.

      isym =  1     identity                                     

 cryst.   s( 1) = (     1          0          0      )
                  (     0          1          0      )
                  (     0          0          1      )

 cart.    s( 1) = (  1.0000000  0.0000000  0.0000000 )
                  (  0.0000000  1.0000000  0.0000000 )
                  (  0.0000000  0.0000000  1.0000000 )


      isym =  2     inv. 180 deg rotation - cart. axis [1,0,0]   

 cryst.   s( 2) = (    -1          0          0      )
                  (     3          1          0      )
                  (     0          0          1      )

 cart.    s( 2) = ( -1.0000000  0.0000000  0.0000000 )
                  (  0.0000000  1.0000000  0.0000000 )
                  (  0.0000000  0.0000000  1.0000000 )


   Cartesian axes

     site n.     atom                  positions (alat units)
         1           Zn  tau(   1) = (   0.5000000   0.2886751   0.8566941  )
         2           Zn  tau(   2) = (  -0.0000000   0.5773503   0.0010842  )
         3           O   tau(   3) = (   0.5000000   0.2886751   1.5053197  )
         4           O   tau(   4) = (  -0.0000000   0.5773503   0.6497098  )
         5           Zn  tau(   5) = (   0.0000000   1.1547005   0.8566941  )
         6           Zn  tau(   6) = (  -0.5000000   1.4433757   0.0010842  )
         7           O   tau(   7) = (   0.0000000   1.1547005   1.5053197  )
         8           O   tau(   8) = (  -0.5000000   1.4433757   0.6497098  )
         9           Zn  tau(   9) = (  -0.5000000   2.0207259   0.8566941  )
        10           Zn  tau(  10) = (  -1.0000000   2.3094011   0.0010842  )
        11           O   tau(  11) = (  -0.5000000   2.0207259   1.5053197  )
        12           O   tau(  12) = (  -1.0000000   2.3094011   0.6497098  )

   Crystallographic axes

     site n.     atom                  positions (cryst. coord.)
         1           Zn  tau(   1) = (  0.6666667  0.1111111  0.5006336  )
         2           Zn  tau(   2) = (  0.3333333  0.2222222  0.0006336  )
         3           O   tau(   3) = (  0.6666667  0.1111111  0.8796764  )
         4           O   tau(   4) = (  0.3333333  0.2222222  0.3796764  )
         5           Zn  tau(   5) = (  0.6666667  0.4444444  0.5006336  )
         6           Zn  tau(   6) = (  0.3333333  0.5555556  0.0006336  )
         7           O   tau(   7) = (  0.6666667  0.4444444  0.8796764  )
         8           O   tau(   8) = (  0.3333333  0.5555556  0.3796764  )
         9           Zn  tau(   9) = (  0.6666667  0.7777778  0.5006336  )
        10           Zn  tau(  10) = (  0.3333333  0.8888889  0.0006336  )
        11           O   tau(  11) = (  0.6666667  0.7777778  0.8796764  )
        12           O   tau(  12) = (  0.3333333  0.8888889  0.3796764  )

     number of k points=    68
                       cart. coord. in units 2pi/alat
        k(    1) = (   0.0000000   0.0000000   0.0000000), wk =   0.0092593
        k(    2) = (   0.0000000   0.0000000   0.0973964), wk =   0.0185185
        k(    3) = (   0.0000000   0.0000000   0.1947928), wk =   0.0185185
        k(    4) = (   0.0000000   0.0000000  -0.2921892), wk =   0.0092593
        k(    5) = (   0.0000000   0.0641500   0.0000000), wk =   0.0185185
        k(    6) = (   0.0000000   0.0641500   0.0973964), wk =   0.0185185
        k(    7) = (   0.0000000   0.0641500   0.1947928), wk =   0.0185185
        k(    8) = (   0.0000000   0.0641500  -0.2921892), wk =   0.0185185
        k(    9) = (   0.0000000   0.1283001   0.0000000), wk =   0.0185185
        k(   10) = (   0.0000000   0.1283001   0.0973964), wk =   0.0185185
        k(   11) = (   0.0000000   0.1283001   0.1947928), wk =   0.0185185
        k(   12) = (   0.0000000   0.1283001  -0.2921892), wk =   0.0185185
        k(   13) = (   0.0000000  -0.1924501   0.0000000), wk =   0.0092593
        k(   14) = (   0.0000000  -0.1924501   0.0973964), wk =   0.0185185
        k(   15) = (   0.0000000  -0.1924501   0.1947928), wk =   0.0185185
        k(   16) = (   0.0000000  -0.1924501  -0.2921892), wk =   0.0092593
        k(   17) = (   0.1666667   0.0962250   0.0000000), wk =   0.0370370
        k(   18) = (   0.1666667   0.0962250   0.0973964), wk =   0.0370370
        k(   19) = (   0.1666667   0.0962250   0.1947928), wk =   0.0370370
        k(   20) = (   0.1666667   0.0962250  -0.2921892), wk =   0.0370370
        k(   21) = (   0.1666667   0.1603751   0.0000000), wk =   0.0370370
        k(   22) = (   0.1666667   0.1603751   0.0973964), wk =   0.0370370
        k(   23) = (   0.1666667   0.1603751   0.1947928), wk =   0.0370370
        k(   24) = (   0.1666667   0.1603751  -0.2921892), wk =   0.0370370
        k(   25) = (   0.1666667  -0.0320750   0.0000000), wk =   0.0370370
        k(   26) = (   0.1666667  -0.0320750   0.0973964), wk =   0.0370370
        k(   27) = (   0.1666667  -0.0320750   0.1947928), wk =   0.0370370
        k(   28) = (   0.1666667  -0.0320750  -0.2921892), wk =   0.0370370
        k(   29) = (   0.3333333   0.1924501   0.0000000), wk =   0.0185185
        k(   30) = (   0.3333333   0.1924501   0.0973964), wk =   0.0370370
        k(   31) = (   0.3333333   0.1924501   0.1947928), wk =   0.0370370
        k(   32) = (   0.3333333   0.1924501  -0.2921892), wk =   0.0185185
        k(   33) = (   0.3333333   0.2566001   0.0000000), wk =   0.0370370
        k(   34) = (   0.3333333   0.2566001   0.0973964), wk =   0.0370370
        k(   35) = (   0.3333333   0.2566001   0.1947928), wk =   0.0370370
        k(   36) = (   0.3333333   0.2566001  -0.2921892), wk =   0.0370370
        k(   37) = (   0.3333333   0.3207501   0.0000000), wk =   0.0370370
        k(   38) = (   0.3333333   0.3207501   0.0973964), wk =   0.0370370
        k(   39) = (   0.3333333   0.3207501   0.1947928), wk =   0.0370370
        k(   40) = (   0.3333333   0.3207501  -0.2921892), wk =   0.0370370
        k(   41) = (   0.3333333  -0.0000000   0.0000000), wk =   0.0185185
        k(   42) = (   0.3333333  -0.0000000   0.0973964), wk =   0.0370370
        k(   43) = (   0.3333333  -0.0000000   0.1947928), wk =   0.0370370
        k(   44) = (   0.3333333  -0.0000000  -0.2921892), wk =   0.0185185
        k(   45) = (  -0.5000000  -0.2886751   0.0000000), wk =   0.0185185
        k(   46) = (  -0.5000000  -0.2886751   0.0973964), wk =   0.0370370
        k(   47) = (  -0.5000000  -0.2886751   0.1947928), wk =   0.0370370
        k(   48) = (  -0.5000000  -0.2886751  -0.2921892), wk =   0.0185185
        k(   49) = (  -0.5000000  -0.2245251   0.0000000), wk =   0.0370370
        k(   50) = (  -0.5000000  -0.2245251   0.0973964), wk =   0.0370370
        k(   51) = (  -0.5000000  -0.2245251   0.1947928), wk =   0.0370370
        k(   52) = (  -0.5000000  -0.2245251  -0.2921892), wk =   0.0370370
        k(   53) = (   0.0000000   0.0641500  -0.0973964), wk =   0.0185185
        k(   54) = (   0.0000000   0.0641500  -0.1947928), wk =   0.0185185
        k(   55) = (   0.0000000   0.1283001  -0.0973964), wk =   0.0185185
        k(   56) = (   0.0000000   0.1283001  -0.1947928), wk =   0.0185185
        k(   57) = (  -0.1666667   0.0962250  -0.0973964), wk =   0.0370370
        k(   58) = (  -0.1666667   0.0962250  -0.1947928), wk =   0.0370370
        k(   59) = (  -0.1666667   0.1603751  -0.0973964), wk =   0.0370370
        k(   60) = (  -0.1666667   0.1603751  -0.1947928), wk =   0.0370370
        k(   61) = (  -0.1666667  -0.0320750  -0.0973964), wk =   0.0370370
        k(   62) = (  -0.1666667  -0.0320750  -0.1947928), wk =   0.0370370
        k(   63) = (  -0.3333333   0.2566001  -0.0973964), wk =   0.0370370
        k(   64) = (  -0.3333333   0.2566001  -0.1947928), wk =   0.0370370
        k(   65) = (  -0.3333333   0.3207501  -0.0973964), wk =   0.0370370
        k(   66) = (  -0.3333333   0.3207501  -0.1947928), wk =   0.0370370
        k(   67) = (   0.5000000  -0.2245251  -0.0973964), wk =   0.0370370
        k(   68) = (   0.5000000  -0.2245251  -0.1947928), wk =   0.0370370

                       cryst. coord.
        k(    1) = (   0.0000000   0.0000000   0.0000000), wk =   0.0092593
        k(    2) = (   0.0000000   0.0000000   0.1666667), wk =   0.0185185
        k(    3) = (   0.0000000   0.0000000   0.3333333), wk =   0.0185185
        k(    4) = (   0.0000000   0.0000000  -0.5000000), wk =   0.0092593
        k(    5) = (   0.0000000   0.1666667   0.0000000), wk =   0.0185185
        k(    6) = (   0.0000000   0.1666667   0.1666667), wk =   0.0185185
        k(    7) = (   0.0000000   0.1666667   0.3333333), wk =   0.0185185
        k(    8) = (   0.0000000   0.1666667  -0.5000000), wk =   0.0185185
        k(    9) = (   0.0000000   0.3333333   0.0000000), wk =   0.0185185
        k(   10) = (   0.0000000   0.3333333   0.1666667), wk =   0.0185185
        k(   11) = (   0.0000000   0.3333333   0.3333333), wk =   0.0185185
        k(   12) = (   0.0000000   0.3333333  -0.5000000), wk =   0.0185185
        k(   13) = (   0.0000000  -0.5000000   0.0000000), wk =   0.0092593
        k(   14) = (   0.0000000  -0.5000000   0.1666667), wk =   0.0185185
        k(   15) = (   0.0000000  -0.5000000   0.3333333), wk =   0.0185185
        k(   16) = (   0.0000000  -0.5000000  -0.5000000), wk =   0.0092593
        k(   17) = (   0.1666667   0.0000000   0.0000000), wk =   0.0370370
        k(   18) = (   0.1666667   0.0000000   0.1666667), wk =   0.0370370
        k(   19) = (   0.1666667   0.0000000   0.3333333), wk =   0.0370370
        k(   20) = (   0.1666667   0.0000000  -0.5000000), wk =   0.0370370
        k(   21) = (   0.1666667   0.1666667   0.0000000), wk =   0.0370370
        k(   22) = (   0.1666667   0.1666667   0.1666667), wk =   0.0370370
        k(   23) = (   0.1666667   0.1666667   0.3333333), wk =   0.0370370
        k(   24) = (   0.1666667   0.1666667  -0.5000000), wk =   0.0370370
        k(   25) = (   0.1666667  -0.3333333   0.0000000), wk =   0.0370370
        k(   26) = (   0.1666667  -0.3333333   0.1666667), wk =   0.0370370
        k(   27) = (   0.1666667  -0.3333333   0.3333333), wk =   0.0370370
        k(   28) = (   0.1666667  -0.3333333  -0.5000000), wk =   0.0370370
        k(   29) = (   0.3333333   0.0000000   0.0000000), wk =   0.0185185
        k(   30) = (   0.3333333   0.0000000   0.1666667), wk =   0.0370370
        k(   31) = (   0.3333333   0.0000000   0.3333333), wk =   0.0370370
        k(   32) = (   0.3333333   0.0000000  -0.5000000), wk =   0.0185185
        k(   33) = (   0.3333333   0.1666667   0.0000000), wk =   0.0370370
        k(   34) = (   0.3333333   0.1666667   0.1666667), wk =   0.0370370
        k(   35) = (   0.3333333   0.1666667   0.3333333), wk =   0.0370370
        k(   36) = (   0.3333333   0.1666667  -0.5000000), wk =   0.0370370
        k(   37) = (   0.3333333   0.3333333   0.0000000), wk =   0.0370370
        k(   38) = (   0.3333333   0.3333333   0.1666667), wk =   0.0370370
        k(   39) = (   0.3333333   0.3333333   0.3333333), wk =   0.0370370
        k(   40) = (   0.3333333   0.3333333  -0.5000000), wk =   0.0370370
        k(   41) = (   0.3333333  -0.5000000   0.0000000), wk =   0.0185185
        k(   42) = (   0.3333333  -0.5000000   0.1666667), wk =   0.0370370
        k(   43) = (   0.3333333  -0.5000000   0.3333333), wk =   0.0370370
        k(   44) = (   0.3333333  -0.5000000  -0.5000000), wk =   0.0185185
        k(   45) = (  -0.5000000   0.0000000   0.0000000), wk =   0.0185185
        k(   46) = (  -0.5000000   0.0000000   0.1666667), wk =   0.0370370
        k(   47) = (  -0.5000000   0.0000000   0.3333333), wk =   0.0370370
        k(   48) = (  -0.5000000   0.0000000  -0.5000000), wk =   0.0185185
        k(   49) = (  -0.5000000   0.1666667   0.0000000), wk =   0.0370370
        k(   50) = (  -0.5000000   0.1666667   0.1666667), wk =   0.0370370
        k(   51) = (  -0.5000000   0.1666667   0.3333333), wk =   0.0370370
        k(   52) = (  -0.5000000   0.1666667  -0.5000000), wk =   0.0370370
        k(   53) = (   0.0000000   0.1666667  -0.1666667), wk =   0.0185185
        k(   54) = (   0.0000000   0.1666667  -0.3333333), wk =   0.0185185
        k(   55) = (   0.0000000   0.3333333  -0.1666667), wk =   0.0185185
        k(   56) = (   0.0000000   0.3333333  -0.3333333), wk =   0.0185185
        k(   57) = (  -0.1666667   0.5000000  -0.1666667), wk =   0.0370370
        k(   58) = (  -0.1666667   0.5000000  -0.3333333), wk =   0.0370370
        k(   59) = (  -0.1666667   0.6666667  -0.1666667), wk =   0.0370370
        k(   60) = (  -0.1666667   0.6666667  -0.3333333), wk =   0.0370370
        k(   61) = (  -0.1666667   0.1666667  -0.1666667), wk =   0.0370370
        k(   62) = (  -0.1666667   0.1666667  -0.3333333), wk =   0.0370370
        k(   63) = (  -0.3333333   1.1666667  -0.1666667), wk =   0.0370370
        k(   64) = (  -0.3333333   1.1666667  -0.3333333), wk =   0.0370370
        k(   65) = (  -0.3333333   1.3333333  -0.1666667), wk =   0.0370370
        k(   66) = (  -0.3333333   1.3333333  -0.3333333), wk =   0.0370370
        k(   67) = (   0.5000000  -1.3333333  -0.1666667), wk =   0.0370370
        k(   68) = (   0.5000000  -1.3333333  -0.3333333), wk =   0.0370370

     Dense  grid:   141607 G-vectors     FFT dimensions: (  40, 120,  72)

     Smooth grid:    50063 G-vectors     FFT dimensions: (  27,  90,  48)

     Dynamical RAM for                 wfc:       5.16 MB

     Dynamical RAM for     wfc (w. buffer):      25.80 MB

     Dynamical RAM for           str. fact:       4.32 MB

     Dynamical RAM for           local pot:       0.00 MB

     Dynamical RAM for          nlocal pot:      14.91 MB

     Dynamical RAM for                qrad:       3.21 MB

     Dynamical RAM for          rho,v,vnew:      14.39 MB

     Dynamical RAM for               rhoin:       4.80 MB

     Dynamical RAM for            rho*nmix:      34.57 MB

     Dynamical RAM for           G-vectors:       8.48 MB

     Dynamical RAM for          h,s,v(r/c):       0.53 MB

     Dynamical RAM for          <psi|beta>:       0.13 MB

     Dynamical RAM for                 psi:      10.32 MB

     Dynamical RAM for                hpsi:      10.32 MB

     Dynamical RAM for                spsi:      10.32 MB

     Dynamical RAM for      wfcinit/wfcrot:      15.05 MB

     Dynamical RAM for           addusdens:      26.44 MB

     Dynamical RAM for          addusforce:      26.78 MB

     Estimated static dynamical RAM per process >      95.58 MB

     Estimated max dynamical RAM per process >     161.77 MB

     Estimated total dynamical RAM >       2.15 GB

     Check: negative core charge=   -0.000002

     Initial potential from superposition of free atoms

     starting charge     107.9776, renormalised to     108.0000
     Starting wfcs are   78 randomized atomic wfcs

     total cpu time spent up to now is       14.3 secs

     per-process dynamical memory:   121.4 Mb

     Self-consistent Calculation

     iteration #  1     ecut=    50.00 Ry     beta= 0.30
     Davidson diagonalization with overlap

---- Real-time Memory Report at c_bands before calling an iterative solver
           141 MiB given to the printing process from OS
           118 MiB allocation reported by mallinfo(arena+hblkhd)
        102835 MiB available memory on the node where the printing process lives
------------------
     ethr =  1.00E-02,  avg # of iterations =  1.9

     total cpu time spent up to now is       27.0 secs

     total energy              =   -1084.39020874 Ry
     estimated scf accuracy    <       2.15126471 Ry

     iteration #  2     ecut=    50.00 Ry     beta= 0.30
     Davidson diagonalization with overlap

---- Real-time Memory Report at c_bands before calling an iterative solver
           186 MiB given to the printing process from OS
           163 MiB allocation reported by mallinfo(arena+hblkhd)
        101090 MiB available memory on the node where the printing process lives
------------------
     ethr =  1.99E-03,  avg # of iterations =  2.0

     total cpu time spent up to now is       42.8 secs

     total energy              =   -1084.71969210 Ry
     estimated scf accuracy    <       0.25203862 Ry

     iteration #  3     ecut=    50.00 Ry     beta= 0.30
     Davidson diagonalization with overlap

---- Real-time Memory Report at c_bands before calling an iterative solver
           188 MiB given to the printing process from OS
           164 MiB allocation reported by mallinfo(arena+hblkhd)
        101091 MiB available memory on the node where the printing process lives
------------------
     ethr =  2.33E-04,  avg # of iterations =  7.1

     total cpu time spent up to now is       67.7 secs

     total energy              =   -1084.79788305 Ry
     estimated scf accuracy    <       0.19154726 Ry

     iteration #  4     ecut=    50.00 Ry     beta= 0.30
     Davidson diagonalization with overlap

---- Real-time Memory Report at c_bands before calling an iterative solver
           189 MiB given to the printing process from OS
           166 MiB allocation reported by mallinfo(arena+hblkhd)
        101170 MiB available memory on the node where the printing process lives
------------------
     ethr =  1.77E-04,  avg # of iterations =  9.1

     total cpu time spent up to now is       99.3 secs

     total energy              =   -1084.91457241 Ry
     estimated scf accuracy    <       0.69467565 Ry

     iteration #  5     ecut=    50.00 Ry     beta= 0.30
     Davidson diagonalization with overlap

---- Real-time Memory Report at c_bands before calling an iterative solver
           191 MiB given to the printing process from OS
           167 MiB allocation reported by mallinfo(arena+hblkhd)
        101201 MiB available memory on the node where the printing process lives
------------------
     ethr =  1.77E-04,  avg # of iterations =  2.0

     total cpu time spent up to now is      112.8 secs

     total energy              =   -1084.60400894 Ry
     estimated scf accuracy    <       0.38678232 Ry

     iteration #  6     ecut=    50.00 Ry     beta= 0.30
     Davidson diagonalization with overlap

---- Real-time Memory Report at c_bands before calling an iterative solver
           192 MiB given to the printing process from OS
           169 MiB allocation reported by mallinfo(arena+hblkhd)
        101182 MiB available memory on the node where the printing process lives
------------------
     c_bands:  1 eigenvalues not converged
     ethr =  1.77E-04,  avg # of iterations = 11.8

     total cpu time spent up to now is      148.1 secs

     total energy              =   -1084.68004081 Ry
     estimated scf accuracy    <       2.64460073 Ry

     iteration #  7     ecut=    50.00 Ry     beta= 0.30
     Davidson diagonalization with overlap

---- Real-time Memory Report at c_bands before calling an iterative solver
           194 MiB given to the printing process from OS
           170 MiB allocation reported by mallinfo(arena+hblkhd)
        100893 MiB available memory on the node where the printing process lives
------------------
     ethr =  1.77E-04,  avg # of iterations =  7.9

     total cpu time spent up to now is      175.2 secs

     total energy              =   -1084.87256911 Ry
     estimated scf accuracy    <       0.21740650 Ry

     iteration #  8     ecut=    50.00 Ry     beta= 0.30
     Davidson diagonalization with overlap

---- Real-time Memory Report at c_bands before calling an iterative solver
           195 MiB given to the printing process from OS
           172 MiB allocation reported by mallinfo(arena+hblkhd)
        101221 MiB available memory on the node where the printing process lives
------------------
     ethr =  1.77E-04,  avg # of iterations =  1.9

     total cpu time spent up to now is      188.2 secs

     total energy              =   -1084.87334612 Ry
     estimated scf accuracy    <       0.10051834 Ry

     iteration #  9     ecut=    50.00 Ry     beta= 0.30
     Davidson diagonalization with overlap

---- Real-time Memory Report at c_bands before calling an iterative solver
           197 MiB given to the printing process from OS
           173 MiB allocation reported by mallinfo(arena+hblkhd)
        101074 MiB available memory on the node where the printing process lives
------------------
     ethr =  9.31E-05,  avg # of iterations =  2.8

     total cpu time spent up to now is      200.5 secs

     total energy              =   -1084.87566395 Ry
     estimated scf accuracy    <       0.05965870 Ry

     iteration # 10     ecut=    50.00 Ry     beta= 0.30
     Davidson diagonalization with overlap

---- Real-time Memory Report at c_bands before calling an iterative solver
           198 MiB given to the printing process from OS
           175 MiB allocation reported by mallinfo(arena+hblkhd)
        101570 MiB available memory on the node where the printing process lives
------------------
     ethr =  5.52E-05,  avg # of iterations =  4.6

     total cpu time spent up to now is      215.6 secs

     total energy              =   -1084.87604924 Ry
     estimated scf accuracy    <       0.02792451 Ry

     iteration # 11     ecut=    50.00 Ry     beta= 0.30
     Davidson diagonalization with overlap

---- Real-time Memory Report at c_bands before calling an iterative solver
           198 MiB given to the printing process from OS
           175 MiB allocation reported by mallinfo(arena+hblkhd)
        100941 MiB available memory on the node where the printing process lives
------------------
     ethr =  2.59E-05,  avg # of iterations =  5.7

     total cpu time spent up to now is      235.4 secs

     total energy              =   -1084.88798876 Ry
     estimated scf accuracy    <       0.00003643 Ry

     iteration # 12     ecut=    50.00 Ry     beta= 0.30
     Davidson diagonalization with overlap

---- Real-time Memory Report at c_bands before calling an iterative solver
           198 MiB given to the printing process from OS
           175 MiB allocation reported by mallinfo(arena+hblkhd)
        101191 MiB available memory on the node where the printing process lives
------------------
     c_bands:  1 eigenvalues not converged
     c_bands:  1 eigenvalues not converged
     ethr =  3.37E-08,  avg # of iterations = 15.7

     total cpu time spent up to now is      285.8 secs

     total energy              =   -1084.88927522 Ry
     estimated scf accuracy    <       0.00204348 Ry

     iteration # 13     ecut=    50.00 Ry     beta= 0.30
     Davidson diagonalization with overlap

---- Real-time Memory Report at c_bands before calling an iterative solver
           198 MiB given to the printing process from OS
           175 MiB allocation reported by mallinfo(arena+hblkhd)
        101103 MiB available memory on the node where the printing process lives
------------------
     ethr =  3.37E-08,  avg # of iterations =  6.1

     total cpu time spent up to now is      304.6 secs

     total energy              =   -1084.88979525 Ry
     estimated scf accuracy    <       0.00266971 Ry

     iteration # 14     ecut=    50.00 Ry     beta= 0.30
     Davidson diagonalization with overlap

---- Real-time Memory Report at c_bands before calling an iterative solver
           198 MiB given to the printing process from OS
           175 MiB allocation reported by mallinfo(arena+hblkhd)
        101135 MiB available memory on the node where the printing process lives
------------------
     ethr =  3.37E-08,  avg # of iterations =  9.9

     total cpu time spent up to now is      336.5 secs

     total energy              =   -1084.88879805 Ry
     estimated scf accuracy    <       0.00508350 Ry

     iteration # 15     ecut=    50.00 Ry     beta= 0.30
     Davidson diagonalization with overlap

---- Real-time Memory Report at c_bands before calling an iterative solver
           198 MiB given to the printing process from OS
           175 MiB allocation reported by mallinfo(arena+hblkhd)
        101130 MiB available memory on the node where the printing process lives
------------------
     ethr =  3.37E-08,  avg # of iterations = 11.5

     total cpu time spent up to now is      375.0 secs

     total energy              =   -1084.88894210 Ry
     estimated scf accuracy    <       0.00159429 Ry

     iteration # 16     ecut=    50.00 Ry     beta= 0.30
     Davidson diagonalization with overlap

---- Real-time Memory Report at c_bands before calling an iterative solver
           198 MiB given to the printing process from OS
           175 MiB allocation reported by mallinfo(arena+hblkhd)
        101129 MiB available memory on the node where the printing process lives
------------------
     ethr =  3.37E-08,  avg # of iterations =  1.6

     total cpu time spent up to now is      387.6 secs

     total energy              =   -1084.88873911 Ry
     estimated scf accuracy    <       0.00151621 Ry

     iteration # 17     ecut=    50.00 Ry     beta= 0.30
     Davidson diagonalization with overlap

---- Real-time Memory Report at c_bands before calling an iterative solver
           198 MiB given to the printing process from OS
           175 MiB allocation reported by mallinfo(arena+hblkhd)
        101249 MiB available memory on the node where the printing process lives
------------------
     ethr =  3.37E-08,  avg # of iterations =  6.8

     total cpu time spent up to now is      412.2 secs

     total energy              =   -1084.88850532 Ry
     estimated scf accuracy    <       0.00075218 Ry

     iteration # 18     ecut=    50.00 Ry     beta= 0.30
     Davidson diagonalization with overlap

---- Real-time Memory Report at c_bands before calling an iterative solver
           198 MiB given to the printing process from OS
           175 MiB allocation reported by mallinfo(arena+hblkhd)
        101129 MiB available memory on the node where the printing process lives
------------------
     ethr =  3.37E-08,  avg # of iterations = 10.5

     total cpu time spent up to now is      447.1 secs

     total energy              =   -1084.88859327 Ry
     estimated scf accuracy    <       0.00003059 Ry

     iteration # 19     ecut=    50.00 Ry     beta= 0.30
     Davidson diagonalization with overlap

---- Real-time Memory Report at c_bands before calling an iterative solver
           198 MiB given to the printing process from OS
           175 MiB allocation reported by mallinfo(arena+hblkhd)
        101140 MiB available memory on the node where the printing process lives
------------------
     ethr =  2.83E-08,  avg # of iterations =  1.6

     total cpu time spent up to now is      460.3 secs

     total energy              =   -1084.88858179 Ry
     estimated scf accuracy    <       0.00002220 Ry

     iteration # 20     ecut=    50.00 Ry     beta= 0.30
     Davidson diagonalization with overlap

---- Real-time Memory Report at c_bands before calling an iterative solver
           198 MiB given to the printing process from OS
           175 MiB allocation reported by mallinfo(arena+hblkhd)
        101146 MiB available memory on the node where the printing process lives
------------------
     ethr =  2.06E-08,  avg # of iterations =  6.8

     total cpu time spent up to now is      481.1 secs

     total energy              =   -1084.88859077 Ry
     estimated scf accuracy    <       0.00000565 Ry

     iteration # 21     ecut=    50.00 Ry     beta= 0.30
     Davidson diagonalization with overlap

---- Real-time Memory Report at c_bands before calling an iterative solver
           198 MiB given to the printing process from OS
           175 MiB allocation reported by mallinfo(arena+hblkhd)
        101131 MiB available memory on the node where the printing process lives
------------------
     ethr =  5.23E-09,  avg # of iterations =  2.5

     total cpu time spent up to now is      496.8 secs

     total energy              =   -1084.88859043 Ry
     estimated scf accuracy    <       0.00000172 Ry

     iteration # 22     ecut=    50.00 Ry     beta= 0.30
     Davidson diagonalization with overlap

---- Real-time Memory Report at c_bands before calling an iterative solver
           198 MiB given to the printing process from OS
           175 MiB allocation reported by mallinfo(arena+hblkhd)
        101172 MiB available memory on the node where the printing process lives
------------------
     ethr =  1.60E-09,  avg # of iterations =  6.9

     total cpu time spent up to now is      520.6 secs

     total energy              =   -1084.88859186 Ry
     estimated scf accuracy    <       0.00000089 Ry

     iteration # 23     ecut=    50.00 Ry     beta= 0.30
     Davidson diagonalization with overlap

---- Real-time Memory Report at c_bands before calling an iterative solver
           198 MiB given to the printing process from OS
           175 MiB allocation reported by mallinfo(arena+hblkhd)
        101066 MiB available memory on the node where the printing process lives
------------------
     ethr =  8.21E-10,  avg # of iterations =  1.5

     total cpu time spent up to now is      533.0 secs

     total energy              =   -1084.88859159 Ry
     estimated scf accuracy    <       0.00000067 Ry

     iteration # 24     ecut=    50.00 Ry     beta= 0.30
     Davidson diagonalization with overlap

---- Real-time Memory Report at c_bands before calling an iterative solver
           198 MiB given to the printing process from OS
           175 MiB allocation reported by mallinfo(arena+hblkhd)
        101101 MiB available memory on the node where the printing process lives
------------------
     ethr =  6.21E-10,  avg # of iterations =  2.2

     total cpu time spent up to now is      546.4 secs

     total energy              =   -1084.88859164 Ry
     estimated scf accuracy    <       0.00000014 Ry

     iteration # 25     ecut=    50.00 Ry     beta= 0.30
     Davidson diagonalization with overlap

---- Real-time Memory Report at c_bands before calling an iterative solver
           198 MiB given to the printing process from OS
           175 MiB allocation reported by mallinfo(arena+hblkhd)
        101082 MiB available memory on the node where the printing process lives
------------------
     ethr =  1.33E-10,  avg # of iterations =  5.4

     total cpu time spent up to now is      568.0 secs

     End of self-consistent calculation

          k = 0.0000 0.0000 0.0000 (  6233 PWs)   bands (ev):

   -11.4048 -10.9840 -10.9840 -10.8849 -10.6886 -10.6885   0.4789   0.4789
     0.6906   0.6909   0.7501   0.7605   0.7606   0.8306   0.8308   0.8944
     0.8981   0.8982   1.1334   1.1334   1.1933   1.1933   1.3831   1.3831
     1.6017   1.6018   1.6905   1.6906   1.7504   1.7504   1.8297   1.8297
     1.8550   1.8550   2.0459   2.0459   2.1685   2.4293   2.4294   3.1004
     3.1004   3.8912   3.8912   4.6011   4.6012   5.3081   5.3081   5.5255
     5.5256   5.5411   5.5416   5.8989   6.1174   6.1180

     occupation numbers 
     1.0000   1.0000   1.0000   1.0000   1.0000   1.0000   1.0000   1.0000
     1.0000   1.0000   1.0000   1.0000   1.0000   1.0000   1.0000   1.0000
     1.0000   1.0000   1.0000   1.0000   1.0000   1.0000   1.0000   1.0000
     1.0000   1.0000   1.0000   1.0000   1.0000   1.0000   1.0000   1.0000
     1.0000   1.0000   1.0000   1.0000   1.0000   1.0000   1.0000   1.0000
     1.0000   1.0000   1.0000   1.0000   1.0000   1.0000   1.0000   1.0000
     1.0000   1.0000   1.0000   1.0000   1.0000   1.0000

          k = 0.0000 0.0000 0.0974 (  6232 PWs)   bands (ev):

   -11.3716 -10.9640 -10.9640 -10.9215 -10.7081 -10.7081   0.4646   0.4647
     0.6973   0.6975   0.7052   0.7052   0.7225   0.7985   0.8181   0.8184
     0.9149   0.9149   1.1192   1.1192   1.1701   1.1701   1.2856   1.2856
     1.6306   1.6306   1.7023   1.7023   1.7565   1.7565   1.8228   1.8229
     1.8465   1.8465   1.9698   1.9698   2.4291   2.6448   2.6448   3.1978
     3.1978   3.8896   3.8897   4.6664   4.6664   5.2838   5.2838   5.3286
     5.4656   5.4656   5.5801   5.5806   6.0792   6.0798

     occupation numbers 
     1.0000   1.0000   1.0000   1.0000   1.0000   1.0000   1.0000   1.0000
     1.0000   1.0000   1.0000   1.0000   1.0000   1.0000   1.0000   1.0000
     1.0000   1.0000   1.0000   1.0000   1.0000   1.0000   1.0000   1.0000
     1.0000   1.0000   1.0000   1.0000   1.0000   1.0000   1.0000   1.0000
     1.0000   1.0000   1.0000   1.0000   1.0000   1.0000   1.0000   1.0000
     1.0000   1.0000   1.0000   1.0000   1.0000   1.0000   1.0000   1.0000
     1.0000   1.0000   1.0000   1.0000   1.0000   1.0000

          k = 0.0000 0.0000 0.1948 (  6258 PWs)   bands (ev):

   -11.2799 -11.0201 -10.9095 -10.9094 -10.7616 -10.7616   0.4449   0.4449
     0.5752   0.5752   0.6630   0.6687   0.7168   0.7171   0.7864   0.7866
     0.9624   0.9624   1.0987   1.0987   1.1094   1.1094   1.1650   1.1650
     1.7046   1.7046   1.7321   1.7321   1.7735   1.7736   1.8022   1.8022
     1.8250   1.8250   1.8815   1.8815   2.9123   2.9123   3.0227   3.2682
     3.2682   4.1416   4.1416   4.5343   4.8411   4.8411   5.1031   5.1031
     5.3009   5.3010   5.6863   5.6869   5.9745   5.9751

     occupation numbers 
     1.0000   1.0000   1.0000   1.0000   1.0000   1.0000   1.0000   1.0000
     1.0000   1.0000   1.0000   1.0000   1.0000   1.0000   1.0000   1.0000
     1.0000   1.0000   1.0000   1.0000   1.0000   1.0000   1.0000   1.0000
     1.0000   1.0000   1.0000   1.0000   1.0000   1.0000   1.0000   1.0000
     1.0000   1.0000   1.0000   1.0000   1.0000   1.0000   1.0000   1.0000
     1.0000   1.0000   1.0000   1.0000   1.0000   1.0000   1.0000   1.0000
     1.0000   1.0000   1.0000   1.0000   1.0000   1.0000

          k = 0.0000 0.0000-0.2922 (  6268 PWs)   bands (ev):

   -11.1517 -11.1517 -10.8353 -10.8353 -10.8353 -10.8352   0.4718   0.4718
     0.4718   0.4718   0.6267   0.6267   0.7484   0.7485   0.7487   0.7487
     1.0326   1.0327   1.0327   1.0327   1.1084   1.1084   1.1084   1.1084
     1.7692   1.7692   1.7692   1.7692   1.7936   1.7936   1.7936   1.7936
     1.7982   1.7983   1.7983   1.7983   3.1233   3.1233   3.1233   3.1233
     3.7529   3.7529   4.6729   4.6729   4.6729   4.6729   5.0734   5.0735
     5.0735   5.0735   5.8307   5.8308   5.8313   5.8313

     occupation numbers 
     1.0000   1.0000   1.0000   1.0000   1.0000   1.0000   1.0000   1.0000
     1.0000   1.0000   1.0000   1.0000   1.0000   1.0000   1.0000   1.0000
     1.0000   1.0000   1.0000   1.0000   1.0000   1.0000   1.0000   1.0000
     1.0000   1.0000   1.0000   1.0000   1.0000   1.0000   1.0000   1.0000
     1.0000   1.0000   1.0000   1.0000   1.0000   1.0000   1.0000   1.0000
     1.0000   1.0000   1.0000   1.0000   1.0000   1.0000   1.0000   1.0000
     1.0000   1.0000   1.0000   1.0000   1.0000   1.0000

          k = 0.0000 0.0642 0.0000 (  6222 PWs)   bands (ev):

   -11.3893 -11.0840 -10.8954 -10.8764 -10.7266 -10.6629   0.4872   0.5011
     0.6763   0.7008   0.7522   0.7599   0.7701   0.8293   0.8438   0.8618
     0.9167   0.9228   1.0278   1.1055   1.2460   1.2689   1.3220   1.3771
     1.5817   1.6629   1.6842   1.6894   1.7181   1.7875   1.8306   1.8422
     1.8466   1.8654   2.0403   2.0553   2.1675   2.2977   2.4545   2.8148
     3.5558   3.6463   4.2246   4.4222   4.8125   5.1115   5.4112   5.4239
     5.4942   5.5043   5.6615   5.7865   5.9225   6.0957

     occupation numbers 
     1.0000   1.0000   1.0000   1.0000   1.0000   1.0000   1.0000   1.0000
     1.0000   1.0000   1.0000   1.0000   1.0000   1.0000   1.0000   1.0000
     1.0000   1.0000   1.0000   1.0000   1.0000   1.0000   1.0000   1.0000
     1.0000   1.0000   1.0000   1.0000   1.0000   1.0000   1.0000   1.0000
     1.0000   1.0000   1.0000   1.0000   1.0000   1.0000   1.0000   1.0000
     1.0000   1.0000   1.0000   1.0000   1.0000   1.0000   1.0000   1.0000
     1.0000   1.0000   1.0000   1.0000   1.0000   1.0000

          k = 0.0000 0.0642 0.0974 (  6221 PWs)   bands (ev):

   -11.3565 -11.0603 -10.9124 -10.8793 -10.7507 -10.6779   0.4743   0.4831
     0.6709   0.6950   0.7075   0.7161   0.7441   0.7856   0.8310   0.8481
     0.8754   0.9424   1.0159   1.0860   1.2062   1.2302   1.2416   1.3183
     1.6175   1.6827   1.6965   1.7011   1.7266   1.7916   1.8235   1.8295
     1.8375   1.8578   1.9424   1.9975   2.4359   2.5137   2.6238   2.9259
     3.6161   3.7378   4.1779   4.4931   4.8716   5.1236   5.2634   5.3476
     5.4332   5.4695   5.5443   5.6060   5.9775   6.0566

     occupation numbers 
     1.0000   1.0000   1.0000   1.0000   1.0000   1.0000   1.0000   1.0000
     1.0000   1.0000   1.0000   1.0000   1.0000   1.0000   1.0000   1.0000
     1.0000   1.0000   1.0000   1.0000   1.0000   1.0000   1.0000   1.0000
     1.0000   1.0000   1.0000   1.0000   1.0000   1.0000   1.0000   1.0000
     1.0000   1.0000   1.0000   1.0000   1.0000   1.0000   1.0000   1.0000
     1.0000   1.0000   1.0000   1.0000   1.0000   1.0000   1.0000   1.0000
     1.0000   1.0000   1.0000   1.0000   1.0000   1.0000

          k = 0.0000 0.0642 0.1948 (  6248 PWs)   bands (ev):

   -11.2659 -11.0096 -10.9953 -10.8356 -10.8164 -10.7192   0.4550   0.4560
     0.5684   0.5850   0.6379   0.6605   0.7277   0.7406   0.7988   0.8029
     0.9142   0.9980   1.0017   1.0354   1.0781   1.1702   1.2024   1.2371
     1.6913   1.7288   1.7311   1.7448   1.7495   1.8023   1.8026   1.8045
     1.8133   1.8399   1.8583   1.9100   2.6414   2.9327   3.0335   3.0880
     3.6439   4.1484   4.2721   4.5189   4.6817   5.0305   5.0307   5.1728
     5.1791   5.4537   5.5789   5.6534   5.8823   5.9491

     occupation numbers 
     1.0000   1.0000   1.0000   1.0000   1.0000   1.0000   1.0000   1.0000
     1.0000   1.0000   1.0000   1.0000   1.0000   1.0000   1.0000   1.0000
     1.0000   1.0000   1.0000   1.0000   1.0000   1.0000   1.0000   1.0000
     1.0000   1.0000   1.0000   1.0000   1.0000   1.0000   1.0000   1.0000
     1.0000   1.0000   1.0000   1.0000   1.0000   1.0000   1.0000   1.0000
     1.0000   1.0000   1.0000   1.0000   1.0000   1.0000   1.0000   1.0000
     1.0000   1.0000   1.0000   1.0000   1.0000   1.0000

          k = 0.0000 0.0642-0.2922 (  6260 PWs)   bands (ev):

   -11.1394 -11.1393 -10.9061 -10.9060 -10.7768 -10.7767   0.4730   0.4731
     0.4821   0.4821   0.6122   0.6122   0.7602   0.7602   0.7656   0.7656
     0.9718   0.9719   1.0182   1.0182   1.0800   1.0801   1.1996   1.1996
     1.7687   1.7687   1.7688   1.7688   1.7762   1.7763   1.7811   1.7811
     1.8196   1.8197   1.8253   1.8253   2.7968   2.7968   3.4348   3.4348
     3.7578   3.7578   4.6784   4.6784   4.7202   4.7202   4.9305   4.9306
     5.2439   5.2439   5.7314   5.7315   5.8017   5.8017

     occupation numbers 
     1.0000   1.0000   1.0000   1.0000   1.0000   1.0000   1.0000   1.0000
     1.0000   1.0000   1.0000   1.0000   1.0000   1.0000   1.0000   1.0000
     1.0000   1.0000   1.0000   1.0000   1.0000   1.0000   1.0000   1.0000
     1.0000   1.0000   1.0000   1.0000   1.0000   1.0000   1.0000   1.0000
     1.0000   1.0000   1.0000   1.0000   1.0000   1.0000   1.0000   1.0000
     1.0000   1.0000   1.0000   1.0000   1.0000   1.0000   1.0000   1.0000
     1.0000   1.0000   1.0000   1.0000   1.0000   1.0000

          k = 0.0000 0.1283 0.0000 (  6234 PWs)   bands (ev):

   -11.3442 -11.1840 -10.8520 -10.8313 -10.7711 -10.6516   0.5245   0.5389
     0.6356   0.7283   0.7439   0.7805   0.7815   0.8166   0.8330   0.8810
     0.9364   0.9379   0.9818   1.0176   1.2053   1.3053   1.3195   1.4016
     1.6051   1.6654   1.6872   1.6972   1.7108   1.8188   1.8329   1.8406
     1.8746   1.8806   2.0111   2.0209   2.1649   2.1969   2.3609   2.7309
     3.5423   4.0727   4.3009   4.6005   4.9464   5.0311   5.0847   5.3347
     5.3874   5.3971   5.6504   5.8016   5.8553   6.0309

     occupation numbers 
     1.0000   1.0000   1.0000   1.0000   1.0000   1.0000   1.0000   1.0000
     1.0000   1.0000   1.0000   1.0000   1.0000   1.0000   1.0000   1.0000
     1.0000   1.0000   1.0000   1.0000   1.0000   1.0000   1.0000   1.0000
     1.0000   1.0000   1.0000   1.0000   1.0000   1.0000   1.0000   1.0000
     1.0000   1.0000   1.0000   1.0000   1.0000   1.0000   1.0000   1.0000
     1.0000   1.0000   1.0000   1.0000   1.0000   1.0000   1.0000   1.0000
     1.0000   1.0000   1.0000   1.0000   1.0000   1.0000

          k = 0.0000 0.1283 0.0974 (  6247 PWs)   bands (ev):

   -11.3127 -11.1570 -10.8864 -10.8184 -10.7994 -10.6628   0.5112   0.5161
     0.6232   0.6838   0.7290   0.7357   0.7553   0.7997   0.8274   0.8674
     0.9089   0.9266   0.9578   1.0011   1.1004   1.2889   1.2952   1.3594
     1.6328   1.6805   1.6988   1.7075   1.7432   1.8209   1.8252   1.8315
     1.8485   1.8678   1.9110   1.9963   2.3583   2.4574   2.5557   2.7355
     3.7305   4.1049   4.3759   4.5278   4.9862   5.0205   5.0841   5.2058
     5.2687   5.4401   5.5615   5.7509   5.8093   5.9889

     occupation numbers 
     1.0000   1.0000   1.0000   1.0000   1.0000   1.0000   1.0000   1.0000
     1.0000   1.0000   1.0000   1.0000   1.0000   1.0000   1.0000   1.0000
     1.0000   1.0000   1.0000   1.0000   1.0000   1.0000   1.0000   1.0000
     1.0000   1.0000   1.0000   1.0000   1.0000   1.0000   1.0000   1.0000
     1.0000   1.0000   1.0000   1.0000   1.0000   1.0000   1.0000   1.0000
     1.0000   1.0000   1.0000   1.0000   1.0000   1.0000   1.0000   1.0000
     1.0000   1.0000   1.0000   1.0000   1.0000   1.0000

          k = 0.0000 0.1283 0.1948 (  6241 PWs)   bands (ev):

   -11.2254 -11.0827 -10.9794 -10.8762 -10.7839 -10.6940   0.4759   0.4892
     0.5614   0.5906   0.6004   0.6418   0.7579   0.7859   0.8336   0.8465
     0.8586   0.9167   0.9585   0.9900   1.0192   1.2095   1.2764   1.3019
     1.6952   1.7192   1.7292   1.7349   1.8024   1.8065   1.8074   1.8110
     1.8276   1.8386   1.8531   1.9396   2.4167   2.6545   3.0634   3.1293
     4.0169   4.2059   4.4565   4.5545   4.5745   4.9665   5.0871   5.2275
     5.2797   5.2951   5.5572   5.6120   5.6674   5.8740

     occupation numbers 
     1.0000   1.0000   1.0000   1.0000   1.0000   1.0000   1.0000   1.0000
     1.0000   1.0000   1.0000   1.0000   1.0000   1.0000   1.0000   1.0000
     1.0000   1.0000   1.0000   1.0000   1.0000   1.0000   1.0000   1.0000
     1.0000   1.0000   1.0000   1.0000   1.0000   1.0000   1.0000   1.0000
     1.0000   1.0000   1.0000   1.0000   1.0000   1.0000   1.0000   1.0000
     1.0000   1.0000   1.0000   1.0000   1.0000   1.0000   1.0000   1.0000
     1.0000   1.0000   1.0000   1.0000   1.0000   1.0000

          k = 0.0000 0.1283-0.2922 (  6236 PWs)   bands (ev):

   -11.1038 -11.1037 -10.9801 -10.9801 -10.7382 -10.7381   0.4792   0.4792
     0.5062   0.5062   0.5792   0.5792   0.7929   0.7929   0.8071   0.8072
     0.9057   0.9057   0.9360   0.9360   1.1096   1.1097   1.2743   1.2743
     1.7672   1.7672   1.7677   1.7678   1.7684   1.7685   1.7712   1.7712
     1.8384   1.8385   1.8750   1.8750   2.5283   2.5283   3.6526   3.6526
     3.7646   3.7646   4.6950   4.6950   4.8348   4.8348   4.8788   4.8789
     5.4209   5.4209   5.4759   5.4760   5.7161   5.7162

     occupation numbers 
     1.0000   1.0000   1.0000   1.0000   1.0000   1.0000   1.0000   1.0000
     1.0000   1.0000   1.0000   1.0000   1.0000   1.0000   1.0000   1.0000
     1.0000   1.0000   1.0000   1.0000   1.0000   1.0000   1.0000   1.0000
     1.0000   1.0000   1.0000   1.0000   1.0000   1.0000   1.0000   1.0000
     1.0000   1.0000   1.0000   1.0000   1.0000   1.0000   1.0000   1.0000
     1.0000   1.0000   1.0000   1.0000   1.0000   1.0000   1.0000   1.0000
     1.0000   1.0000   1.0000   1.0000   1.0000   1.0000

          k = 0.0000-0.1925 0.0000 (  6250 PWs)   bands (ev):

   -11.2737 -11.2736 -10.8152 -10.8152 -10.8068 -10.6497   0.5593   0.5795
     0.5795   0.7391   0.7693   0.7693   0.7884   0.7884   0.8689   0.8690
     0.9403   0.9404   0.9408   1.0829   1.0830   1.2999   1.3372   1.4502
     1.6372   1.6372   1.6880   1.6881   1.7339   1.8312   1.8362   1.8362
     1.8783   1.9434   1.9434   1.9519   2.1666   2.1666   2.3623   2.6863
     3.5320   4.2577   4.6009   4.6009   4.8783   4.9920   4.9920   5.2331
     5.2331   5.3078   5.7704   5.7705   5.9293   5.9294

     occupation numbers 
     1.0000   1.0000   1.0000   1.0000   1.0000   1.0000   1.0000   1.0000
     1.0000   1.0000   1.0000   1.0000   1.0000   1.0000   1.0000   1.0000
     1.0000   1.0000   1.0000   1.0000   1.0000   1.0000   1.0000   1.0000
     1.0000   1.0000   1.0000   1.0000   1.0000   1.0000   1.0000   1.0000
     1.0000   1.0000   1.0000   1.0000   1.0000   1.0000   1.0000   1.0000
     1.0000   1.0000   1.0000   1.0000   1.0000   1.0000   1.0000   1.0000
     1.0000   1.0000   1.0000   1.0000   1.0000   1.0000

          k = 0.0000-0.1925 0.0974 (  6252 PWs)   bands (ev):

   -11.2440 -11.2440 -10.8470 -10.8469 -10.7954 -10.6593   0.5341   0.5656
     0.5656   0.6771   0.7433   0.7433   0.7780   0.7781   0.8536   0.8537
     0.9258   0.9258   0.9627   0.9957   0.9958   1.2954   1.3054   1.4073
     1.6575   1.6575   1.6994   1.6994   1.7772   1.8277   1.8277   1.8326
     1.8717   1.8775   1.8775   1.9502   2.3475   2.4967   2.4967   2.6316
     3.7518   4.3342   4.5974   4.5974   4.8842   4.8842   4.9286   5.2408
     5.2806   5.2806   5.6775   5.6775   5.8834   5.8834

     occupation numbers 
     1.0000   1.0000   1.0000   1.0000   1.0000   1.0000   1.0000   1.0000
     1.0000   1.0000   1.0000   1.0000   1.0000   1.0000   1.0000   1.0000
     1.0000   1.0000   1.0000   1.0000   1.0000   1.0000   1.0000   1.0000
     1.0000   1.0000   1.0000   1.0000   1.0000   1.0000   1.0000   1.0000
     1.0000   1.0000   1.0000   1.0000   1.0000   1.0000   1.0000   1.0000
     1.0000   1.0000   1.0000   1.0000   1.0000   1.0000   1.0000   1.0000
     1.0000   1.0000   1.0000   1.0000   1.0000   1.0000

          k = 0.0000-0.1925 0.1948 (  6240 PWs)   bands (ev):

   -11.1622 -11.1622 -10.9330 -10.9330 -10.7649 -10.6862   0.4878   0.5376
     0.5376   0.5567   0.6203   0.6203   0.8037   0.8037   0.8446   0.8447
     0.8887   0.8887   0.9105   0.9105   1.0260   1.2229   1.2916   1.3437
     1.7068   1.7068   1.7291   1.7292   1.8034   1.8034   1.8225   1.8225
     1.8375   1.8518   1.8583   1.9401   2.3526   2.5169   3.1031   3.1032
     4.2364   4.3016   4.3016   4.5365   4.9225   4.9226   4.9385   5.0569
     5.4097   5.4097   5.4417   5.4417   5.7574   5.7574

     occupation numbers 
     1.0000   1.0000   1.0000   1.0000   1.0000   1.0000   1.0000   1.0000
     1.0000   1.0000   1.0000   1.0000   1.0000   1.0000   1.0000   1.0000
     1.0000   1.0000   1.0000   1.0000   1.0000   1.0000   1.0000   1.0000
     1.0000   1.0000   1.0000   1.0000   1.0000   1.0000   1.0000   1.0000
     1.0000   1.0000   1.0000   1.0000   1.0000   1.0000   1.0000   1.0000
     1.0000   1.0000   1.0000   1.0000   1.0000   1.0000   1.0000   1.0000
     1.0000   1.0000   1.0000   1.0000   1.0000   1.0000

          k = 0.0000-0.1925-0.2922 (  6220 PWs)   bands (ev):

   -11.0487 -11.0487 -11.0486 -11.0486 -10.7247 -10.7246   0.4824   0.4825
     0.5408   0.5408   0.5408   0.5408   0.8434   0.8434   0.8434   0.8434
     0.8649   0.8649   0.8649   0.8649   1.1196   1.1197   1.3044   1.3045
     1.7662   1.7662   1.7662   1.7662   1.7676   1.7677   1.7677   1.7677
     1.8462   1.8462   1.9100   1.9100   2.4119   2.4119   3.7467   3.7467
     3.7467   3.7467   4.7024   4.7025   4.8010   4.8011   5.1572   5.1573
     5.1573   5.1573   5.5843   5.5843   5.5843   5.5844

     occupation numbers 
     1.0000   1.0000   1.0000   1.0000   1.0000   1.0000   1.0000   1.0000
     1.0000   1.0000   1.0000   1.0000   1.0000   1.0000   1.0000   1.0000
     1.0000   1.0000   1.0000   1.0000   1.0000   1.0000   1.0000   1.0000
     1.0000   1.0000   1.0000   1.0000   1.0000   1.0000   1.0000   1.0000
     1.0000   1.0000   1.0000   1.0000   1.0000   1.0000   1.0000   1.0000
     1.0000   1.0000   1.0000   1.0000   1.0000   1.0000   1.0000   1.0000
     1.0000   1.0000   1.0000   1.0000   1.0000   1.0000

          k = 0.1667 0.0962 0.0000 (  6253 PWs)   bands (ev):

   -11.2737 -11.0621 -10.8152 -10.8131 -10.7172 -10.6470   0.5723   0.5797
     0.6415   0.7335   0.7691   0.7884   0.8691   0.8747   0.9130   0.9377
     0.9402   0.9674   1.0830   1.1494   1.2221   1.3260   1.3451   1.4128
     1.5885   1.6372   1.6485   1.6881   1.7075   1.7375   1.8362   1.8477
     1.8995   1.9435   2.0475   2.0924   2.1665   2.3500   2.3983   2.9382
     3.5204   3.8047   3.8363   3.9104   4.6013   4.6223   4.8528   4.9923
     5.0301   5.2327   5.4698   5.4903   5.7704   5.9289

     occupation numbers 
     1.0000   1.0000   1.0000   1.0000   1.0000   1.0000   1.0000   1.0000
     1.0000   1.0000   1.0000   1.0000   1.0000   1.0000   1.0000   1.0000
     1.0000   1.0000   1.0000   1.0000   1.0000   1.0000   1.0000   1.0000
     1.0000   1.0000   1.0000   1.0000   1.0000   1.0000   1.0000   1.0000
     1.0000   1.0000   1.0000   1.0000   1.0000   1.0000   1.0000   1.0000
     1.0000   1.0000   1.0000   1.0000   1.0000   1.0000   1.0000   1.0000
     1.0000   1.0000   1.0000   1.0000   1.0000   1.0000

          k = 0.1667 0.0962 0.0974 (  6265 PWs)   bands (ev):

   -11.2440 -11.0392 -10.8469 -10.8012 -10.7404 -10.6572   0.5532   0.5658
     0.6308   0.7076   0.7434   0.7778   0.8201   0.8537   0.9082   0.9209
     0.9256   0.9629   0.9958   1.1316   1.2072   1.2098   1.3076   1.3444
     1.6197   1.6574   1.6644   1.6995   1.7269   1.7781   1.8277   1.8390
     1.8775   1.8991   1.9603   2.0705   2.4287   2.4967   2.6541   2.9294
     3.6414   3.8614   3.9109   3.9712   4.5977   4.6462   4.8202   4.8844
     5.0269   5.2803   5.4062   5.4406   5.6776   5.8830

     occupation numbers 
     1.0000   1.0000   1.0000   1.0000   1.0000   1.0000   1.0000   1.0000
     1.0000   1.0000   1.0000   1.0000   1.0000   1.0000   1.0000   1.0000
     1.0000   1.0000   1.0000   1.0000   1.0000   1.0000   1.0000   1.0000
     1.0000   1.0000   1.0000   1.0000   1.0000   1.0000   1.0000   1.0000
     1.0000   1.0000   1.0000   1.0000   1.0000   1.0000   1.0000   1.0000
     1.0000   1.0000   1.0000   1.0000   1.0000   1.0000   1.0000   1.0000
     1.0000   1.0000   1.0000   1.0000   1.0000   1.0000

          k = 0.1667 0.0962 0.1948 (  6253 PWs)   bands (ev):

   -11.1622 -10.9762 -10.9330 -10.8036 -10.7691 -10.6859   0.5200   0.5377
     0.6053   0.6135   0.6204   0.7008   0.8035   0.8447   0.8885   0.9064
     0.9073   0.9106   0.9831   1.0850   1.0894   1.1549   1.2364   1.2737
     1.6953   1.7068   1.7292   1.7327   1.7552   1.8029   1.8034   1.8170
     1.8225   1.8746   1.9077   2.0093   2.5338   2.8289   3.1032   3.1049
     3.7030   3.9342   4.2447   4.3017   4.3173   4.6503   4.7581   4.9229
     5.0123   5.2217   5.2365   5.4093   5.4419   5.7570

     occupation numbers 
     1.0000   1.0000   1.0000   1.0000   1.0000   1.0000   1.0000   1.0000
     1.0000   1.0000   1.0000   1.0000   1.0000   1.0000   1.0000   1.0000
     1.0000   1.0000   1.0000   1.0000   1.0000   1.0000   1.0000   1.0000
     1.0000   1.0000   1.0000   1.0000   1.0000   1.0000   1.0000   1.0000
     1.0000   1.0000   1.0000   1.0000   1.0000   1.0000   1.0000   1.0000
     1.0000   1.0000   1.0000   1.0000   1.0000   1.0000   1.0000   1.0000
     1.0000   1.0000   1.0000   1.0000   1.0000   1.0000

          k = 0.1667 0.0962-0.2922 (  6254 PWs)   bands (ev):

   -11.0487 -11.0486 -10.8901 -10.8900 -10.7267 -10.7266   0.5292   0.5292
     0.5409   0.5409   0.6145   0.6145   0.8432   0.8432   0.8650   0.8650
     0.9104   0.9104   1.0555   1.0556   1.0569   1.0569   1.2363   1.2363
     1.7662   1.7662   1.7677   1.7677   1.7757   1.7757   1.7889   1.7890
     1.7973   1.7973   1.9442   1.9442   2.6796   2.6796   3.4522   3.4522
     3.7467   3.7467   4.2574   4.2574   4.7177   4.7177   4.8103   4.8103
     5.0333   5.0334   5.1576   5.1576   5.5839   5.5840

     occupation numbers 
     1.0000   1.0000   1.0000   1.0000   1.0000   1.0000   1.0000   1.0000
     1.0000   1.0000   1.0000   1.0000   1.0000   1.0000   1.0000   1.0000
     1.0000   1.0000   1.0000   1.0000   1.0000   1.0000   1.0000   1.0000
     1.0000   1.0000   1.0000   1.0000   1.0000   1.0000   1.0000   1.0000
     1.0000   1.0000   1.0000   1.0000   1.0000   1.0000   1.0000   1.0000
     1.0000   1.0000   1.0000   1.0000   1.0000   1.0000   1.0000   1.0000
     1.0000   1.0000   1.0000   1.0000   1.0000   1.0000

          k = 0.1667 0.1604 0.0000 (  6255 PWs)   bands (ev):

   -11.2210 -11.1482 -10.7889 -10.7693 -10.7545 -10.6463   0.5538   0.5573
     0.6438   0.7534   0.7722   0.8056   0.8520   0.8898   0.9058   0.9448
     0.9802   0.9925   1.0672   1.1579   1.2482   1.2913   1.3763   1.3970
     1.6044   1.6207   1.6896   1.6908   1.6934   1.7436   1.8380   1.8408
     1.9198   1.9862   1.9882   2.0298   2.1798   2.2352   2.4222   2.7933
     3.3775   3.9521   4.0685   4.3010   4.3338   4.6740   4.6936   4.9202
     4.9606   5.1246   5.6146   5.6676   5.7062   5.8312

     occupation numbers 
     1.0000   1.0000   1.0000   1.0000   1.0000   1.0000   1.0000   1.0000
     1.0000   1.0000   1.0000   1.0000   1.0000   1.0000   1.0000   1.0000
     1.0000   1.0000   1.0000   1.0000   1.0000   1.0000   1.0000   1.0000
     1.0000   1.0000   1.0000   1.0000   1.0000   1.0000   1.0000   1.0000
     1.0000   1.0000   1.0000   1.0000   1.0000   1.0000   1.0000   1.0000
     1.0000   1.0000   1.0000   1.0000   1.0000   1.0000   1.0000   1.0000
     1.0000   1.0000   1.0000   1.0000   1.0000   1.0000

          k = 0.1667 0.1604 0.0974 (  6253 PWs)   bands (ev):

   -11.1929 -11.1224 -10.8186 -10.7813 -10.7601 -10.6535   0.5378   0.5430
     0.6367   0.7195   0.7328   0.8054   0.8465   0.8772   0.8820   0.8939
     0.9553   0.9777   1.0518   1.0604   1.1392   1.2838   1.3323   1.3668
     1.6314   1.6444   1.7014   1.7081   1.7177   1.7661   1.8291   1.8317
     1.8992   1.9284   1.9285   2.0027   2.3981   2.5314   2.5874   2.7428
     3.5205   4.0985   4.1018   4.2763   4.3496   4.6305   4.6726   4.9414
     4.9449   5.1560   5.5390   5.6128   5.6146   5.7822

     occupation numbers 
     1.0000   1.0000   1.0000   1.0000   1.0000   1.0000   1.0000   1.0000
     1.0000   1.0000   1.0000   1.0000   1.0000   1.0000   1.0000   1.0000
     1.0000   1.0000   1.0000   1.0000   1.0000   1.0000   1.0000   1.0000
     1.0000   1.0000   1.0000   1.0000   1.0000   1.0000   1.0000   1.0000
     1.0000   1.0000   1.0000   1.0000   1.0000   1.0000   1.0000   1.0000
     1.0000   1.0000   1.0000   1.0000   1.0000   1.0000   1.0000   1.0000
     1.0000   1.0000   1.0000   1.0000   1.0000   1.0000

          k = 0.1667 0.1604 0.1948 (  6251 PWs)   bands (ev):

   -11.1154 -11.0512 -10.8994 -10.8543 -10.7356 -10.6740   0.5091   0.5161
     0.6068   0.6102   0.6184   0.7298   0.8281   0.8571   0.8659   0.8826
     0.9423   0.9616   0.9802   1.0157   1.0270   1.1872   1.3036   1.3300
     1.6964   1.7007   1.7307   1.7374   1.7602   1.7860   1.8041   1.8071
     1.8332   1.8507   1.9592   2.0209   2.4061   2.6219   3.1248   3.1375
     3.8282   3.9554   4.1582   4.4263   4.4506   4.5322   4.6998   4.9560
     5.0394   5.2614   5.2865   5.3623   5.4624   5.6473

     occupation numbers 
     1.0000   1.0000   1.0000   1.0000   1.0000   1.0000   1.0000   1.0000
     1.0000   1.0000   1.0000   1.0000   1.0000   1.0000   1.0000   1.0000
     1.0000   1.0000   1.0000   1.0000   1.0000   1.0000   1.0000   1.0000
     1.0000   1.0000   1.0000   1.0000   1.0000   1.0000   1.0000   1.0000
     1.0000   1.0000   1.0000   1.0000   1.0000   1.0000   1.0000   1.0000
     1.0000   1.0000   1.0000   1.0000   1.0000   1.0000   1.0000   1.0000
     1.0000   1.0000   1.0000   1.0000   1.0000   1.0000

          k = 0.1667 0.1604-0.2922 (  6248 PWs)   bands (ev):

   -11.0082 -11.0082 -10.9533 -10.9532 -10.7039 -10.7038   0.5193   0.5193
     0.5245   0.5245   0.6326   0.6326   0.8584   0.8584   0.8767   0.8767
     0.9224   0.9224   0.9929   0.9929   1.0644   1.0644   1.3083   1.3083
     1.7662   1.7662   1.7689   1.7689   1.7706   1.7706   1.7790   1.7790
     1.7832   1.7832   2.0004   2.0004   2.4934   2.4934   3.6160   3.6160
     3.7072   3.7072   4.1743   4.1744   4.8166   4.8166   4.8350   4.8350
     4.9890   4.9891   5.2654   5.2655   5.4642   5.4643

     occupation numbers 
     1.0000   1.0000   1.0000   1.0000   1.0000   1.0000   1.0000   1.0000
     1.0000   1.0000   1.0000   1.0000   1.0000   1.0000   1.0000   1.0000
     1.0000   1.0000   1.0000   1.0000   1.0000   1.0000   1.0000   1.0000
     1.0000   1.0000   1.0000   1.0000   1.0000   1.0000   1.0000   1.0000
     1.0000   1.0000   1.0000   1.0000   1.0000   1.0000   1.0000   1.0000
     1.0000   1.0000   1.0000   1.0000   1.0000   1.0000   1.0000   1.0000
     1.0000   1.0000   1.0000   1.0000   1.0000   1.0000

          k = 0.1667-0.0321 0.0000 (  6234 PWs)   bands (ev):

   -11.3012 -10.9712 -10.8847 -10.8293 -10.6833 -10.6587   0.6076   0.6089
     0.6338   0.7327   0.7413   0.7821   0.7996   0.8374   0.9212   0.9368
     0.9541   1.0301   1.0462   1.1325   1.2284   1.2955   1.3802   1.4097
     1.5789   1.5958   1.6495   1.6856   1.7279   1.7386   1.8344   1.8605
     1.8793   1.9197   2.0624   2.0920   2.1650   2.4696   2.4854   3.1400
     3.4493   3.6135   3.6926   3.9446   4.2745   4.8333   5.0373   5.0645
     5.1639   5.2662   5.3332   5.3446   5.8058   5.9548

     occupation numbers 
     1.0000   1.0000   1.0000   1.0000   1.0000   1.0000   1.0000   1.0000
     1.0000   1.0000   1.0000   1.0000   1.0000   1.0000   1.0000   1.0000
     1.0000   1.0000   1.0000   1.0000   1.0000   1.0000   1.0000   1.0000
     1.0000   1.0000   1.0000   1.0000   1.0000   1.0000   1.0000   1.0000
     1.0000   1.0000   1.0000   1.0000   1.0000   1.0000   1.0000   1.0000
     1.0000   1.0000   1.0000   1.0000   1.0000   1.0000   1.0000   1.0000
     1.0000   1.0000   1.0000   1.0000   1.0000   1.0000

          k = 0.1667-0.0321 0.0974 (  6262 PWs)   bands (ev):

   -11.2708 -10.9516 -10.8690 -10.8622 -10.7023 -10.6731   0.5856   0.5946
     0.6160   0.7107   0.7313   0.7494   0.7795   0.8155   0.9078   0.9327
     0.9529   0.9649   1.0139   1.1175   1.2059   1.2566   1.2661   1.2993
     1.6143   1.6258   1.6675   1.6974   1.7544   1.7750   1.8262   1.8534
     1.8672   1.8747   1.9958   2.0406   2.4808   2.5914   2.6821   3.1787
     3.4970   3.7282   3.7572   4.0167   4.3132   4.8038   4.9542   4.9996
     5.1654   5.1957   5.3132   5.3496   5.7271   5.9101

     occupation numbers 
     1.0000   1.0000   1.0000   1.0000   1.0000   1.0000   1.0000   1.0000
     1.0000   1.0000   1.0000   1.0000   1.0000   1.0000   1.0000   1.0000
     1.0000   1.0000   1.0000   1.0000   1.0000   1.0000   1.0000   1.0000
     1.0000   1.0000   1.0000   1.0000   1.0000   1.0000   1.0000   1.0000
     1.0000   1.0000   1.0000   1.0000   1.0000   1.0000   1.0000   1.0000
     1.0000   1.0000   1.0000   1.0000   1.0000   1.0000   1.0000   1.0000
     1.0000   1.0000   1.0000   1.0000   1.0000   1.0000

          k = 0.1667-0.0321 0.1948 (  6273 PWs)   bands (ev):

   -11.1868 -10.9509 -10.8984 -10.8264 -10.7543 -10.7132   0.5470   0.5625
     0.5799   0.6270   0.6309   0.6614   0.7842   0.8083   0.8750   0.8885
     0.9390   0.9705   0.9844   1.0779   1.1294   1.1532   1.1752   1.2076
     1.6989   1.7109   1.7122   1.7280   1.7818   1.8021   1.8023   1.8186
     1.8371   1.8679   1.9070   1.9543   2.7674   2.9818   3.0893   3.1071
     3.4098   4.1022   4.1495   4.2606   4.3746   4.4605   4.8075   5.0080
     5.0659   5.0879   5.1589   5.4390   5.5419   5.7879

     occupation numbers 
     1.0000   1.0000   1.0000   1.0000   1.0000   1.0000   1.0000   1.0000
     1.0000   1.0000   1.0000   1.0000   1.0000   1.0000   1.0000   1.0000
     1.0000   1.0000   1.0000   1.0000   1.0000   1.0000   1.0000   1.0000
     1.0000   1.0000   1.0000   1.0000   1.0000   1.0000   1.0000   1.0000
     1.0000   1.0000   1.0000   1.0000   1.0000   1.0000   1.0000   1.0000
     1.0000   1.0000   1.0000   1.0000   1.0000   1.0000   1.0000   1.0000
     1.0000   1.0000   1.0000   1.0000   1.0000   1.0000

          k = 0.1667-0.0321-0.2922 (  6256 PWs)   bands (ev):

   -11.0701 -11.0700 -10.8261 -10.8260 -10.7692 -10.7692   0.5531   0.5531
     0.5572   0.5572   0.5848   0.5848   0.8094   0.8095   0.8543   0.8543
     0.9626   0.9626   1.0214   1.0214   1.1085   1.1086   1.1599   1.1599
     1.7658   1.7658   1.7680   1.7680   1.7839   1.7839   1.7896   1.7896
     1.8315   1.8315   1.8824   1.8824   2.9459   2.9459   3.2191   3.2191
     3.7595   3.7596   4.4102   4.4102   4.5889   4.5889   4.8113   4.8113
     4.8625   4.8625   5.2800   5.2800   5.6226   5.6227

     occupation numbers 
     1.0000   1.0000   1.0000   1.0000   1.0000   1.0000   1.0000   1.0000
     1.0000   1.0000   1.0000   1.0000   1.0000   1.0000   1.0000   1.0000
     1.0000   1.0000   1.0000   1.0000   1.0000   1.0000   1.0000   1.0000
     1.0000   1.0000   1.0000   1.0000   1.0000   1.0000   1.0000   1.0000
     1.0000   1.0000   1.0000   1.0000   1.0000   1.0000   1.0000   1.0000
     1.0000   1.0000   1.0000   1.0000   1.0000   1.0000   1.0000   1.0000
     1.0000   1.0000   1.0000   1.0000   1.0000   1.0000

          k = 0.3333 0.1925 0.0000 (  6237 PWs)   bands (ev):

   -10.9840 -10.9840 -10.6886 -10.6885 -10.6774 -10.6773   0.4791   0.4791
     0.6786   0.7606   0.7606   0.8979   0.8979   1.1229   1.1230   1.1335
     1.1335   1.1931   1.1931   1.2773   1.3831   1.3831   1.6018   1.6018
     1.6156   1.6157   1.6247   1.7105   1.7504   1.7504   1.8178   1.8178
     1.8550   1.8550   2.0459   2.0460   2.4294   2.4294   2.6326   2.6326
     2.7807   3.1006   3.1006   3.8914   3.8914   4.3516   4.3517   4.4000
     4.6008   4.6008   5.3081   5.3081   5.5251   5.5251

     occupation numbers 
     1.0000   1.0000   1.0000   1.0000   1.0000   1.0000   1.0000   1.0000
     1.0000   1.0000   1.0000   1.0000   1.0000   1.0000   1.0000   1.0000
     1.0000   1.0000   1.0000   1.0000   1.0000   1.0000   1.0000   1.0000
     1.0000   1.0000   1.0000   1.0000   1.0000   1.0000   1.0000   1.0000
     1.0000   1.0000   1.0000   1.0000   1.0000   1.0000   1.0000   1.0000
     1.0000   1.0000   1.0000   1.0000   1.0000   1.0000   1.0000   1.0000
     1.0000   1.0000   1.0000   1.0000   1.0000   1.0000

          k = 0.3333 0.1925 0.0974 (  6247 PWs)   bands (ev):

   -10.9640 -10.9640 -10.7081 -10.7081 -10.6762 -10.6762   0.4648   0.4648
     0.7038   0.7052   0.7052   0.9147   0.9147   1.0635   1.0635   1.1193
     1.1193   1.1699   1.1699   1.2056   1.2857   1.2857   1.5378   1.5379
     1.6306   1.6306   1.6353   1.7059   1.7565   1.7566   1.8465   1.8466
     1.9264   1.9265   1.9698   1.9699   2.5939   2.5939   2.6448   2.6449
     2.9055   3.1980   3.1980   3.8898   3.8898   4.2919   4.4781   4.4781
     4.6660   4.6660   5.2838   5.2838   5.4652   5.4652

     occupation numbers 
     1.0000   1.0000   1.0000   1.0000   1.0000   1.0000   1.0000   1.0000
     1.0000   1.0000   1.0000   1.0000   1.0000   1.0000   1.0000   1.0000
     1.0000   1.0000   1.0000   1.0000   1.0000   1.0000   1.0000   1.0000
     1.0000   1.0000   1.0000   1.0000   1.0000   1.0000   1.0000   1.0000
     1.0000   1.0000   1.0000   1.0000   1.0000   1.0000   1.0000   1.0000
     1.0000   1.0000   1.0000   1.0000   1.0000   1.0000   1.0000   1.0000
     1.0000   1.0000   1.0000   1.0000   1.0000   1.0000

          k = 0.3333 0.1925 0.1948 (  6273 PWs)   bands (ev):

   -10.9095 -10.9094 -10.7616 -10.7616 -10.6740 -10.6739   0.4451   0.4451
     0.5753   0.5753   0.7786   0.9457   0.9457   0.9622   0.9622   1.0535
     1.0987   1.0987   1.1092   1.1092   1.1650   1.1650   1.4755   1.4755
     1.6547   1.6931   1.7047   1.7047   1.7736   1.7736   1.8250   1.8250
     1.8815   1.8816   2.0589   2.0589   2.5198   2.5199   2.9124   2.9124
     3.2184   3.2684   3.2684   4.0030   4.1417   4.1417   4.7227   4.7227
     4.8407   4.8407   5.1032   5.1032   5.3006   5.3006

     occupation numbers 
     1.0000   1.0000   1.0000   1.0000   1.0000   1.0000   1.0000   1.0000
     1.0000   1.0000   1.0000   1.0000   1.0000   1.0000   1.0000   1.0000
     1.0000   1.0000   1.0000   1.0000   1.0000   1.0000   1.0000   1.0000
     1.0000   1.0000   1.0000   1.0000   1.0000   1.0000   1.0000   1.0000
     1.0000   1.0000   1.0000   1.0000   1.0000   1.0000   1.0000   1.0000
     1.0000   1.0000   1.0000   1.0000   1.0000   1.0000   1.0000   1.0000
     1.0000   1.0000   1.0000   1.0000   1.0000   1.0000

          k = 0.3333 0.1925-0.2922 (  6274 PWs)   bands (ev):

   -10.8353 -10.8353 -10.8353 -10.8352 -10.6729 -10.6728   0.4719   0.4719
     0.4719   0.4719   0.8896   0.8896   0.8993   0.8993   1.0324   1.0324
     1.0325   1.0325   1.1085   1.1085   1.1085   1.1085   1.4585   1.4585
     1.6750   1.6750   1.7937   1.7937   1.7937   1.7937   1.7983   1.7983
     1.7983   1.7983   2.1151   2.1152   2.4810   2.4811   3.1235   3.1235
     3.1235   3.1235   3.6148   3.6149   4.6730   4.6730   4.6730   4.6730
     4.8425   4.8425   5.0731   5.0731   5.0731   5.0731

     occupation numbers 
     1.0000   1.0000   1.0000   1.0000   1.0000   1.0000   1.0000   1.0000
     1.0000   1.0000   1.0000   1.0000   1.0000   1.0000   1.0000   1.0000
     1.0000   1.0000   1.0000   1.0000   1.0000   1.0000   1.0000   1.0000
     1.0000   1.0000   1.0000   1.0000   1.0000   1.0000   1.0000   1.0000
     1.0000   1.0000   1.0000   1.0000   1.0000   1.0000   1.0000   1.0000
     1.0000   1.0000   1.0000   1.0000   1.0000   1.0000   1.0000   1.0000
     1.0000   1.0000   1.0000   1.0000   1.0000   1.0000

          k = 0.3333 0.2566 0.0000 (  6264 PWs)   bands (ev):

   -11.0259 -10.9311 -10.7122 -10.7034 -10.6719 -10.6552   0.4952   0.5052
     0.6785   0.7680   0.7713   0.8755   0.9071   1.0578   1.0676   1.1647
     1.1675   1.1771   1.2419   1.2466   1.3645   1.3862   1.4701   1.5670
     1.5845   1.6276   1.6552   1.6846   1.7309   1.7637   1.8512   1.8623
     1.8745   1.9225   2.0456   2.0555   2.3818   2.4744   2.5074   2.7613
     2.9069   2.9518   3.3312   3.7413   4.0177   4.1059   4.4240   4.4523
     4.6028   4.6361   5.2021   5.3992   5.4133   5.5434

     occupation numbers 
     1.0000   1.0000   1.0000   1.0000   1.0000   1.0000   1.0000   1.0000
     1.0000   1.0000   1.0000   1.0000   1.0000   1.0000   1.0000   1.0000
     1.0000   1.0000   1.0000   1.0000   1.0000   1.0000   1.0000   1.0000
     1.0000   1.0000   1.0000   1.0000   1.0000   1.0000   1.0000   1.0000
     1.0000   1.0000   1.0000   1.0000   1.0000   1.0000   1.0000   1.0000
     1.0000   1.0000   1.0000   1.0000   1.0000   1.0000   1.0000   1.0000
     1.0000   1.0000   1.0000   1.0000   1.0000   1.0000

          k = 0.3333 0.2566 0.0974 (  6264 PWs)   bands (ev):

   -11.0043 -10.9134 -10.7249 -10.7073 -10.6888 -10.6579   0.4812   0.4888
     0.6994   0.7125   0.7179   0.8908   0.9252   1.0038   1.0540   1.0875
     1.1440   1.1613   1.1982   1.2218   1.2515   1.3052   1.4362   1.4968
     1.6190   1.6486   1.6604   1.7242   1.7416   1.7742   1.8426   1.8547
     1.9170   1.9618   1.9915   1.9968   2.4798   2.6015   2.6542   2.7162
     3.0254   3.0640   3.4075   3.7851   3.9960   4.2306   4.4006   4.4936
     4.6778   4.6960   5.1965   5.3514   5.3575   5.4853

     occupation numbers 
     1.0000   1.0000   1.0000   1.0000   1.0000   1.0000   1.0000   1.0000
     1.0000   1.0000   1.0000   1.0000   1.0000   1.0000   1.0000   1.0000
     1.0000   1.0000   1.0000   1.0000   1.0000   1.0000   1.0000   1.0000
     1.0000   1.0000   1.0000   1.0000   1.0000   1.0000   1.0000   1.0000
     1.0000   1.0000   1.0000   1.0000   1.0000   1.0000   1.0000   1.0000
     1.0000   1.0000   1.0000   1.0000   1.0000   1.0000   1.0000   1.0000
     1.0000   1.0000   1.0000   1.0000   1.0000   1.0000

          k = 0.3333 0.2566 0.1948 (  6277 PWs)   bands (ev):

   -10.9451 -10.8650 -10.7838 -10.7353 -10.6947 -10.6662   0.4610   0.4643
     0.5853   0.5890   0.7533   0.8924   0.9326   0.9624   0.9765   1.0304
     1.0822   1.0922   1.1251   1.1265   1.1627   1.2014   1.4034   1.4278
     1.6919   1.6958   1.7187   1.7264   1.7631   1.7913   1.8203   1.8366
     1.8745   1.9027   2.0085   2.0904   2.4556   2.6122   2.7816   3.0179
     3.1009   3.3253   3.4541   4.0738   4.1333   4.1809   4.6084   4.6782
     4.8345   4.8578   5.0604   5.1463   5.1851   5.3249

     occupation numbers 
     1.0000   1.0000   1.0000   1.0000   1.0000   1.0000   1.0000   1.0000
     1.0000   1.0000   1.0000   1.0000   1.0000   1.0000   1.0000   1.0000
     1.0000   1.0000   1.0000   1.0000   1.0000   1.0000   1.0000   1.0000
     1.0000   1.0000   1.0000   1.0000   1.0000   1.0000   1.0000   1.0000
     1.0000   1.0000   1.0000   1.0000   1.0000   1.0000   1.0000   1.0000
     1.0000   1.0000   1.0000   1.0000   1.0000   1.0000   1.0000   1.0000
     1.0000   1.0000   1.0000   1.0000   1.0000   1.0000

          k = 0.3333 0.2566-0.2922 (  6286 PWs)   bands (ev):

   -10.8644 -10.8643 -10.7997 -10.7996 -10.6794 -10.6793   0.4862   0.4863
     0.4865   0.4865   0.8081   0.8081   0.9669   0.9669   0.9905   0.9906
     1.0520   1.0521   1.0731   1.0731   1.1548   1.1548   1.4013   1.4013
     1.7129   1.7130   1.7813   1.7813   1.7963   1.7964   1.7972   1.7972
     1.8262   1.8262   2.0860   2.0860   2.5079   2.5079   2.9592   2.9592
     3.2827   3.2828   3.7059   3.7059   4.6584   4.6584   4.6821   4.6822
     4.8373   4.8374   4.9478   4.9478   5.1032   5.1033

     occupation numbers 
     1.0000   1.0000   1.0000   1.0000   1.0000   1.0000   1.0000   1.0000
     1.0000   1.0000   1.0000   1.0000   1.0000   1.0000   1.0000   1.0000
     1.0000   1.0000   1.0000   1.0000   1.0000   1.0000   1.0000   1.0000
     1.0000   1.0000   1.0000   1.0000   1.0000   1.0000   1.0000   1.0000
     1.0000   1.0000   1.0000   1.0000   1.0000   1.0000   1.0000   1.0000
     1.0000   1.0000   1.0000   1.0000   1.0000   1.0000   1.0000   1.0000
     1.0000   1.0000   1.0000   1.0000   1.0000   1.0000

          k = 0.3333 0.3208 0.0000 (  6260 PWs)   bands (ev):

   -11.0529 -10.8724 -10.7584 -10.7136 -10.6568 -10.6456   0.5402   0.5708
     0.6730   0.7610   0.8019   0.8739   0.9202   0.9764   0.9954   1.0836
     1.1528   1.2070   1.2156   1.3014   1.3378   1.3811   1.3895   1.4769
     1.5851   1.6436   1.6515   1.7060   1.7145   1.7601   1.8487   1.8773
     1.9107   2.0365   2.0470   2.0801   2.3569   2.4179   2.4514   2.8734
     2.9288   3.2166   3.5956   3.6220   3.8881   4.0283   4.1213   4.6195
     4.6247   4.8263   5.0593   5.2296   5.4633   5.5023

     occupation numbers 
     1.0000   1.0000   1.0000   1.0000   1.0000   1.0000   1.0000   1.0000
     1.0000   1.0000   1.0000   1.0000   1.0000   1.0000   1.0000   1.0000
     1.0000   1.0000   1.0000   1.0000   1.0000   1.0000   1.0000   1.0000
     1.0000   1.0000   1.0000   1.0000   1.0000   1.0000   1.0000   1.0000
     1.0000   1.0000   1.0000   1.0000   1.0000   1.0000   1.0000   1.0000
     1.0000   1.0000   1.0000   1.0000   1.0000   1.0000   1.0000   1.0000
     1.0000   1.0000   1.0000   1.0000   1.0000   1.0000

          k = 0.3333 0.3208 0.0974 (  6275 PWs)   bands (ev):

   -11.0302 -10.8573 -10.7498 -10.7363 -10.6706 -10.6521   0.5239   0.5526
     0.6806   0.7220   0.7484   0.8767   0.9208   0.9341   0.9818   1.0299
     1.1341   1.1924   1.2031   1.2195   1.2729   1.3153   1.3459   1.4110
     1.6182   1.6602   1.6662   1.7310   1.7553   1.7850   1.8401   1.8722
     1.9203   1.9603   2.0306   2.0636   2.4112   2.5143   2.6544   2.8317
     2.9967   3.3231   3.6541   3.7298   4.0188   4.0511   4.2032   4.5730
     4.6599   4.8638   5.0557   5.1810   5.4067   5.4489

     occupation numbers 
     1.0000   1.0000   1.0000   1.0000   1.0000   1.0000   1.0000   1.0000
     1.0000   1.0000   1.0000   1.0000   1.0000   1.0000   1.0000   1.0000
     1.0000   1.0000   1.0000   1.0000   1.0000   1.0000   1.0000   1.0000
     1.0000   1.0000   1.0000   1.0000   1.0000   1.0000   1.0000   1.0000
     1.0000   1.0000   1.0000   1.0000   1.0000   1.0000   1.0000   1.0000
     1.0000   1.0000   1.0000   1.0000   1.0000   1.0000   1.0000   1.0000
     1.0000   1.0000   1.0000   1.0000   1.0000   1.0000

          k = 0.3333 0.3208 0.1948 (  6275 PWs)   bands (ev):

   -10.9682 -10.8166 -10.7985 -10.7272 -10.7087 -10.6707   0.4973   0.5216
     0.6081   0.6268   0.6899   0.7990   0.9007   0.9591   0.9770   0.9821
     1.0855   1.0987   1.1256   1.1522   1.1980   1.2331   1.3051   1.3403
     1.6944   1.7246   1.7291   1.7573   1.7751   1.8067   1.8179   1.8636
     1.8740   1.9462   1.9583   2.0695   2.4602   2.6484   2.7152   2.9560
     3.0833   3.5984   3.6254   4.1296   4.2272   4.2417   4.4267   4.5302
     4.7950   4.9031   4.9323   5.0789   5.1884   5.2827

     occupation numbers 
     1.0000   1.0000   1.0000   1.0000   1.0000   1.0000   1.0000   1.0000
     1.0000   1.0000   1.0000   1.0000   1.0000   1.0000   1.0000   1.0000
     1.0000   1.0000   1.0000   1.0000   1.0000   1.0000   1.0000   1.0000
     1.0000   1.0000   1.0000   1.0000   1.0000   1.0000   1.0000   1.0000
     1.0000   1.0000   1.0000   1.0000   1.0000   1.0000   1.0000   1.0000
     1.0000   1.0000   1.0000   1.0000   1.0000   1.0000   1.0000   1.0000
     1.0000   1.0000   1.0000   1.0000   1.0000   1.0000

          k = 0.3333 0.3208-0.2922 (  6278 PWs)   bands (ev):

   -10.8834 -10.8834 -10.7620 -10.7619 -10.6980 -10.6979   0.5143   0.5143
     0.5351   0.5351   0.7113   0.7113   0.9359   0.9359   1.0225   1.0225
     1.0600   1.0600   1.0621   1.0621   1.1928   1.1929   1.3074   1.3075
     1.7626   1.7626   1.7766   1.7766   1.7970   1.7970   1.7972   1.7972
     1.8766   1.8767   2.0195   2.0195   2.5779   2.5780   2.8083   2.8084
     3.4051   3.4052   3.9453   3.9454   4.5409   4.5409   4.7027   4.7028
     4.8239   4.8240   4.8258   4.8259   5.0641   5.0641

     occupation numbers 
     1.0000   1.0000   1.0000   1.0000   1.0000   1.0000   1.0000   1.0000
     1.0000   1.0000   1.0000   1.0000   1.0000   1.0000   1.0000   1.0000
     1.0000   1.0000   1.0000   1.0000   1.0000   1.0000   1.0000   1.0000
     1.0000   1.0000   1.0000   1.0000   1.0000   1.0000   1.0000   1.0000
     1.0000   1.0000   1.0000   1.0000   1.0000   1.0000   1.0000   1.0000
     1.0000   1.0000   1.0000   1.0000   1.0000   1.0000   1.0000   1.0000
     1.0000   1.0000   1.0000   1.0000   1.0000   1.0000

          k = 0.3333-0.0000 0.0000 (  6269 PWs)   bands (ev):

   -11.0621 -10.8132 -10.8131 -10.7172 -10.6470 -10.6470   0.5725   0.6416
     0.6416   0.7334   0.8746   0.8746   0.9129   0.9378   0.9675   0.9675
     1.1493   1.2221   1.2221   1.3260   1.3450   1.3450   1.4127   1.4127
     1.5884   1.6486   1.6487   1.7076   1.7375   1.7375   1.8478   1.8995
     1.8995   2.0476   2.0924   2.0924   2.3500   2.3985   2.3985   2.9383
     2.9383   3.5204   3.5204   3.8049   3.8360   3.8360   3.9106   4.6220
     4.8526   4.8526   5.0300   5.0300   5.4694   5.4903

     occupation numbers 
     1.0000   1.0000   1.0000   1.0000   1.0000   1.0000   1.0000   1.0000
     1.0000   1.0000   1.0000   1.0000   1.0000   1.0000   1.0000   1.0000
[...]
     1.0000   1.0000   1.0000   1.0000   1.0000   1.0000   1.0000   1.0000
     1.0000   1.0000   1.0000   1.0000   1.0000   1.0000   1.0000   1.0000
     1.0000   1.0000   1.0000   1.0000   1.0000   1.0000   1.0000   1.0000
     1.0000   1.0000   1.0000   1.0000   1.0000   1.0000   1.0000   1.0000
     1.0000   1.0000   1.0000   1.0000   1.0000   1.0000   1.0000   1.0000
     1.0000   1.0000   1.0000   1.0000   1.0000   1.0000   1.0000   1.0000
     1.0000   1.0000   1.0000   1.0000   1.0000   1.0000

          k =-0.1667-0.0321-0.0974 (  6262 PWs)   bands (ev):

   -11.2708 -10.9516 -10.8690 -10.8622 -10.7023 -10.6731   0.5856   0.5946
     0.6160   0.7107   0.7313   0.7494   0.7795   0.8155   0.9078   0.9327
     0.9529   0.9649   1.0139   1.1175   1.2059   1.2566   1.2661   1.2993
     1.6143   1.6258   1.6675   1.6974   1.7544   1.7750   1.8262   1.8534
     1.8672   1.8747   1.9958   2.0406   2.4808   2.5914   2.6821   3.1787
     3.4970   3.7282   3.7572   4.0167   4.3132   4.8038   4.9542   4.9996
     5.1654   5.1957   5.3132   5.3496   5.7271   5.9101

     occupation numbers 
     1.0000   1.0000   1.0000   1.0000   1.0000   1.0000   1.0000   1.0000
     1.0000   1.0000   1.0000   1.0000   1.0000   1.0000   1.0000   1.0000
     1.0000   1.0000   1.0000   1.0000   1.0000   1.0000   1.0000   1.0000
     1.0000   1.0000   1.0000   1.0000   1.0000   1.0000   1.0000   1.0000
     1.0000   1.0000   1.0000   1.0000   1.0000   1.0000   1.0000   1.0000
     1.0000   1.0000   1.0000   1.0000   1.0000   1.0000   1.0000   1.0000
     1.0000   1.0000   1.0000   1.0000   1.0000   1.0000

          k =-0.1667-0.0321-0.1948 (  6273 PWs)   bands (ev):

   -11.1868 -10.9509 -10.8984 -10.8264 -10.7543 -10.7132   0.5470   0.5625
     0.5799   0.6270   0.6309   0.6614   0.7842   0.8083   0.8750   0.8885
     0.9390   0.9705   0.9844   1.0779   1.1294   1.1532   1.1752   1.2076
     1.6989   1.7109   1.7122   1.7280   1.7818   1.8021   1.8023   1.8186
     1.8371   1.8679   1.9070   1.9543   2.7674   2.9818   3.0893   3.1071
     3.4098   4.1021   4.1495   4.2605   4.3746   4.4605   4.8075   5.0080
     5.0659   5.0879   5.1589   5.4390   5.5419   5.7879

     occupation numbers 
     1.0000   1.0000   1.0000   1.0000   1.0000   1.0000   1.0000   1.0000
     1.0000   1.0000   1.0000   1.0000   1.0000   1.0000   1.0000   1.0000
     1.0000   1.0000   1.0000   1.0000   1.0000   1.0000   1.0000   1.0000
     1.0000   1.0000   1.0000   1.0000   1.0000   1.0000   1.0000   1.0000
     1.0000   1.0000   1.0000   1.0000   1.0000   1.0000   1.0000   1.0000
     1.0000   1.0000   1.0000   1.0000   1.0000   1.0000   1.0000   1.0000
     1.0000   1.0000   1.0000   1.0000   1.0000   1.0000

          k =-0.3333 0.2566-0.0974 (  6264 PWs)   bands (ev):

   -11.0043 -10.9134 -10.7249 -10.7073 -10.6888 -10.6579   0.4812   0.4888
     0.6994   0.7125   0.7178   0.8908   0.9252   1.0038   1.0540   1.0875
     1.1440   1.1613   1.1982   1.2218   1.2515   1.3052   1.4362   1.4969
     1.6190   1.6486   1.6604   1.7242   1.7416   1.7742   1.8426   1.8547
     1.9170   1.9618   1.9915   1.9968   2.4798   2.6015   2.6542   2.7162
     3.0254   3.0640   3.4075   3.7851   3.9960   4.2306   4.4006   4.4936
     4.6778   4.6960   5.1965   5.3514   5.3575   5.4853

     occupation numbers 
     1.0000   1.0000   1.0000   1.0000   1.0000   1.0000   1.0000   1.0000
     1.0000   1.0000   1.0000   1.0000   1.0000   1.0000   1.0000   1.0000
     1.0000   1.0000   1.0000   1.0000   1.0000   1.0000   1.0000   1.0000
     1.0000   1.0000   1.0000   1.0000   1.0000   1.0000   1.0000   1.0000
     1.0000   1.0000   1.0000   1.0000   1.0000   1.0000   1.0000   1.0000
     1.0000   1.0000   1.0000   1.0000   1.0000   1.0000   1.0000   1.0000
     1.0000   1.0000   1.0000   1.0000   1.0000   1.0000

          k =-0.3333 0.2566-0.1948 (  6277 PWs)   bands (ev):

   -10.9451 -10.8650 -10.7838 -10.7353 -10.6947 -10.6662   0.4610   0.4643
     0.5853   0.5890   0.7533   0.8924   0.9326   0.9624   0.9765   1.0304
     1.0822   1.0922   1.1251   1.1265   1.1627   1.2014   1.4034   1.4278
     1.6919   1.6958   1.7187   1.7264   1.7631   1.7913   1.8203   1.8366
     1.8745   1.9027   2.0085   2.0904   2.4556   2.6122   2.7816   3.0180
     3.1009   3.3253   3.4541   4.0738   4.1333   4.1810   4.6084   4.6782
     4.8345   4.8578   5.0604   5.1463   5.1851   5.3249

     occupation numbers 
     1.0000   1.0000   1.0000   1.0000   1.0000   1.0000   1.0000   1.0000
     1.0000   1.0000   1.0000   1.0000   1.0000   1.0000   1.0000   1.0000
     1.0000   1.0000   1.0000   1.0000   1.0000   1.0000   1.0000   1.0000
     1.0000   1.0000   1.0000   1.0000   1.0000   1.0000   1.0000   1.0000
     1.0000   1.0000   1.0000   1.0000   1.0000   1.0000   1.0000   1.0000
     1.0000   1.0000   1.0000   1.0000   1.0000   1.0000   1.0000   1.0000
     1.0000   1.0000   1.0000   1.0000   1.0000   1.0000

          k =-0.3333 0.3208-0.0974 (  6275 PWs)   bands (ev):

   -11.0302 -10.8573 -10.7498 -10.7363 -10.6706 -10.6521   0.5239   0.5526
     0.6806   0.7220   0.7484   0.8767   0.9208   0.9341   0.9818   1.0299
     1.1341   1.1924   1.2031   1.2195   1.2729   1.3153   1.3459   1.4110
     1.6182   1.6602   1.6662   1.7310   1.7553   1.7850   1.8401   1.8722
     1.9203   1.9603   2.0307   2.0636   2.4112   2.5143   2.6544   2.8317
     2.9967   3.3231   3.6541   3.7297   4.0189   4.0511   4.2032   4.5730
     4.6599   4.8638   5.0558   5.1810   5.4067   5.4490

     occupation numbers 
     1.0000   1.0000   1.0000   1.0000   1.0000   1.0000   1.0000   1.0000
     1.0000   1.0000   1.0000   1.0000   1.0000   1.0000   1.0000   1.0000
     1.0000   1.0000   1.0000   1.0000   1.0000   1.0000   1.0000   1.0000
     1.0000   1.0000   1.0000   1.0000   1.0000   1.0000   1.0000   1.0000
     1.0000   1.0000   1.0000   1.0000   1.0000   1.0000   1.0000   1.0000
     1.0000   1.0000   1.0000   1.0000   1.0000   1.0000   1.0000   1.0000
     1.0000   1.0000   1.0000   1.0000   1.0000   1.0000

          k =-0.3333 0.3208-0.1948 (  6275 PWs)   bands (ev):

   -10.9682 -10.8166 -10.7985 -10.7272 -10.7087 -10.6707   0.4973   0.5216
     0.6081   0.6268   0.6899   0.7990   0.9007   0.9591   0.9770   0.9821
     1.0855   1.0987   1.1256   1.1522   1.1979   1.2331   1.3051   1.3403
     1.6944   1.7246   1.7291   1.7573   1.7751   1.8067   1.8179   1.8636
     1.8740   1.9462   1.9583   2.0695   2.4602   2.6484   2.7152   2.9560
     3.0833   3.5984   3.6254   4.1296   4.2272   4.2417   4.4267   4.5302
     4.7950   4.9031   4.9323   5.0789   5.1884   5.2827

     occupation numbers 
     1.0000   1.0000   1.0000   1.0000   1.0000   1.0000   1.0000   1.0000
     1.0000   1.0000   1.0000   1.0000   1.0000   1.0000   1.0000   1.0000
     1.0000   1.0000   1.0000   1.0000   1.0000   1.0000   1.0000   1.0000
     1.0000   1.0000   1.0000   1.0000   1.0000   1.0000   1.0000   1.0000
     1.0000   1.0000   1.0000   1.0000   1.0000   1.0000   1.0000   1.0000
     1.0000   1.0000   1.0000   1.0000   1.0000   1.0000   1.0000   1.0000
     1.0000   1.0000   1.0000   1.0000   1.0000   1.0000

          k = 0.5000-0.2245-0.0974 (  6276 PWs)   bands (ev):

   -10.8028 -10.7986 -10.7964 -10.6590 -10.6581 -10.6567   0.5442   0.5770
     0.6860   0.7046   0.7696   0.8115   0.9474   0.9572   1.0255   1.1341
     1.2827   1.3020   1.3051   1.3081   1.3186   1.3314   1.3464   1.3797
     1.6287   1.7170   1.7590   1.7714   1.7937   1.8184   1.8836   1.8946
     1.9010   1.9731   2.0249   2.0934   2.3516   2.3758   2.4817   2.6753
     2.7872   3.0428   3.5801   3.7044   3.7407   3.8400   4.1457   4.2833
     4.7502   4.8905   4.9199   5.0098   5.0952   5.1954

     occupation numbers 
     1.0000   1.0000   1.0000   1.0000   1.0000   1.0000   1.0000   1.0000
     1.0000   1.0000   1.0000   1.0000   1.0000   1.0000   1.0000   1.0000
     1.0000   1.0000   1.0000   1.0000   1.0000   1.0000   1.0000   1.0000
     1.0000   1.0000   1.0000   1.0000   1.0000   1.0000   1.0000   1.0000
     1.0000   1.0000   1.0000   1.0000   1.0000   1.0000   1.0000   1.0000
     1.0000   1.0000   1.0000   1.0000   1.0000   1.0000   1.0000   1.0000
     1.0000   1.0000   1.0000   1.0000   1.0000   1.0000

          k = 0.5000-0.2245-0.1948 (  6264 PWs)   bands (ev):

   -10.7703 -10.7672 -10.7656 -10.6862 -10.6860 -10.6858   0.5014   0.5425
     0.5796   0.6373   0.6733   0.7213   0.9985   1.0049   1.0177   1.0754
     1.2049   1.2190   1.2342   1.2498   1.2699   1.2916   1.2924   1.3232
     1.7156   1.7686   1.7993   1.8120   1.8137   1.8275   1.8855   1.9009
     1.9110   1.9541   1.9837   2.0232   2.3702   2.4336   2.5668   2.6206
     2.6869   2.9329   3.8039   4.0971   4.2041   4.2165   4.4233   4.5029
     4.5866   4.7801   4.9007   5.0138   5.0154   5.0352

     occupation numbers 
     1.0000   1.0000   1.0000   1.0000   1.0000   1.0000   1.0000   1.0000
     1.0000   1.0000   1.0000   1.0000   1.0000   1.0000   1.0000   1.0000
     1.0000   1.0000   1.0000   1.0000   1.0000   1.0000   1.0000   1.0000
     1.0000   1.0000   1.0000   1.0000   1.0000   1.0000   1.0000   1.0000
     1.0000   1.0000   1.0000   1.0000   1.0000   1.0000   1.0000   1.0000
     1.0000   1.0000   1.0000   1.0000   1.0000   1.0000   1.0000   1.0000
     1.0000   1.0000   1.0000   1.0000   1.0000   1.0000

     highest occupied level (ev):     6.1180

!    total energy              =   -1084.88859172 Ry
     estimated scf accuracy    <          1.5E-09 Ry

     The total energy is the sum of the following terms:
     one-electron contribution =    -484.00635000 Ry
     hartree contribution      =     362.20663711 Ry
     xc contribution           =    -328.29823955 Ry
     ewald contribution        =    -634.79063929 Ry

     convergence has been achieved in  25 iterations

     Forces acting on atoms (cartesian axes, Ry/au):

     atom    1 type  1   force =     0.00000000   -0.00000985    0.00823106
     atom    2 type  1   force =     0.00000000    0.00000223    0.00821027
     atom    3 type  2   force =     0.00000000    0.00000343   -0.00822039
     atom    4 type  2   force =     0.00000000   -0.00000648   -0.00821815
     atom    5 type  1   force =     0.00000000    0.00001451    0.00822289
     atom    6 type  1   force =     0.00000000    0.00000497    0.00821468
     atom    7 type  2   force =     0.00000000    0.00000491   -0.00821832
     atom    8 type  2   force =     0.00000000   -0.00000707   -0.00822024
     atom    9 type  1   force =     0.00000000    0.00000107    0.00822555
     atom   10 type  1   force =     0.00000000   -0.00000565    0.00820935
     atom   11 type  2   force =     0.00000000    0.00000437   -0.00821962
     atom   12 type  2   force =     0.00000000   -0.00000644   -0.00821710
     The non-local contrib.  to forces
     atom    1 type  1   force =     0.00000000    0.00000166    0.15275713
     atom    2 type  1   force =     0.00000000   -0.00000396    0.15274589
     atom    3 type  2   force =     0.00000000    0.00024406    0.15226928
     atom    4 type  2   force =     0.00000000   -0.00024382    0.15226326
     atom    5 type  1   force =     0.00000000    0.00001188    0.15275469
     atom    6 type  1   force =     0.00000000   -0.00000201    0.15274719
     atom    7 type  2   force =     0.00000000    0.00024011    0.15227010
     atom    8 type  2   force =     0.00000000   -0.00024427    0.15226248
     atom    9 type  1   force =     0.00000000    0.00000067    0.15275291
     atom   10 type  1   force =     0.00000000   -0.00000612    0.15274842
     atom   11 type  2   force =     0.00000000    0.00024493    0.15226931
     atom   12 type  2   force =     0.00000000   -0.00023898    0.15226578
     The ionic contribution  to forces
     atom    1 type  1   force =    -0.00000000    0.00000001    1.21906034
     atom    2 type  1   force =     0.00000000    0.00000001    1.21906034
     atom    3 type  2   force =    -0.00000000    0.00000000   -1.21906034
     atom    4 type  2   force =     0.00000000    0.00000000   -1.21906034
     atom    5 type  1   force =    -0.00000001    0.00000001    1.21906033
     atom    6 type  1   force =     0.00000001   -0.00000001    1.21906033
     atom    7 type  2   force =    -0.00000001    0.00000000   -1.21906033
     atom    8 type  2   force =     0.00000001   -0.00000000   -1.21906033
     atom    9 type  1   force =    -0.00000000   -0.00000001    1.21906034
     atom   10 type  1   force =     0.00000000   -0.00000001    1.21906034
     atom   11 type  2   force =    -0.00000000   -0.00000000   -1.21906034
     atom   12 type  2   force =     0.00000000   -0.00000000   -1.21906034
     The local contribution  to forces
     atom    1 type  1   force =    -0.00000004   -0.00000649   -1.35321362
     atom    2 type  1   force =     0.00000000    0.00001244   -1.35319306
     atom    3 type  2   force =    -0.00000001   -0.00023720    1.05989090
     atom    4 type  2   force =     0.00000000    0.00024041    1.05987180
     atom    5 type  1   force =    -0.00000009   -0.00003788   -1.35320716
     atom    6 type  1   force =     0.00000009    0.00001259   -1.35319822
     atom    7 type  2   force =    -0.00000002   -0.00024882    1.05988373
     atom    8 type  2   force =     0.00000002    0.00022806    1.05988030
     atom    9 type  1   force =     0.00000000   -0.00001009   -1.35320359
     atom   10 type  1   force =     0.00000004    0.00002480   -1.35319773
     atom   11 type  2   force =     0.00000000   -0.00023368    1.05989126
     atom   12 type  2   force =     0.00000001    0.00024258    1.05986637
     The core correction contribution to forces
     atom    1 type  1   force =    -0.00000001    0.00000945   -0.01040004
     atom    2 type  1   force =    -0.00000000   -0.00000944   -0.01039972
     atom    3 type  2   force =     0.00000000   -0.00000279   -0.00127891
     atom    4 type  2   force =     0.00000000    0.00000278   -0.00127888
     atom    5 type  1   force =    -0.00000001    0.00000988   -0.01039996
     atom    6 type  1   force =     0.00000001   -0.00000984   -0.01039950
     atom    7 type  2   force =     0.00000000   -0.00000276   -0.00127894
     atom    8 type  2   force =    -0.00000000    0.00000276   -0.00127883
     atom    9 type  1   force =     0.00000000    0.00000948   -0.01040016
     atom   10 type  1   force =     0.00000001   -0.00000972   -0.01039953
     atom   11 type  2   force =    -0.00000000   -0.00000278   -0.00127890
     atom   12 type  2   force =    -0.00000000    0.00000272   -0.00127892
     The Hubbard contrib.    to forces
     atom    1 type  1   force =     0.00000000    0.00000000    0.00000000
     atom    2 type  1   force =     0.00000000    0.00000000    0.00000000
     atom    3 type  2   force =     0.00000000    0.00000000    0.00000000
     atom    4 type  2   force =     0.00000000    0.00000000    0.00000000
     atom    5 type  1   force =     0.00000000    0.00000000    0.00000000
     atom    6 type  1   force =     0.00000000    0.00000000    0.00000000
     atom    7 type  2   force =     0.00000000    0.00000000    0.00000000
     atom    8 type  2   force =     0.00000000    0.00000000    0.00000000
     atom    9 type  1   force =     0.00000000    0.00000000    0.00000000
     atom   10 type  1   force =     0.00000000    0.00000000    0.00000000
     atom   11 type  2   force =     0.00000000    0.00000000    0.00000000
     atom   12 type  2   force =     0.00000000    0.00000000    0.00000000
     The SCF correction term to forces
     atom    1 type  1   force =     0.00000000   -0.00001319    0.00003196
     atom    2 type  1   force =    -0.00000000    0.00000448    0.00000153
     atom    3 type  2   force =     0.00000000    0.00000065   -0.00003661
     atom    4 type  2   force =    -0.00000000   -0.00000456   -0.00000929
     atom    5 type  1   force =     0.00000000    0.00003191    0.00001971
     atom    6 type  1   force =    -0.00000000    0.00000553    0.00000959
     atom    7 type  2   force =     0.00000000    0.00001766   -0.00002817
     atom    8 type  2   force =    -0.00000000    0.00000768   -0.00001914
     atom    9 type  1   force =     0.00000000    0.00000232    0.00002077
     atom   10 type  1   force =    -0.00000000   -0.00001330    0.00000256
     atom   11 type  2   force =     0.00000000   -0.00000280   -0.00003624
     atom   12 type  2   force =    -0.00000000   -0.00001146   -0.00000529

     Total force =     0.028471     Total SCF correction =     0.000088

     init_run     :     11.78s CPU     13.31s WALL (       1 calls)
     electrons    :    494.99s CPU    553.77s WALL (       1 calls)
     forces       :      5.07s CPU      5.63s WALL (       1 calls)

     Called by init_run:
     wfcinit      :      4.90s CPU      5.37s WALL (       1 calls)
     wfcinit:atom :      0.04s CPU      0.04s WALL (       4 calls)
     wfcinit:wfcr :      4.53s CPU      4.98s WALL (       4 calls)
     potinit      :      1.85s CPU      2.14s WALL (       1 calls)
     hinit0       :      4.70s CPU      5.39s WALL (       1 calls)

     Called by electrons:
     c_bands      :    427.07s CPU    476.72s WALL (      25 calls)
     sum_band     :     46.09s CPU     52.37s WALL (      25 calls)
     v_of_rho     :     12.68s CPU     14.48s WALL (      26 calls)
     v_h          :      0.75s CPU      0.99s WALL (      26 calls)
     v_xc         :     12.35s CPU     13.94s WALL (      27 calls)
     newd         :      6.19s CPU      6.81s WALL (      26 calls)
     mix_rho      :      1.96s CPU      2.23s WALL (      25 calls)

     Called by c_bands:
     init_us_2    :      2.97s CPU      3.43s WALL (     208 calls)
     init_us_2:cp :      2.97s CPU      3.43s WALL (     208 calls)
     cegterg      :    380.87s CPU    425.41s WALL (     100 calls)

     Called by sum_band:
     sum_band:wei :      0.04s CPU      0.04s WALL (      25 calls)
     sum_band:loo :     37.32s CPU     42.34s WALL (      25 calls)
     sum_band:buf :      0.38s CPU      0.43s WALL (     100 calls)
     sum_band:ini :      1.36s CPU      1.52s WALL (     100 calls)
     sum_band:cal :      7.57s CPU      8.48s WALL (     100 calls)
     sum_band:bec :      0.03s CPU      0.03s WALL (     100 calls)
     addusdens    :      4.82s CPU      5.42s WALL (      25 calls)
     addusd:skk   :      0.04s CPU      0.04s WALL (      50 calls)
     addusd:dgemm :      0.79s CPU      0.86s WALL (      50 calls)
     addusd:qvan2 :      2.65s CPU      2.93s WALL (      50 calls)

     Called by *egterg:
     cdiaghg      :      8.53s CPU      9.53s WALL (     789 calls)
     cegterg:over :     33.40s CPU     37.36s WALL (     689 calls)
     cegterg:upda :     17.29s CPU     19.43s WALL (     689 calls)
     cegterg:last :     39.86s CPU     44.23s WALL (     363 calls)
     h_psi        :    249.66s CPU    279.18s WALL (     793 calls)
     s_psi        :     26.56s CPU     29.35s WALL (     793 calls)
     g_psi        :      1.28s CPU      1.44s WALL (     689 calls)

     Called by h_psi:
     h_psi:calbec :     31.98s CPU     35.76s WALL (     793 calls)
     vloc_psi     :    188.80s CPU    211.29s WALL (     793 calls)
     add_vuspsi   :     27.67s CPU     30.76s WALL (     793 calls)

     General routines
     calbec       :     40.73s CPU     45.58s WALL (     909 calls)
     fft          :      7.27s CPU      8.31s WALL (     347 calls)
     ffts         :      0.73s CPU      0.78s WALL (      51 calls)
     fftw         :    183.58s CPU    206.51s WALL (   46082 calls)
     interpolate  :      1.20s CPU      1.39s WALL (      26 calls)

     Parallel routines

     PWSCF        :   8m32.92s CPU   9m33.95s WALL


   This run was terminated on:  20:17:40  27Aug2025            

=------------------------------------------------------------------------------=
   JOB DONE.
=------------------------------------------------------------------------------=
