
     Program PWSCF v.7.0 starts on 27Aug2025 at 14:28:28 

     This program is part of the open-source Quantum ESPRESSO suite
     for quantum simulation of materials; please cite
         "P. Giannozzi et al., J. Phys.:Condens. Matter 21 395502 (2009);
         "P. Giannozzi et al., J. Phys.:Condens. Matter 29 465901 (2017);
         "P. Giannozzi et al., J. Chem. Phys. 152 154105 (2020);
          URL http://www.quantum-espresso.org", 
     in publications or presentations arising from this work. More details at
     http://www.quantum-espresso.org/quote

     Parallel version (MPI & OpenMP), running on      17 processor cores
     Number of MPI processes:                17
     Threads/MPI process:                     1

     MPI processes distributed on     1 nodes
     K-points division:     npool     =      17
     103939 MiB available memory on the printing compute node when the environment starts

     Reading input from /home/jvc/QEspresso7.2/ZnO_database/scripts/cell131.in/ZnO-3.07-1.55-131.in
Warning: card &CELL ignored
Warning: card / ignored
Warning: card &FCP ignored
Warning: card / ignored
Warning: card &RISM ignored
Warning: card / ignored

     Current dimensions of program PWSCF are:
     Max number of different atomic species (ntypx) = 10
     Max number of k-points (npk) =  40000
     Max angular momentum in pseudopotentials (lmaxx) =  4
     file Zn.upf: wavefunction(s)  3D renormalized
     Found identity + (  0.0000  0.3333  0.0000) symmetry
     This is a supercell, fractional translations are disabled
     Message from routine setup:
     using ibrav=0 with symmetry is DISCOURAGED, use correct ibrav instead

     Subspace diagonalization in iterative solution of the eigenvalue problem:
     a serial algorithm will be used


     G-vector sticks info
     --------------------
     sticks:   dense  smooth     PW     G-vecs:    dense   smooth      PW
     Sum        2791    1395    423               106695    37535    6309

     Using Slab Decomposition



     bravais-lattice index     =            0
     lattice parameter (alat)  =       5.8081  a.u.
     unit-cell volume          =     788.9154 (a.u.)^3
     number of atoms/cell      =           12
     number of atomic types    =            2
     number of electrons       =       108.00
     number of Kohn-Sham states=           54
     kinetic-energy cutoff     =      50.0000  Ry
     charge density cutoff     =     400.0000  Ry
     scf convergence threshold =      1.0E-08
     mixing beta               =       0.3000
     number of iterations used =            8  plain     mixing
     Exchange-correlation= PBE
                           (   1   4   3   4   0   0   0)

     celldm(1)=   5.808123  celldm(2)=   0.000000  celldm(3)=   0.000000
     celldm(4)=   0.000000  celldm(5)=   0.000000  celldm(6)=   0.000000

     crystal axes: (cart. coord. in units of alat)
               a(1) = (   1.000000   0.000000   0.000000 )  
               a(2) = (  -1.500000   2.598076   0.000000 )  
               a(3) = (   0.000000   0.000000   1.549784 )  

     reciprocal axes: (cart. coord. in units 2 pi/alat)
               b(1) = (  1.000000  0.577350 -0.000000 )  
               b(2) = (  0.000000  0.384900  0.000000 )  
               b(3) = (  0.000000 -0.000000  0.645251 )  


     PseudoPot. # 1 for Zn read from file:
     /home/jvc/QEspresso7.2/ZnO_database/pseudos/Zn.upf
     MD5 check sum: 7f56cabf9682ed8c977c2f7d0c5985c5
     Pseudo is Ultrasoft + core correction, Zval = 12.0
     Generated using &quot;atomic&quot; code by A. Dal Corso  v.6.2.2
     Using radial grid of 1201 points,  6 beta functions with: 
                l(1) =   0
                l(2) =   0
                l(3) =   1
                l(4) =   1
                l(5) =   2
                l(6) =   2
     Q(r) pseudized with 0 coefficients 


     PseudoPot. # 2 for O  read from file:
     /home/jvc/QEspresso7.2/ZnO_database/pseudos/O.upf
     MD5 check sum: 91400c9766925bcf19f520983a725ff0
     Pseudo is Ultrasoft + core correction, Zval =  6.0
     Generated using &quot;atomic&quot; code by A. Dal Corso  v.6.3MaX
     Using radial grid of 1095 points,  4 beta functions with: 
                l(1) =   0
                l(2) =   0
                l(3) =   1
                l(4) =   1
     Q(r) pseudized with 0 coefficients 


     atomic species   valence    mass     pseudopotential
        Zn            12.00    65.38000     Zn( 1.00)
        O              6.00    15.99900     O ( 1.00)

      2 Sym. Ops. (no inversion) found


                                    s                        frac. trans.

      isym =  1     identity                                     

 cryst.   s( 1) = (     1          0          0      )
                  (     0          1          0      )
                  (     0          0          1      )

 cart.    s( 1) = (  1.0000000  0.0000000  0.0000000 )
                  (  0.0000000  1.0000000  0.0000000 )
                  (  0.0000000  0.0000000  1.0000000 )


      isym =  2     inv. 180 deg rotation - cart. axis [1,0,0]   

 cryst.   s( 2) = (    -1          0          0      )
                  (     3          1          0      )
                  (     0          0          1      )

 cart.    s( 2) = ( -1.0000000  0.0000000  0.0000000 )
                  (  0.0000000  1.0000000  0.0000000 )
                  (  0.0000000  0.0000000  1.0000000 )


   Cartesian axes

     site n.     atom                  positions (alat units)
         1           Zn  tau(   1) = (   0.5000000   0.2886751   0.7758739  )
         2           Zn  tau(   2) = (   0.0000000   0.5773503   0.0009819  )
         3           O   tau(   3) = (   0.5000000   0.2886751   1.3633085  )
         4           O   tau(   4) = (   0.0000000   0.5773503   0.5884164  )
         5           Zn  tau(   5) = (   0.0000000   1.1547005   0.7758739  )
         6           Zn  tau(   6) = (  -0.5000000   1.4433757   0.0009819  )
         7           O   tau(   7) = (   0.0000000   1.1547005   1.3633085  )
         8           O   tau(   8) = (  -0.5000000   1.4433757   0.5884164  )
         9           Zn  tau(   9) = (  -0.5000000   2.0207259   0.7758739  )
        10           Zn  tau(  10) = (  -1.0000000   2.3094011   0.0009819  )
        11           O   tau(  11) = (  -0.5000000   2.0207259   1.3633085  )
        12           O   tau(  12) = (  -1.0000000   2.3094011   0.5884164  )

   Crystallographic axes

     site n.     atom                  positions (cryst. coord.)
         1           Zn  tau(   1) = (  0.6666667  0.1111111  0.5006336  )
         2           Zn  tau(   2) = (  0.3333333  0.2222222  0.0006336  )
         3           O   tau(   3) = (  0.6666667  0.1111111  0.8796764  )
         4           O   tau(   4) = (  0.3333333  0.2222222  0.3796764  )
         5           Zn  tau(   5) = (  0.6666667  0.4444444  0.5006336  )
         6           Zn  tau(   6) = (  0.3333333  0.5555556  0.0006336  )
         7           O   tau(   7) = (  0.6666667  0.4444444  0.8796764  )
         8           O   tau(   8) = (  0.3333333  0.5555556  0.3796764  )
         9           Zn  tau(   9) = (  0.6666667  0.7777778  0.5006336  )
        10           Zn  tau(  10) = (  0.3333333  0.8888889  0.0006336  )
        11           O   tau(  11) = (  0.6666667  0.7777778  0.8796764  )
        12           O   tau(  12) = (  0.3333333  0.8888889  0.3796764  )

     number of k points=    68
                       cart. coord. in units 2pi/alat
        k(    1) = (   0.0000000   0.0000000   0.0000000), wk =   0.0092593
        k(    2) = (   0.0000000   0.0000000   0.1075419), wk =   0.0185185
        k(    3) = (   0.0000000   0.0000000   0.2150837), wk =   0.0185185
        k(    4) = (   0.0000000   0.0000000  -0.3226256), wk =   0.0092593
        k(    5) = (   0.0000000   0.0641500   0.0000000), wk =   0.0185185
        k(    6) = (   0.0000000   0.0641500   0.1075419), wk =   0.0185185
        k(    7) = (   0.0000000   0.0641500   0.2150837), wk =   0.0185185
        k(    8) = (   0.0000000   0.0641500  -0.3226256), wk =   0.0185185
        k(    9) = (   0.0000000   0.1283001   0.0000000), wk =   0.0185185
        k(   10) = (   0.0000000   0.1283001   0.1075419), wk =   0.0185185
        k(   11) = (   0.0000000   0.1283001   0.2150837), wk =   0.0185185
        k(   12) = (   0.0000000   0.1283001  -0.3226256), wk =   0.0185185
        k(   13) = (   0.0000000  -0.1924501   0.0000000), wk =   0.0092593
        k(   14) = (   0.0000000  -0.1924501   0.1075419), wk =   0.0185185
        k(   15) = (   0.0000000  -0.1924501   0.2150837), wk =   0.0185185
        k(   16) = (   0.0000000  -0.1924501  -0.3226256), wk =   0.0092593
        k(   17) = (   0.1666667   0.0962250   0.0000000), wk =   0.0370370
        k(   18) = (   0.1666667   0.0962250   0.1075419), wk =   0.0370370
        k(   19) = (   0.1666667   0.0962250   0.2150837), wk =   0.0370370
        k(   20) = (   0.1666667   0.0962250  -0.3226256), wk =   0.0370370
        k(   21) = (   0.1666667   0.1603751   0.0000000), wk =   0.0370370
        k(   22) = (   0.1666667   0.1603751   0.1075419), wk =   0.0370370
        k(   23) = (   0.1666667   0.1603751   0.2150837), wk =   0.0370370
        k(   24) = (   0.1666667   0.1603751  -0.3226256), wk =   0.0370370
        k(   25) = (   0.1666667  -0.0320750   0.0000000), wk =   0.0370370
        k(   26) = (   0.1666667  -0.0320750   0.1075419), wk =   0.0370370
        k(   27) = (   0.1666667  -0.0320750   0.2150837), wk =   0.0370370
        k(   28) = (   0.1666667  -0.0320750  -0.3226256), wk =   0.0370370
        k(   29) = (   0.3333333   0.1924501   0.0000000), wk =   0.0185185
        k(   30) = (   0.3333333   0.1924501   0.1075419), wk =   0.0370370
        k(   31) = (   0.3333333   0.1924501   0.2150837), wk =   0.0370370
        k(   32) = (   0.3333333   0.1924501  -0.3226256), wk =   0.0185185
        k(   33) = (   0.3333333   0.2566001   0.0000000), wk =   0.0370370
        k(   34) = (   0.3333333   0.2566001   0.1075419), wk =   0.0370370
        k(   35) = (   0.3333333   0.2566001   0.2150837), wk =   0.0370370
        k(   36) = (   0.3333333   0.2566001  -0.3226256), wk =   0.0370370
        k(   37) = (   0.3333333   0.3207501   0.0000000), wk =   0.0370370
        k(   38) = (   0.3333333   0.3207501   0.1075419), wk =   0.0370370
        k(   39) = (   0.3333333   0.3207501   0.2150837), wk =   0.0370370
        k(   40) = (   0.3333333   0.3207501  -0.3226256), wk =   0.0370370
        k(   41) = (   0.3333333  -0.0000000   0.0000000), wk =   0.0185185
        k(   42) = (   0.3333333  -0.0000000   0.1075419), wk =   0.0370370
        k(   43) = (   0.3333333  -0.0000000   0.2150837), wk =   0.0370370
        k(   44) = (   0.3333333  -0.0000000  -0.3226256), wk =   0.0185185
        k(   45) = (  -0.5000000  -0.2886751   0.0000000), wk =   0.0185185
        k(   46) = (  -0.5000000  -0.2886751   0.1075419), wk =   0.0370370
        k(   47) = (  -0.5000000  -0.2886751   0.2150837), wk =   0.0370370
        k(   48) = (  -0.5000000  -0.2886751  -0.3226256), wk =   0.0185185
        k(   49) = (  -0.5000000  -0.2245251   0.0000000), wk =   0.0370370
        k(   50) = (  -0.5000000  -0.2245251   0.1075419), wk =   0.0370370
        k(   51) = (  -0.5000000  -0.2245251   0.2150837), wk =   0.0370370
        k(   52) = (  -0.5000000  -0.2245251  -0.3226256), wk =   0.0370370
        k(   53) = (   0.0000000   0.0641500  -0.1075419), wk =   0.0185185
        k(   54) = (   0.0000000   0.0641500  -0.2150837), wk =   0.0185185
        k(   55) = (   0.0000000   0.1283001  -0.1075419), wk =   0.0185185
        k(   56) = (   0.0000000   0.1283001  -0.2150837), wk =   0.0185185
        k(   57) = (  -0.1666667   0.0962250  -0.1075419), wk =   0.0370370
        k(   58) = (  -0.1666667   0.0962250  -0.2150837), wk =   0.0370370
        k(   59) = (  -0.1666667   0.1603751  -0.1075419), wk =   0.0370370
        k(   60) = (  -0.1666667   0.1603751  -0.2150837), wk =   0.0370370
        k(   61) = (  -0.1666667  -0.0320750  -0.1075419), wk =   0.0370370
        k(   62) = (  -0.1666667  -0.0320750  -0.2150837), wk =   0.0370370
        k(   63) = (  -0.3333333   0.2566001  -0.1075419), wk =   0.0370370
        k(   64) = (  -0.3333333   0.2566001  -0.2150837), wk =   0.0370370
        k(   65) = (  -0.3333333   0.3207501  -0.1075419), wk =   0.0370370
        k(   66) = (  -0.3333333   0.3207501  -0.2150837), wk =   0.0370370
        k(   67) = (   0.5000000  -0.2245251  -0.1075419), wk =   0.0370370
        k(   68) = (   0.5000000  -0.2245251  -0.2150837), wk =   0.0370370

                       cryst. coord.
        k(    1) = (   0.0000000   0.0000000   0.0000000), wk =   0.0092593
        k(    2) = (   0.0000000   0.0000000   0.1666667), wk =   0.0185185
        k(    3) = (   0.0000000   0.0000000   0.3333333), wk =   0.0185185
        k(    4) = (   0.0000000   0.0000000  -0.5000000), wk =   0.0092593
        k(    5) = (   0.0000000   0.1666667   0.0000000), wk =   0.0185185
        k(    6) = (   0.0000000   0.1666667   0.1666667), wk =   0.0185185
        k(    7) = (   0.0000000   0.1666667   0.3333333), wk =   0.0185185
        k(    8) = (   0.0000000   0.1666667  -0.5000000), wk =   0.0185185
        k(    9) = (   0.0000000   0.3333333   0.0000000), wk =   0.0185185
        k(   10) = (   0.0000000   0.3333333   0.1666667), wk =   0.0185185
        k(   11) = (   0.0000000   0.3333333   0.3333333), wk =   0.0185185
        k(   12) = (   0.0000000   0.3333333  -0.5000000), wk =   0.0185185
        k(   13) = (   0.0000000  -0.5000000   0.0000000), wk =   0.0092593
        k(   14) = (   0.0000000  -0.5000000   0.1666667), wk =   0.0185185
        k(   15) = (   0.0000000  -0.5000000   0.3333333), wk =   0.0185185
        k(   16) = (   0.0000000  -0.5000000  -0.5000000), wk =   0.0092593
        k(   17) = (   0.1666667   0.0000000   0.0000000), wk =   0.0370370
        k(   18) = (   0.1666667   0.0000000   0.1666667), wk =   0.0370370
        k(   19) = (   0.1666667   0.0000000   0.3333333), wk =   0.0370370
        k(   20) = (   0.1666667   0.0000000  -0.5000000), wk =   0.0370370
        k(   21) = (   0.1666667   0.1666667   0.0000000), wk =   0.0370370
        k(   22) = (   0.1666667   0.1666667   0.1666667), wk =   0.0370370
        k(   23) = (   0.1666667   0.1666667   0.3333333), wk =   0.0370370
        k(   24) = (   0.1666667   0.1666667  -0.5000000), wk =   0.0370370
        k(   25) = (   0.1666667  -0.3333333   0.0000000), wk =   0.0370370
        k(   26) = (   0.1666667  -0.3333333   0.1666667), wk =   0.0370370
        k(   27) = (   0.1666667  -0.3333333   0.3333333), wk =   0.0370370
        k(   28) = (   0.1666667  -0.3333333  -0.5000000), wk =   0.0370370
        k(   29) = (   0.3333333   0.0000000   0.0000000), wk =   0.0185185
        k(   30) = (   0.3333333   0.0000000   0.1666667), wk =   0.0370370
        k(   31) = (   0.3333333   0.0000000   0.3333333), wk =   0.0370370
        k(   32) = (   0.3333333   0.0000000  -0.5000000), wk =   0.0185185
        k(   33) = (   0.3333333   0.1666667   0.0000000), wk =   0.0370370
        k(   34) = (   0.3333333   0.1666667   0.1666667), wk =   0.0370370
        k(   35) = (   0.3333333   0.1666667   0.3333333), wk =   0.0370370
        k(   36) = (   0.3333333   0.1666667  -0.5000000), wk =   0.0370370
        k(   37) = (   0.3333333   0.3333333   0.0000000), wk =   0.0370370
        k(   38) = (   0.3333333   0.3333333   0.1666667), wk =   0.0370370
        k(   39) = (   0.3333333   0.3333333   0.3333333), wk =   0.0370370
        k(   40) = (   0.3333333   0.3333333  -0.5000000), wk =   0.0370370
        k(   41) = (   0.3333333  -0.5000000   0.0000000), wk =   0.0185185
        k(   42) = (   0.3333333  -0.5000000   0.1666667), wk =   0.0370370
        k(   43) = (   0.3333333  -0.5000000   0.3333333), wk =   0.0370370
        k(   44) = (   0.3333333  -0.5000000  -0.5000000), wk =   0.0185185
        k(   45) = (  -0.5000000   0.0000000   0.0000000), wk =   0.0185185
        k(   46) = (  -0.5000000   0.0000000   0.1666667), wk =   0.0370370
        k(   47) = (  -0.5000000   0.0000000   0.3333333), wk =   0.0370370
        k(   48) = (  -0.5000000   0.0000000  -0.5000000), wk =   0.0185185
        k(   49) = (  -0.5000000   0.1666667   0.0000000), wk =   0.0370370
        k(   50) = (  -0.5000000   0.1666667   0.1666667), wk =   0.0370370
        k(   51) = (  -0.5000000   0.1666667   0.3333333), wk =   0.0370370
        k(   52) = (  -0.5000000   0.1666667  -0.5000000), wk =   0.0370370
        k(   53) = (   0.0000000   0.1666667  -0.1666667), wk =   0.0185185
        k(   54) = (   0.0000000   0.1666667  -0.3333333), wk =   0.0185185
        k(   55) = (   0.0000000   0.3333333  -0.1666667), wk =   0.0185185
        k(   56) = (   0.0000000   0.3333333  -0.3333333), wk =   0.0185185
        k(   57) = (  -0.1666667   0.5000000  -0.1666667), wk =   0.0370370
        k(   58) = (  -0.1666667   0.5000000  -0.3333333), wk =   0.0370370
        k(   59) = (  -0.1666667   0.6666667  -0.1666667), wk =   0.0370370
        k(   60) = (  -0.1666667   0.6666667  -0.3333333), wk =   0.0370370
        k(   61) = (  -0.1666667   0.1666667  -0.1666667), wk =   0.0370370
        k(   62) = (  -0.1666667   0.1666667  -0.3333333), wk =   0.0370370
        k(   63) = (  -0.3333333   1.1666667  -0.1666667), wk =   0.0370370
        k(   64) = (  -0.3333333   1.1666667  -0.3333333), wk =   0.0370370
        k(   65) = (  -0.3333333   1.3333333  -0.1666667), wk =   0.0370370
        k(   66) = (  -0.3333333   1.3333333  -0.3333333), wk =   0.0370370
        k(   67) = (   0.5000000  -1.3333333  -0.1666667), wk =   0.0370370
        k(   68) = (   0.5000000  -1.3333333  -0.3333333), wk =   0.0370370

     Dense  grid:   106695 G-vectors     FFT dimensions: (  40, 120,  60)

     Smooth grid:    37535 G-vectors     FFT dimensions: (  27,  80,  45)

     Dynamical RAM for                 wfc:       3.88 MB

     Dynamical RAM for     wfc (w. buffer):      19.40 MB

     Dynamical RAM for           str. fact:       3.26 MB

     Dynamical RAM for           local pot:       0.00 MB

     Dynamical RAM for          nlocal pot:      11.21 MB

     Dynamical RAM for                qrad:       3.21 MB

     Dynamical RAM for          rho,v,vnew:      11.48 MB

     Dynamical RAM for               rhoin:       3.83 MB

     Dynamical RAM for            rho*nmix:      26.05 MB

     Dynamical RAM for           G-vectors:       6.39 MB

     Dynamical RAM for          h,s,v(r/c):       0.53 MB

     Dynamical RAM for          <psi|beta>:       0.13 MB

     Dynamical RAM for                 psi:       7.76 MB

     Dynamical RAM for                hpsi:       7.76 MB

     Dynamical RAM for                spsi:       7.76 MB

     Dynamical RAM for      wfcinit/wfcrot:      11.35 MB

     Dynamical RAM for           addusdens:      19.92 MB

     Dynamical RAM for          addusforce:      20.18 MB

     Estimated static dynamical RAM per process >      74.65 MB

     Estimated max dynamical RAM per process >     124.64 MB

     Estimated total dynamical RAM >       1.66 GB

     Check: negative core charge=   -0.000001

     Initial potential from superposition of free atoms

     starting charge     107.9776, renormalised to     108.0000
     Starting wfcs are   78 randomized atomic wfcs

     total cpu time spent up to now is       12.7 secs

     per-process dynamical memory:    96.4 Mb

     Self-consistent Calculation

     iteration #  1     ecut=    50.00 Ry     beta= 0.30
     Davidson diagonalization with overlap

---- Real-time Memory Report at c_bands before calling an iterative solver
           118 MiB given to the printing process from OS
            94 MiB allocation reported by mallinfo(arena+hblkhd)
        102658 MiB available memory on the node where the printing process lives
------------------
     ethr =  1.00E-02,  avg # of iterations =  2.0

     total cpu time spent up to now is       22.8 secs

     total energy              =   -1084.19197318 Ry
     estimated scf accuracy    <       2.03437203 Ry

     iteration #  2     ecut=    50.00 Ry     beta= 0.30
     Davidson diagonalization with overlap

---- Real-time Memory Report at c_bands before calling an iterative solver
           159 MiB given to the printing process from OS
           133 MiB allocation reported by mallinfo(arena+hblkhd)
        102318 MiB available memory on the node where the printing process lives
------------------
     ethr =  1.88E-03,  avg # of iterations =  2.0

     total cpu time spent up to now is       34.2 secs

     total energy              =   -1084.33146109 Ry
     estimated scf accuracy    <       0.39129602 Ry

     iteration #  3     ecut=    50.00 Ry     beta= 0.30
     Davidson diagonalization with overlap

---- Real-time Memory Report at c_bands before calling an iterative solver
           160 MiB given to the printing process from OS
           134 MiB allocation reported by mallinfo(arena+hblkhd)
        102246 MiB available memory on the node where the printing process lives
------------------
     ethr =  3.62E-04,  avg # of iterations =  6.6

     total cpu time spent up to now is       53.8 secs

     total energy              =   -1084.56177229 Ry
     estimated scf accuracy    <       0.26122000 Ry

     iteration #  4     ecut=    50.00 Ry     beta= 0.30
     Davidson diagonalization with overlap

---- Real-time Memory Report at c_bands before calling an iterative solver
           161 MiB given to the printing process from OS
           135 MiB allocation reported by mallinfo(arena+hblkhd)
        102378 MiB available memory on the node where the printing process lives
------------------
     ethr =  2.42E-04,  avg # of iterations =  2.0

     total cpu time spent up to now is       63.8 secs

     total energy              =   -1084.56541104 Ry
     estimated scf accuracy    <       0.06270356 Ry

     iteration #  5     ecut=    50.00 Ry     beta= 0.30
     Davidson diagonalization with overlap

---- Real-time Memory Report at c_bands before calling an iterative solver
           162 MiB given to the printing process from OS
           136 MiB allocation reported by mallinfo(arena+hblkhd)
        102400 MiB available memory on the node where the printing process lives
------------------
     ethr =  5.81E-05,  avg # of iterations = 10.1

     total cpu time spent up to now is       93.5 secs

     total energy              =   -1084.74321478 Ry
     estimated scf accuracy    <       1.30650640 Ry

     iteration #  6     ecut=    50.00 Ry     beta= 0.30
     Davidson diagonalization with overlap

---- Real-time Memory Report at c_bands before calling an iterative solver
           164 MiB given to the printing process from OS
           137 MiB allocation reported by mallinfo(arena+hblkhd)
        102352 MiB available memory on the node where the printing process lives
------------------
     ethr =  5.81E-05,  avg # of iterations =  5.4

     total cpu time spent up to now is      108.7 secs

     total energy              =   -1084.48543598 Ry
     estimated scf accuracy    <       0.67496772 Ry

     iteration #  7     ecut=    50.00 Ry     beta= 0.30
     Davidson diagonalization with overlap

---- Real-time Memory Report at c_bands before calling an iterative solver
           165 MiB given to the printing process from OS
           139 MiB allocation reported by mallinfo(arena+hblkhd)
        102294 MiB available memory on the node where the printing process lives
------------------
     ethr =  5.81E-05,  avg # of iterations =  7.7

     total cpu time spent up to now is      131.7 secs

     total energy              =   -1084.59245333 Ry
     estimated scf accuracy    <       0.00878718 Ry

     iteration #  8     ecut=    50.00 Ry     beta= 0.30
     Davidson diagonalization with overlap

---- Real-time Memory Report at c_bands before calling an iterative solver
           166 MiB given to the printing process from OS
           140 MiB allocation reported by mallinfo(arena+hblkhd)
        104168 MiB available memory on the node where the printing process lives
------------------
     ethr =  8.14E-06,  avg # of iterations =  8.5

     total cpu time spent up to now is      153.0 secs

     total energy              =   -1084.60133698 Ry
     estimated scf accuracy    <       0.01690319 Ry

     iteration #  9     ecut=    50.00 Ry     beta= 0.30
     Davidson diagonalization with overlap

---- Real-time Memory Report at c_bands before calling an iterative solver
           167 MiB given to the printing process from OS
           141 MiB allocation reported by mallinfo(arena+hblkhd)
        102084 MiB available memory on the node where the printing process lives
------------------
     ethr =  8.14E-06,  avg # of iterations =  1.1

     total cpu time spent up to now is      162.5 secs

     total energy              =   -1084.59559054 Ry
     estimated scf accuracy    <       0.01101524 Ry

     iteration # 10     ecut=    50.00 Ry     beta= 0.30
     Davidson diagonalization with overlap

---- Real-time Memory Report at c_bands before calling an iterative solver
           168 MiB given to the printing process from OS
           142 MiB allocation reported by mallinfo(arena+hblkhd)
        102202 MiB available memory on the node where the printing process lives
------------------
     ethr =  8.14E-06,  avg # of iterations =  5.6

     total cpu time spent up to now is      179.1 secs

     total energy              =   -1084.59923998 Ry
     estimated scf accuracy    <       0.00024665 Ry

     iteration # 11     ecut=    50.00 Ry     beta= 0.30
     Davidson diagonalization with overlap

---- Real-time Memory Report at c_bands before calling an iterative solver
           168 MiB given to the printing process from OS
           142 MiB allocation reported by mallinfo(arena+hblkhd)
        102332 MiB available memory on the node where the printing process lives
------------------
     ethr =  2.28E-07,  avg # of iterations =  8.2

     total cpu time spent up to now is      200.5 secs

     total energy              =   -1084.59966635 Ry
     estimated scf accuracy    <       0.00134788 Ry

     iteration # 12     ecut=    50.00 Ry     beta= 0.30
     Davidson diagonalization with overlap

---- Real-time Memory Report at c_bands before calling an iterative solver
           168 MiB given to the printing process from OS
           142 MiB allocation reported by mallinfo(arena+hblkhd)
        102335 MiB available memory on the node where the printing process lives
------------------
     ethr =  2.28E-07,  avg # of iterations =  1.1

     total cpu time spent up to now is      209.6 secs

     total energy              =   -1084.59910274 Ry
     estimated scf accuracy    <       0.00112381 Ry

     iteration # 13     ecut=    50.00 Ry     beta= 0.30
     Davidson diagonalization with overlap

---- Real-time Memory Report at c_bands before calling an iterative solver
           168 MiB given to the printing process from OS
           142 MiB allocation reported by mallinfo(arena+hblkhd)
        102186 MiB available memory on the node where the printing process lives
------------------
     ethr =  2.28E-07,  avg # of iterations =  7.4

     total cpu time spent up to now is      232.3 secs

     total energy              =   -1084.59938024 Ry
     estimated scf accuracy    <       0.00001448 Ry

     iteration # 14     ecut=    50.00 Ry     beta= 0.30
     Davidson diagonalization with overlap

---- Real-time Memory Report at c_bands before calling an iterative solver
           168 MiB given to the printing process from OS
           142 MiB allocation reported by mallinfo(arena+hblkhd)
        102296 MiB available memory on the node where the printing process lives
------------------
     ethr =  1.34E-08,  avg # of iterations =  4.9

     total cpu time spent up to now is      247.3 secs

     total energy              =   -1084.59938545 Ry
     estimated scf accuracy    <       0.00000094 Ry

     iteration # 15     ecut=    50.00 Ry     beta= 0.30
     Davidson diagonalization with overlap

---- Real-time Memory Report at c_bands before calling an iterative solver
           168 MiB given to the printing process from OS
           142 MiB allocation reported by mallinfo(arena+hblkhd)
        102325 MiB available memory on the node where the printing process lives
------------------
     ethr =  8.67E-10,  avg # of iterations = 10.5

     total cpu time spent up to now is      277.3 secs

     total energy              =   -1084.59937733 Ry
     estimated scf accuracy    <       0.00002901 Ry

     iteration # 16     ecut=    50.00 Ry     beta= 0.30
     Davidson diagonalization with overlap

---- Real-time Memory Report at c_bands before calling an iterative solver
           168 MiB given to the printing process from OS
           142 MiB allocation reported by mallinfo(arena+hblkhd)
        102434 MiB available memory on the node where the printing process lives
------------------
     ethr =  8.67E-10,  avg # of iterations = 11.8

     total cpu time spent up to now is      309.8 secs

     total energy              =   -1084.59938689 Ry
     estimated scf accuracy    <       0.00000348 Ry

     iteration # 17     ecut=    50.00 Ry     beta= 0.30
     Davidson diagonalization with overlap

---- Real-time Memory Report at c_bands before calling an iterative solver
           168 MiB given to the printing process from OS
           142 MiB allocation reported by mallinfo(arena+hblkhd)
        102424 MiB available memory on the node where the printing process lives
------------------
     ethr =  8.67E-10,  avg # of iterations =  1.1

     total cpu time spent up to now is      318.6 secs

     total energy              =   -1084.59938595 Ry
     estimated scf accuracy    <       0.00000295 Ry

     iteration # 18     ecut=    50.00 Ry     beta= 0.30
     Davidson diagonalization with overlap

---- Real-time Memory Report at c_bands before calling an iterative solver
           168 MiB given to the printing process from OS
           142 MiB allocation reported by mallinfo(arena+hblkhd)
        103928 MiB available memory on the node where the printing process lives
------------------
     ethr =  8.67E-10,  avg # of iterations =  4.0

     total cpu time spent up to now is      330.6 secs

     total energy              =   -1084.59938598 Ry
     estimated scf accuracy    <       0.00000082 Ry

     iteration # 19     ecut=    50.00 Ry     beta= 0.30
     Davidson diagonalization with overlap

---- Real-time Memory Report at c_bands before calling an iterative solver
           168 MiB given to the printing process from OS
           142 MiB allocation reported by mallinfo(arena+hblkhd)
        102600 MiB available memory on the node where the printing process lives
------------------
     ethr =  7.63E-10,  avg # of iterations =  3.2

     total cpu time spent up to now is      342.7 secs

     total energy              =   -1084.59938603 Ry
     estimated scf accuracy    <       0.00000028 Ry

     iteration # 20     ecut=    50.00 Ry     beta= 0.30
     Davidson diagonalization with overlap

---- Real-time Memory Report at c_bands before calling an iterative solver
           168 MiB given to the printing process from OS
           142 MiB allocation reported by mallinfo(arena+hblkhd)
        102251 MiB available memory on the node where the printing process lives
------------------
     ethr =  2.55E-10,  avg # of iterations =  5.5

     total cpu time spent up to now is      358.4 secs

     End of self-consistent calculation

          k = 0.0000 0.0000 0.0000 (  4691 PWs)   bands (ev):

    -9.3018  -8.6205  -8.6205  -8.1403  -7.9480  -7.9480   3.1613   3.1613
     3.3449   3.6340   3.6340   3.7501   3.7503   3.8085   4.0150   4.0150
     4.0407   4.0408   4.1055   4.1055   4.5296   4.5296   4.5880   4.5880
     5.4060   5.4060   5.5750   5.5751   5.6971   5.6971   5.8901   5.8902
     5.9449   5.9450   6.0050   6.0050   6.2930   6.5274   6.5274   6.9994
     6.9994   8.0750   8.0750   8.1687   8.1687   9.4584   9.4586   9.6260
     9.6260   9.8697   9.8698  10.5703  10.6280  10.6283

     occupation numbers 
     1.0000   1.0000   1.0000   1.0000   1.0000   1.0000   1.0000   1.0000
     1.0000   1.0000   1.0000   1.0000   1.0000   1.0000   1.0000   1.0000
     1.0000   1.0000   1.0000   1.0000   1.0000   1.0000   1.0000   1.0000
     1.0000   1.0000   1.0000   1.0000   1.0000   1.0000   1.0000   1.0000
     1.0000   1.0000   1.0000   1.0000   1.0000   1.0000   1.0000   1.0000
     1.0000   1.0000   1.0000   1.0000   1.0000   1.0000   1.0000   1.0000
     1.0000   1.0000   1.0000   1.0000   1.0000   1.0000

          k = 0.0000 0.0000 0.1075 (  4720 PWs)   bands (ev):

    -9.2289  -8.5728  -8.5728  -8.2232  -7.9893  -7.9892   3.0967   3.0967
     3.2600   3.4265   3.4265   3.7058   3.7572   3.7574   4.0072   4.0073
     4.0404   4.0405   4.0941   4.0941   4.4137   4.4137   4.5318   4.5318
     5.4937   5.4937   5.6115   5.6115   5.7165   5.7165   5.9347   5.9347
     5.9794   5.9794   6.0322   6.0322   6.6435   6.6763   6.6763   7.1924
     7.1925   8.0842   8.0842   8.2151   8.2151   9.5373   9.5375   9.6873
     9.6873   9.7604   9.7605  10.0674  10.5516  10.5518

     occupation numbers 
     1.0000   1.0000   1.0000   1.0000   1.0000   1.0000   1.0000   1.0000
     1.0000   1.0000   1.0000   1.0000   1.0000   1.0000   1.0000   1.0000
     1.0000   1.0000   1.0000   1.0000   1.0000   1.0000   1.0000   1.0000
     1.0000   1.0000   1.0000   1.0000   1.0000   1.0000   1.0000   1.0000
     1.0000   1.0000   1.0000   1.0000   1.0000   1.0000   1.0000   1.0000
     1.0000   1.0000   1.0000   1.0000   1.0000   1.0000   1.0000   1.0000
     1.0000   1.0000   1.0000   1.0000   1.0000   1.0000

          k = 0.0000 0.0000 0.2151 (  4746 PWs)   bands (ev):

    -9.0264  -8.4458  -8.4437  -8.4437  -8.1055  -8.1055   2.9664   2.9664
     3.0968   3.0968   3.1721   3.4686   3.7852   3.7854   3.9276   3.9278
     4.0931   4.0931   4.1179   4.1179   4.2573   4.2573   4.3961   4.3961
     5.6716   5.6716   5.7036   5.7036   5.7692   5.7692   5.8930   5.8931
     5.9174   5.9174   6.0067   6.0067   7.0258   7.0258   7.4589   7.5018
     7.5018   8.2638   8.2639   8.5744   8.5744   9.2742   9.4574   9.4574
     9.5885   9.5885   9.7534   9.7536  10.3406  10.3409

     occupation numbers 
     1.0000   1.0000   1.0000   1.0000   1.0000   1.0000   1.0000   1.0000
     1.0000   1.0000   1.0000   1.0000   1.0000   1.0000   1.0000   1.0000
     1.0000   1.0000   1.0000   1.0000   1.0000   1.0000   1.0000   1.0000
     1.0000   1.0000   1.0000   1.0000   1.0000   1.0000   1.0000   1.0000
     1.0000   1.0000   1.0000   1.0000   1.0000   1.0000   1.0000   1.0000
     1.0000   1.0000   1.0000   1.0000   1.0000   1.0000   1.0000   1.0000
     1.0000   1.0000   1.0000   1.0000   1.0000   1.0000

          k = 0.0000 0.0000-0.3226 (  4740 PWs)   bands (ev):

    -8.7412  -8.7411  -8.2714  -8.2714  -8.2714  -8.2714   2.9304   2.9304
     2.9304   2.9304   3.2476   3.2476   3.8439   3.8439   3.8441   3.8441
     4.1461   4.1461   4.1461   4.1461   4.2431   4.2431   4.2431   4.2431
     5.8107   5.8107   5.8107   5.8107   5.8416   5.8416   5.8416   5.8416
     5.8583   5.8583   5.8583   5.8583   7.3218   7.3218   7.3218   7.3218
     8.3948   8.3948   9.0289   9.0289   9.0289   9.0289   9.0406   9.0406
     9.0406   9.0406  10.0484  10.0484  10.0487  10.0487

     occupation numbers 
     1.0000   1.0000   1.0000   1.0000   1.0000   1.0000   1.0000   1.0000
     1.0000   1.0000   1.0000   1.0000   1.0000   1.0000   1.0000   1.0000
     1.0000   1.0000   1.0000   1.0000   1.0000   1.0000   1.0000   1.0000
     1.0000   1.0000   1.0000   1.0000   1.0000   1.0000   1.0000   1.0000
     1.0000   1.0000   1.0000   1.0000   1.0000   1.0000   1.0000   1.0000
     1.0000   1.0000   1.0000   1.0000   1.0000   1.0000   1.0000   1.0000
     1.0000   1.0000   1.0000   1.0000   1.0000   1.0000

          k = 0.0000 0.0642 0.0000 (  4694 PWs)   bands (ev):

    -9.2776  -8.7881  -8.4673  -8.1309  -7.9776  -7.9370   3.1495   3.2271
     3.3743   3.5353   3.7059   3.7086   3.7626   3.8324   3.9697   4.0064
     4.0342   4.0455   4.0585   4.1905   4.3519   4.4436   4.6134   4.7226
     5.3784   5.5266   5.5629   5.5729   5.6354   5.7697   5.9173   5.9335
     5.9483   5.9511   5.9940   6.0149   6.2928   6.3764   6.4786   6.9028
     7.3965   7.7166   7.7951   8.3937   8.6311   9.3327   9.3707   9.4042
     9.7150   9.8911  10.0502  10.3954  10.5443  10.6012

     occupation numbers 
     1.0000   1.0000   1.0000   1.0000   1.0000   1.0000   1.0000   1.0000
     1.0000   1.0000   1.0000   1.0000   1.0000   1.0000   1.0000   1.0000
     1.0000   1.0000   1.0000   1.0000   1.0000   1.0000   1.0000   1.0000
     1.0000   1.0000   1.0000   1.0000   1.0000   1.0000   1.0000   1.0000
     1.0000   1.0000   1.0000   1.0000   1.0000   1.0000   1.0000   1.0000
     1.0000   1.0000   1.0000   1.0000   1.0000   1.0000   1.0000   1.0000
     1.0000   1.0000   1.0000   1.0000   1.0000   1.0000

          k = 0.0000 0.0642 0.1075 (  4727 PWs)   bands (ev):

    -9.2055  -8.7330  -8.4276  -8.2124  -8.0300  -7.9672   3.0763   3.1644
     3.2784   3.3549   3.4722   3.6543   3.7702   3.7919   3.9894   4.0053
     4.0146   4.0246   4.0763   4.1696   4.2745   4.3961   4.5042   4.6562
     5.4694   5.5837   5.6017   5.6094   5.6612   5.7819   5.9371   5.9409
     5.9705   5.9872   6.0158   6.0780   6.4293   6.6465   6.7526   7.0720
     7.5206   7.7592   7.9527   8.5005   8.5172   9.4130   9.4646   9.4853
     9.6006   9.9102   9.9472   9.9699  10.4955  10.5231

     occupation numbers 
     1.0000   1.0000   1.0000   1.0000   1.0000   1.0000   1.0000   1.0000
     1.0000   1.0000   1.0000   1.0000   1.0000   1.0000   1.0000   1.0000
     1.0000   1.0000   1.0000   1.0000   1.0000   1.0000   1.0000   1.0000
     1.0000   1.0000   1.0000   1.0000   1.0000   1.0000   1.0000   1.0000
     1.0000   1.0000   1.0000   1.0000   1.0000   1.0000   1.0000   1.0000
     1.0000   1.0000   1.0000   1.0000   1.0000   1.0000   1.0000   1.0000
     1.0000   1.0000   1.0000   1.0000   1.0000   1.0000

          k = 0.0000 0.0642 0.2151 (  4728 PWs)   bands (ev):

    -9.0051  -8.5824  -8.4316  -8.3214  -8.1753  -8.0544   2.9319   3.0325
     3.0478   3.1457   3.1734   3.4435   3.7969   3.7994   3.9311   3.9443
     4.0159   4.0508   4.1551   4.1669   4.1690   4.2815   4.3420   4.4964
     5.6466   5.6985   5.7019   5.7302   5.7373   5.8171   5.8937   5.8971
     5.9075   5.9291   5.9770   6.0429   6.6839   7.1177   7.3524   7.4664
     7.8759   8.2905   8.3464   8.3846   8.8414   9.2423   9.2832   9.4735
     9.6381   9.6620   9.6985   9.7070  10.2663  10.3077

     occupation numbers 
     1.0000   1.0000   1.0000   1.0000   1.0000   1.0000   1.0000   1.0000
     1.0000   1.0000   1.0000   1.0000   1.0000   1.0000   1.0000   1.0000
     1.0000   1.0000   1.0000   1.0000   1.0000   1.0000   1.0000   1.0000
     1.0000   1.0000   1.0000   1.0000   1.0000   1.0000   1.0000   1.0000
     1.0000   1.0000   1.0000   1.0000   1.0000   1.0000   1.0000   1.0000
     1.0000   1.0000   1.0000   1.0000   1.0000   1.0000   1.0000   1.0000
     1.0000   1.0000   1.0000   1.0000   1.0000   1.0000

          k = 0.0000 0.0642-0.3226 (  4740 PWs)   bands (ev):

    -8.7231  -8.7231  -8.3776  -8.3775  -8.1832  -8.1832   2.8878   2.8878
     2.9909   2.9910   3.2349   3.2349   3.8506   3.8506   3.8595   3.8595
     4.0607   4.0608   4.1534   4.1534   4.2243   4.2244   4.3164   4.3164
     5.8096   5.8096   5.8103   5.8103   5.8207   5.8207   5.8314   5.8314
     5.8686   5.8686   5.9048   5.9048   6.9324   6.9324   7.7401   7.7401
     8.3948   8.3948   8.8317   8.8317   9.0488   9.0488   9.0565   9.0565
     9.2609   9.2609   9.9486   9.9486  10.0091  10.0091

     occupation numbers 
     1.0000   1.0000   1.0000   1.0000   1.0000   1.0000   1.0000   1.0000
     1.0000   1.0000   1.0000   1.0000   1.0000   1.0000   1.0000   1.0000
     1.0000   1.0000   1.0000   1.0000   1.0000   1.0000   1.0000   1.0000
     1.0000   1.0000   1.0000   1.0000   1.0000   1.0000   1.0000   1.0000
     1.0000   1.0000   1.0000   1.0000   1.0000   1.0000   1.0000   1.0000
     1.0000   1.0000   1.0000   1.0000   1.0000   1.0000   1.0000   1.0000
     1.0000   1.0000   1.0000   1.0000   1.0000   1.0000

          k = 0.0000 0.1283 0.0000 (  4704 PWs)   bands (ev):

    -9.2070  -8.9516  -8.3525  -8.1042  -8.0195  -7.9430   3.1927   3.3316
     3.4208   3.4481   3.6307   3.7216   3.7985   3.8713   3.9123   3.9202
     4.0246   4.0621   4.1112   4.1687   4.2498   4.3091   4.6201   4.8209
     5.4194   5.5289   5.5698   5.5937   5.6060   5.8323   5.9516   5.9572
     5.9641   5.9818   6.0217   6.1326   6.2173   6.2986   6.3894   6.8742
     7.3571   7.5962   7.9260   8.7158   8.9823   9.0864   9.1771   9.2484
     9.6096   9.9738  10.1304  10.2323  10.4619  10.5215

     occupation numbers 
     1.0000   1.0000   1.0000   1.0000   1.0000   1.0000   1.0000   1.0000
     1.0000   1.0000   1.0000   1.0000   1.0000   1.0000   1.0000   1.0000
     1.0000   1.0000   1.0000   1.0000   1.0000   1.0000   1.0000   1.0000
     1.0000   1.0000   1.0000   1.0000   1.0000   1.0000   1.0000   1.0000
     1.0000   1.0000   1.0000   1.0000   1.0000   1.0000   1.0000   1.0000
     1.0000   1.0000   1.0000   1.0000   1.0000   1.0000   1.0000   1.0000
     1.0000   1.0000   1.0000   1.0000   1.0000   1.0000

          k = 0.0000 0.1283 0.1075 (  4721 PWs)   bands (ev):

    -9.1370  -8.8901  -8.3198  -8.1817  -8.0821  -7.9642   3.1049   3.2638
     3.2678   3.3240   3.4833   3.5632   3.8073   3.8418   3.9272   3.9454
     4.0085   4.0760   4.0965   4.1363   4.2256   4.2677   4.5370   4.7455
     5.4934   5.5743   5.6061   5.6252   5.6849   5.8390   5.9436   5.9582
     5.9615   5.9916   6.0014   6.1531   6.2826   6.6577   6.7191   6.8544
     7.6411   7.7691   8.0277   8.8248   8.9311   9.0660   9.2892   9.3356
     9.4920   9.7049  10.1057  10.1364  10.3890  10.4391

     occupation numbers 
     1.0000   1.0000   1.0000   1.0000   1.0000   1.0000   1.0000   1.0000
     1.0000   1.0000   1.0000   1.0000   1.0000   1.0000   1.0000   1.0000
     1.0000   1.0000   1.0000   1.0000   1.0000   1.0000   1.0000   1.0000
     1.0000   1.0000   1.0000   1.0000   1.0000   1.0000   1.0000   1.0000
     1.0000   1.0000   1.0000   1.0000   1.0000   1.0000   1.0000   1.0000
     1.0000   1.0000   1.0000   1.0000   1.0000   1.0000   1.0000   1.0000
     1.0000   1.0000   1.0000   1.0000   1.0000   1.0000

          k = 0.0000 0.1283 0.2151 (  4726 PWs)   bands (ev):

    -8.9429  -8.7211  -8.3910  -8.2536  -8.2336  -8.0273   2.9312   3.0000
     3.1101   3.1728   3.2011   3.3754   3.8303   3.8398   3.9437   3.9464
     3.9751   3.9926   4.0581   4.1685   4.2000   4.2236   4.3930   4.5653
     5.6495   5.6843   5.6982   5.7067   5.8327   5.8598   5.8952   5.9011
     5.9088   5.9383   5.9500   6.0802   6.4690   6.7655   7.4861   7.4954
     8.1901   8.3040   8.3553   8.6800   9.1111   9.1158   9.1651   9.3420
     9.3761   9.5733   9.8038   9.8710  10.0958  10.2113

     occupation numbers 
     1.0000   1.0000   1.0000   1.0000   1.0000   1.0000   1.0000   1.0000
     1.0000   1.0000   1.0000   1.0000   1.0000   1.0000   1.0000   1.0000
     1.0000   1.0000   1.0000   1.0000   1.0000   1.0000   1.0000   1.0000
     1.0000   1.0000   1.0000   1.0000   1.0000   1.0000   1.0000   1.0000
     1.0000   1.0000   1.0000   1.0000   1.0000   1.0000   1.0000   1.0000
     1.0000   1.0000   1.0000   1.0000   1.0000   1.0000   1.0000   1.0000
     1.0000   1.0000   1.0000   1.0000   1.0000   1.0000

          k = 0.0000 0.1283-0.3226 (  4732 PWs)   bands (ev):

    -8.6708  -8.6708  -8.4880  -8.4880  -8.1247  -8.1247   2.8638   2.8638
     3.0635   3.0635   3.1967   3.1967   3.8734   3.8734   3.9039   3.9039
     3.9812   3.9812   4.0594   4.0594   4.2809   4.2809   4.3641   4.3641
     5.8072   5.8072   5.8092   5.8092   5.8102   5.8102   5.8180   5.8180
     5.8927   5.8927   5.9709   5.9709   6.6331   6.6331   8.1021   8.1021
     8.3823   8.3823   8.6979   8.6979   9.0589   9.0589   9.1487   9.1487
     9.4996   9.4996   9.6902   9.6903   9.8948   9.8949

     occupation numbers 
     1.0000   1.0000   1.0000   1.0000   1.0000   1.0000   1.0000   1.0000
     1.0000   1.0000   1.0000   1.0000   1.0000   1.0000   1.0000   1.0000
     1.0000   1.0000   1.0000   1.0000   1.0000   1.0000   1.0000   1.0000
     1.0000   1.0000   1.0000   1.0000   1.0000   1.0000   1.0000   1.0000
     1.0000   1.0000   1.0000   1.0000   1.0000   1.0000   1.0000   1.0000
     1.0000   1.0000   1.0000   1.0000   1.0000   1.0000   1.0000   1.0000
     1.0000   1.0000   1.0000   1.0000   1.0000   1.0000

          k = 0.0000-0.1925 0.0000 (  4712 PWs)   bands (ev):

    -9.0954  -9.0954  -8.3075  -8.0647  -8.0647  -7.9499   3.2530   3.3358
     3.4430   3.4430   3.6406   3.6406   3.8516   3.8516   3.8965   3.8965
     4.0539   4.0539   4.0673   4.1959   4.1959   4.2715   4.6146   4.8573
     5.4774   5.4774   5.5739   5.5739   5.6195   5.8586   5.9688   5.9688
     5.9690   5.9690   6.0240   6.1038   6.3261   6.3261   6.4379   6.6926
     7.2561   7.5227   8.4824   8.4824   9.0102   9.0103   9.1031   9.5324
     9.5324   9.5721  10.3235  10.3235  10.3949  10.3949

     occupation numbers 
     1.0000   1.0000   1.0000   1.0000   1.0000   1.0000   1.0000   1.0000
     1.0000   1.0000   1.0000   1.0000   1.0000   1.0000   1.0000   1.0000
     1.0000   1.0000   1.0000   1.0000   1.0000   1.0000   1.0000   1.0000
     1.0000   1.0000   1.0000   1.0000   1.0000   1.0000   1.0000   1.0000
     1.0000   1.0000   1.0000   1.0000   1.0000   1.0000   1.0000   1.0000
     1.0000   1.0000   1.0000   1.0000   1.0000   1.0000   1.0000   1.0000
     1.0000   1.0000   1.0000   1.0000   1.0000   1.0000

          k = 0.0000-0.1925 0.1075 (  4706 PWs)   bands (ev):

    -9.0289  -9.0289  -8.2779  -8.1357  -8.1357  -7.9673   3.1573   3.1954
     3.3448   3.3448   3.4856   3.4856   3.8629   3.8629   3.8923   3.8923
     4.0433   4.0433   4.1030   4.1587   4.1587   4.2469   4.5420   4.7782
     5.5348   5.5348   5.6088   5.6089   5.7226   5.8632   5.9524   5.9524
     5.9810   5.9810   5.9925   6.1053   6.4566   6.6027   6.6812   6.6812
     7.6361   7.7022   8.5731   8.5731   9.1071   9.1071   9.2202   9.3422
     9.3422   9.4533  10.2635  10.2635  10.3062  10.3062

     occupation numbers 
     1.0000   1.0000   1.0000   1.0000   1.0000   1.0000   1.0000   1.0000
     1.0000   1.0000   1.0000   1.0000   1.0000   1.0000   1.0000   1.0000
     1.0000   1.0000   1.0000   1.0000   1.0000   1.0000   1.0000   1.0000
     1.0000   1.0000   1.0000   1.0000   1.0000   1.0000   1.0000   1.0000
     1.0000   1.0000   1.0000   1.0000   1.0000   1.0000   1.0000   1.0000
     1.0000   1.0000   1.0000   1.0000   1.0000   1.0000   1.0000   1.0000
     1.0000   1.0000   1.0000   1.0000   1.0000   1.0000

          k = 0.0000-0.1925 0.2151 (  4716 PWs)   bands (ev):

    -8.8452  -8.8452  -8.3289  -8.3289  -8.2004  -8.0202   2.9530   2.9625
     3.1582   3.1582   3.2834   3.2834   3.8811   3.8811   3.9013   3.9013
     3.9860   3.9860   4.0693   4.0694   4.2104   4.2456   4.4088   4.5899
     5.6657   5.6657   5.6978   5.6978   5.8778   5.8902   5.8975   5.8975
     5.9270   5.9270   5.9410   6.0841   6.4871   6.5319   7.5072   7.5072
     8.1341   8.3870   8.7725   8.7725   9.0127   9.0127   9.1231   9.3357
     9.3686   9.3686   9.9281   9.9281  10.0607  10.0607

     occupation numbers 
     1.0000   1.0000   1.0000   1.0000   1.0000   1.0000   1.0000   1.0000
     1.0000   1.0000   1.0000   1.0000   1.0000   1.0000   1.0000   1.0000
     1.0000   1.0000   1.0000   1.0000   1.0000   1.0000   1.0000   1.0000
     1.0000   1.0000   1.0000   1.0000   1.0000   1.0000   1.0000   1.0000
     1.0000   1.0000   1.0000   1.0000   1.0000   1.0000   1.0000   1.0000
     1.0000   1.0000   1.0000   1.0000   1.0000   1.0000   1.0000   1.0000
     1.0000   1.0000   1.0000   1.0000   1.0000   1.0000

          k = 0.0000-0.1925-0.3226 (  4712 PWs)   bands (ev):

    -8.5895  -8.5895  -8.5895  -8.5895  -8.1042  -8.1042   2.8564   2.8564
     3.1364   3.1364   3.1364   3.1364   3.9169   3.9169   3.9169   3.9169
     3.9729   3.9729   3.9729   3.9729   4.3018   4.3019   4.3808   4.3808
     5.8060   5.8060   5.8060   5.8060   5.8118   5.8118   5.8118   5.8118
     5.9028   5.9028   6.0147   6.0147   6.5070   6.5070   8.3118   8.3118
     8.3118   8.3118   8.6503   8.6503   9.0630   9.0630   9.3783   9.3783
     9.3783   9.3783   9.7187   9.7187   9.7187   9.7187

     occupation numbers 
     1.0000   1.0000   1.0000   1.0000   1.0000   1.0000   1.0000   1.0000
     1.0000   1.0000   1.0000   1.0000   1.0000   1.0000   1.0000   1.0000
     1.0000   1.0000   1.0000   1.0000   1.0000   1.0000   1.0000   1.0000
     1.0000   1.0000   1.0000   1.0000   1.0000   1.0000   1.0000   1.0000
     1.0000   1.0000   1.0000   1.0000   1.0000   1.0000   1.0000   1.0000
     1.0000   1.0000   1.0000   1.0000   1.0000   1.0000   1.0000   1.0000
     1.0000   1.0000   1.0000   1.0000   1.0000   1.0000

          k = 0.1667 0.0962 0.0000 (  4729 PWs)   bands (ev):

    -9.0954  -8.7522  -8.3218  -8.0647  -7.9693  -7.9418   3.3275   3.3691
     3.4431   3.6022   3.6244   3.6406   3.8514   3.8965   3.9984   4.0232
     4.0468   4.0540   4.1958   4.1969   4.3082   4.4868   4.6943   4.8452
     5.3988   5.4774   5.5207   5.5739   5.5983   5.6036   5.9469   5.9688
     5.9690   5.9929   6.0292   6.0694   6.3261   6.3701   6.5074   6.8582
     7.1665   7.5327   7.6054   7.9214   8.4825   8.6403   9.0101   9.0137
     9.2701   9.5325   9.8433   9.8659  10.3235  10.3947

     occupation numbers 
     1.0000   1.0000   1.0000   1.0000   1.0000   1.0000   1.0000   1.0000
     1.0000   1.0000   1.0000   1.0000   1.0000   1.0000   1.0000   1.0000
     1.0000   1.0000   1.0000   1.0000   1.0000   1.0000   1.0000   1.0000
     1.0000   1.0000   1.0000   1.0000   1.0000   1.0000   1.0000   1.0000
     1.0000   1.0000   1.0000   1.0000   1.0000   1.0000   1.0000   1.0000
     1.0000   1.0000   1.0000   1.0000   1.0000   1.0000   1.0000   1.0000
     1.0000   1.0000   1.0000   1.0000   1.0000   1.0000

          k = 0.1667 0.0962 0.1075 (  4709 PWs)   bands (ev):

    -9.0289  -8.6985  -8.2908  -8.1357  -8.0194  -7.9609   3.2602   3.2850
     3.3448   3.4353   3.4731   3.4857   3.8628   3.8924   3.9802   3.9956
     4.0018   4.0434   4.1586   4.1645   4.2547   4.4381   4.5939   4.7402
     5.4738   5.5348   5.5484   5.6089   5.6660   5.7694   5.9523   5.9713
     5.9811   6.0139   6.0364   6.1916   6.3365   6.6812   6.7688   7.0041
     7.2121   7.6758   7.8123   8.0130   8.5408   8.5733   8.9977   9.1070
     9.2781   9.3423   9.7282   9.8921  10.2635  10.3060

     occupation numbers 
     1.0000   1.0000   1.0000   1.0000   1.0000   1.0000   1.0000   1.0000
     1.0000   1.0000   1.0000   1.0000   1.0000   1.0000   1.0000   1.0000
     1.0000   1.0000   1.0000   1.0000   1.0000   1.0000   1.0000   1.0000
     1.0000   1.0000   1.0000   1.0000   1.0000   1.0000   1.0000   1.0000
     1.0000   1.0000   1.0000   1.0000   1.0000   1.0000   1.0000   1.0000
     1.0000   1.0000   1.0000   1.0000   1.0000   1.0000   1.0000   1.0000
     1.0000   1.0000   1.0000   1.0000   1.0000   1.0000

          k = 0.1667 0.0962 0.2151 (  4726 PWs)   bands (ev):

    -8.8452  -8.5522  -8.3289  -8.2097  -8.1588  -8.0183   3.1103   3.1107
     3.1441   3.1582   3.1830   3.2834   3.8811   3.9011   3.9683   3.9861
     3.9883   4.0015   4.0692   4.1172   4.1996   4.3267   4.4858   4.5739
     5.6448   5.6657   5.6834   5.6979   5.7466   5.8220   5.8975   5.9147
     5.9270   5.9930   6.0229   6.1963   6.5174   6.9606   7.3591   7.5072
     7.5952   8.0293   8.2102   8.3718   8.5775   8.7338   8.7726   9.0128
     9.3675   9.3685   9.4181   9.7089   9.9282  10.0606

     occupation numbers 
     1.0000   1.0000   1.0000   1.0000   1.0000   1.0000   1.0000   1.0000
     1.0000   1.0000   1.0000   1.0000   1.0000   1.0000   1.0000   1.0000
     1.0000   1.0000   1.0000   1.0000   1.0000   1.0000   1.0000   1.0000
     1.0000   1.0000   1.0000   1.0000   1.0000   1.0000   1.0000   1.0000
     1.0000   1.0000   1.0000   1.0000   1.0000   1.0000   1.0000   1.0000
     1.0000   1.0000   1.0000   1.0000   1.0000   1.0000   1.0000   1.0000
     1.0000   1.0000   1.0000   1.0000   1.0000   1.0000

          k = 0.1667 0.0962-0.3226 (  4726 PWs)   bands (ev):

    -8.5895  -8.5895  -8.3538  -8.3538  -8.1081  -8.1080   3.0281   3.0281
     3.0375   3.0375   3.1365   3.1365   3.9169   3.9170   3.9728   3.9728
     3.9786   3.9786   4.0638   4.0638   4.2235   4.2235   4.4721   4.4721
     5.7877   5.7877   5.8060   5.8060   5.8108   5.8108   5.8118   5.8118
     5.8601   5.8601   6.0902   6.0902   6.7678   6.7678   7.7600   7.7600
     8.1158   8.1158   8.3118   8.3118   8.8922   8.8922   9.1241   9.1241
     9.1565   9.1565   9.3784   9.3784   9.7185   9.7185

     occupation numbers 
     1.0000   1.0000   1.0000   1.0000   1.0000   1.0000   1.0000   1.0000
     1.0000   1.0000   1.0000   1.0000   1.0000   1.0000   1.0000   1.0000
     1.0000   1.0000   1.0000   1.0000   1.0000   1.0000   1.0000   1.0000
     1.0000   1.0000   1.0000   1.0000   1.0000   1.0000   1.0000   1.0000
     1.0000   1.0000   1.0000   1.0000   1.0000   1.0000   1.0000   1.0000
     1.0000   1.0000   1.0000   1.0000   1.0000   1.0000   1.0000   1.0000
     1.0000   1.0000   1.0000   1.0000   1.0000   1.0000

          k = 0.1667 0.1604 0.0000 (  4724 PWs)   bands (ev):

    -9.0113  -8.8937  -8.2399  -8.0374  -8.0032  -7.9592   3.3620   3.4013
     3.4078   3.6255   3.6423   3.6525   3.9030   3.9292   3.9587   3.9759
     4.0055   4.0910   4.1650   4.2025   4.2663   4.3682   4.6971   4.9213
     5.4235   5.4491   5.5763   5.5777   5.5797   5.6780   5.9530   5.9635
     5.9760   5.9834   5.9962   6.0181   6.3607   6.4243   6.4404   6.7254
     6.9015   7.6972   7.8690   8.1889   8.3476   8.7558   8.7973   9.0161
     9.1869   9.3020  10.0630  10.0810  10.2163  10.2758

     occupation numbers 
     1.0000   1.0000   1.0000   1.0000   1.0000   1.0000   1.0000   1.0000
     1.0000   1.0000   1.0000   1.0000   1.0000   1.0000   1.0000   1.0000
     1.0000   1.0000   1.0000   1.0000   1.0000   1.0000   1.0000   1.0000
     1.0000   1.0000   1.0000   1.0000   1.0000   1.0000   1.0000   1.0000
     1.0000   1.0000   1.0000   1.0000   1.0000   1.0000   1.0000   1.0000
     1.0000   1.0000   1.0000   1.0000   1.0000   1.0000   1.0000   1.0000
     1.0000   1.0000   1.0000   1.0000   1.0000   1.0000

          k = 0.1667 0.1604 0.1075 (  4715 PWs)   bands (ev):

    -8.9477  -8.8343  -8.2150  -8.1035  -8.0622  -7.9712   3.2965   3.3249
     3.3260   3.4379   3.4603   3.4712   3.8957   3.9323   3.9370   3.9659
     3.9773   4.0821   4.1516   4.1885   4.2265   4.3249   4.6250   4.8028
     5.4922   5.5129   5.6133   5.6278   5.6314   5.7563   5.9570   5.9627
     5.9957   6.0143   6.0192   6.0577   6.4877   6.7035   6.7391   6.7651
     6.9962   7.9605   7.9800   8.2863   8.4259   8.8162   8.8365   8.9024
     9.1578   9.1709   9.9750  10.0566  10.1697  10.1892

     occupation numbers 
     1.0000   1.0000   1.0000   1.0000   1.0000   1.0000   1.0000   1.0000
     1.0000   1.0000   1.0000   1.0000   1.0000   1.0000   1.0000   1.0000
     1.0000   1.0000   1.0000   1.0000   1.0000   1.0000   1.0000   1.0000
     1.0000   1.0000   1.0000   1.0000   1.0000   1.0000   1.0000   1.0000
     1.0000   1.0000   1.0000   1.0000   1.0000   1.0000   1.0000   1.0000
     1.0000   1.0000   1.0000   1.0000   1.0000   1.0000   1.0000   1.0000
     1.0000   1.0000   1.0000   1.0000   1.0000   1.0000

          k = 0.1667 0.1604 0.2151 (  4727 PWs)   bands (ev):

    -8.7724  -8.6715  -8.2842  -8.2246  -8.1508  -8.0093   3.1338   3.1404
     3.1443   3.1695   3.1813   3.2282   3.9062   3.9330   3.9389   3.9655
     3.9941   4.0299   4.1077   4.1328   4.1470   4.2245   4.5349   4.6201
     5.6493   5.6565   5.7010   5.7141   5.7163   5.7888   5.8992   5.9033
     5.9416   5.9640   6.0916   6.1863   6.4772   6.6841   7.4612   7.4818
     7.5102   8.2990   8.4607   8.4765   8.5355   8.6189   8.7830   8.9313
     9.2026   9.2819   9.6883   9.7926   9.8541   9.9248

     occupation numbers 
     1.0000   1.0000   1.0000   1.0000   1.0000   1.0000   1.0000   1.0000
     1.0000   1.0000   1.0000   1.0000   1.0000   1.0000   1.0000   1.0000
     1.0000   1.0000   1.0000   1.0000   1.0000   1.0000   1.0000   1.0000
     1.0000   1.0000   1.0000   1.0000   1.0000   1.0000   1.0000   1.0000
     1.0000   1.0000   1.0000   1.0000   1.0000   1.0000   1.0000   1.0000
     1.0000   1.0000   1.0000   1.0000   1.0000   1.0000   1.0000   1.0000
     1.0000   1.0000   1.0000   1.0000   1.0000   1.0000

          k = 0.1667 0.1604-0.3226 (  4720 PWs)   bands (ev):

    -8.5297  -8.5297  -8.4481  -8.4480  -8.0735  -8.0735   3.0505   3.0506
     3.0575   3.0575   3.0973   3.0973   3.9361   3.9361   3.9532   3.9532
     4.0368   4.0369   4.0727   4.0727   4.1279   4.1279   4.5222   4.5222
     5.7676   5.7676   5.8052   5.8052   5.8067   5.8067   5.8174   5.8174
     5.8314   5.8314   6.1853   6.1853   6.5580   6.5580   8.0097   8.0097
     8.0305   8.0305   8.2139   8.2139   9.1012   9.1012   9.1285   9.1285
     9.2313   9.2313   9.3230   9.3231   9.5624   9.5624

     occupation numbers 
     1.0000   1.0000   1.0000   1.0000   1.0000   1.0000   1.0000   1.0000
     1.0000   1.0000   1.0000   1.0000   1.0000   1.0000   1.0000   1.0000
     1.0000   1.0000   1.0000   1.0000   1.0000   1.0000   1.0000   1.0000
     1.0000   1.0000   1.0000   1.0000   1.0000   1.0000   1.0000   1.0000
     1.0000   1.0000   1.0000   1.0000   1.0000   1.0000   1.0000   1.0000
     1.0000   1.0000   1.0000   1.0000   1.0000   1.0000   1.0000   1.0000
     1.0000   1.0000   1.0000   1.0000   1.0000   1.0000

          k = 0.1667-0.0321 0.0000 (  4702 PWs)   bands (ev):

    -9.1391  -8.5994  -8.4500  -8.0797  -7.9436  -7.9335   3.3120   3.3276
     3.4936   3.5773   3.5954   3.6048   3.8432   3.8995   4.0209   4.0235
     4.0321   4.1191   4.1655   4.1729   4.4772   4.6088   4.6299   4.7246
     5.3845   5.4142   5.5019   5.5669   5.6198   5.6211   5.9640   5.9705
     5.9764   6.0054   6.0195   6.0560   6.3128   6.4475   6.5528   7.0487
     7.2249   7.3380   7.5663   7.7835   8.2048   8.7056   9.0477   9.3052
     9.4257   9.5886   9.6362   9.7146  10.3803  10.4302

     occupation numbers 
     1.0000   1.0000   1.0000   1.0000   1.0000   1.0000   1.0000   1.0000
     1.0000   1.0000   1.0000   1.0000   1.0000   1.0000   1.0000   1.0000
     1.0000   1.0000   1.0000   1.0000   1.0000   1.0000   1.0000   1.0000
     1.0000   1.0000   1.0000   1.0000   1.0000   1.0000   1.0000   1.0000
     1.0000   1.0000   1.0000   1.0000   1.0000   1.0000   1.0000   1.0000
     1.0000   1.0000   1.0000   1.0000   1.0000   1.0000   1.0000   1.0000
     1.0000   1.0000   1.0000   1.0000   1.0000   1.0000

          k = 0.1667-0.0321 0.1075 (  4711 PWs)   bands (ev):

    -9.0712  -8.5526  -8.4111  -8.1533  -7.9836  -7.9627   3.2391   3.2482
     3.3576   3.4469   3.4630   3.4941   3.8451   3.8745   3.9964   4.0034
     4.0200   4.0687   4.1250   4.1287   4.3742   4.5003   4.5520   4.6529
     5.4661   5.4862   5.5523   5.6042   5.7208   5.7609   5.9484   5.9737
     5.9843   6.0004   6.0759   6.1574   6.4859   6.6714   6.7084   7.2333
     7.4291   7.5209   7.6917   7.7618   8.1171   8.7946   9.1270   9.2278
     9.4699   9.4724   9.5136   9.6903  10.3147  10.3437

     occupation numbers 
     1.0000   1.0000   1.0000   1.0000   1.0000   1.0000   1.0000   1.0000
     1.0000   1.0000   1.0000   1.0000   1.0000   1.0000   1.0000   1.0000
     1.0000   1.0000   1.0000   1.0000   1.0000   1.0000   1.0000   1.0000
     1.0000   1.0000   1.0000   1.0000   1.0000   1.0000   1.0000   1.0000
     1.0000   1.0000   1.0000   1.0000   1.0000   1.0000   1.0000   1.0000
     1.0000   1.0000   1.0000   1.0000   1.0000   1.0000   1.0000   1.0000
     1.0000   1.0000   1.0000   1.0000   1.0000   1.0000

          k = 0.1667-0.0321 0.2151 (  4714 PWs)   bands (ev):

    -8.8834  -8.4263  -8.3529  -8.3073  -8.0964  -8.0472   3.0855   3.0864
     3.1540   3.1689   3.1709   3.3169   3.8566   3.8759   3.9691   3.9952
     4.0051   4.0256   4.0422   4.0727   4.2948   4.3948   4.4248   4.5080
     5.6467   5.6587   5.6736   5.6962   5.7933   5.8272   5.8961   5.9206
     5.9377   5.9734   6.0346   6.1043   6.7847   7.1038   7.3003   7.5013
     7.6637   7.8478   8.1691   8.2078   8.2586   8.9128   8.9519   9.0963
     9.1477   9.4439   9.4891   9.6081   9.9923  10.1028

     occupation numbers 
     1.0000   1.0000   1.0000   1.0000   1.0000   1.0000   1.0000   1.0000
     1.0000   1.0000   1.0000   1.0000   1.0000   1.0000   1.0000   1.0000
     1.0000   1.0000   1.0000   1.0000   1.0000   1.0000   1.0000   1.0000
     1.0000   1.0000   1.0000   1.0000   1.0000   1.0000   1.0000   1.0000
     1.0000   1.0000   1.0000   1.0000   1.0000   1.0000   1.0000   1.0000
     1.0000   1.0000   1.0000   1.0000   1.0000   1.0000   1.0000   1.0000
     1.0000   1.0000   1.0000   1.0000   1.0000   1.0000

          k = 0.1667-0.0321-0.3226 (  4746 PWs)   bands (ev):

    -8.6211  -8.6211  -8.2580  -8.2580  -8.1724  -8.1724   3.0161   3.0161
     3.0217   3.0217   3.1614   3.1614   3.8896   3.8896   3.9537   3.9537
     4.0111   4.0111   4.0424   4.0425   4.3138   4.3138   4.3970   4.3970
     5.8049   5.8049   5.8059   5.8059   5.8121   5.8121   5.8127   5.8127
     5.9123   5.9123   5.9911   5.9911   7.0790   7.0790   7.4284   7.4284
     8.3157   8.3157   8.3501   8.3501   8.5889   8.5890   9.1184   9.1184
     9.1202   9.1202   9.4966   9.4966   9.7715   9.7715

     occupation numbers 
     1.0000   1.0000   1.0000   1.0000   1.0000   1.0000   1.0000   1.0000
     1.0000   1.0000   1.0000   1.0000   1.0000   1.0000   1.0000   1.0000
     1.0000   1.0000   1.0000   1.0000   1.0000   1.0000   1.0000   1.0000
     1.0000   1.0000   1.0000   1.0000   1.0000   1.0000   1.0000   1.0000
     1.0000   1.0000   1.0000   1.0000   1.0000   1.0000   1.0000   1.0000
     1.0000   1.0000   1.0000   1.0000   1.0000   1.0000   1.0000   1.0000
     1.0000   1.0000   1.0000   1.0000   1.0000   1.0000

          k = 0.3333 0.1925 0.0000 (  4700 PWs)   bands (ev):

    -8.6205  -8.6205  -8.0559  -8.0559  -7.9480  -7.9480   3.1614   3.1614
     3.5995   3.6340   3.6340   3.9743   3.9743   4.0149   4.0149   4.1055
     4.1055   4.2544   4.5296   4.5296   4.5878   4.5879   4.8776   4.8776
     5.4061   5.4061   5.4572   5.6331   5.6331   5.6972   5.6972   5.7122
     5.8901   5.8901   6.0050   6.0050   6.2369   6.5275   6.5275   6.8718
     6.8718   6.9995   6.9995   8.0749   8.0749   8.1687   8.1687   8.3066
     8.3066   8.5125   9.6260   9.6260   9.8696   9.8696

     occupation numbers 
     1.0000   1.0000   1.0000   1.0000   1.0000   1.0000   1.0000   1.0000
     1.0000   1.0000   1.0000   1.0000   1.0000   1.0000   1.0000   1.0000
     1.0000   1.0000   1.0000   1.0000   1.0000   1.0000   1.0000   1.0000
     1.0000   1.0000   1.0000   1.0000   1.0000   1.0000   1.0000   1.0000
     1.0000   1.0000   1.0000   1.0000   1.0000   1.0000   1.0000   1.0000
     1.0000   1.0000   1.0000   1.0000   1.0000   1.0000   1.0000   1.0000
     1.0000   1.0000   1.0000   1.0000   1.0000   1.0000

          k = 0.3333 0.1925 0.1075 (  4712 PWs)   bands (ev):

    -8.5728  -8.5728  -8.0488  -8.0488  -7.9893  -7.9893   3.0968   3.0968
     3.4266   3.4266   3.6257   3.7915   3.7915   4.0403   4.0403   4.0942
     4.0942   4.1748   4.4137   4.4137   4.5317   4.5317   4.7777   4.7777
     5.4808   5.4937   5.4937   5.6972   5.7166   5.7166   5.8698   5.8698
     5.9794   5.9794   6.0322   6.0322   6.3984   6.6764   6.6764   6.8098
     6.8099   7.1925   7.1925   8.0842   8.0842   8.2149   8.2149   8.3492
     8.5206   8.5206   9.6873   9.6873   9.7603   9.7603

     occupation numbers 
     1.0000   1.0000   1.0000   1.0000   1.0000   1.0000   1.0000   1.0000
     1.0000   1.0000   1.0000   1.0000   1.0000   1.0000   1.0000   1.0000
     1.0000   1.0000   1.0000   1.0000   1.0000   1.0000   1.0000   1.0000
     1.0000   1.0000   1.0000   1.0000   1.0000   1.0000   1.0000   1.0000
     1.0000   1.0000   1.0000   1.0000   1.0000   1.0000   1.0000   1.0000
     1.0000   1.0000   1.0000   1.0000   1.0000   1.0000   1.0000   1.0000
     1.0000   1.0000   1.0000   1.0000   1.0000   1.0000

          k = 0.3333 0.1925 0.2151 (  4714 PWs)   bands (ev):

    -8.4437  -8.4437  -8.1055  -8.1055  -8.0345  -8.0345   2.9665   2.9665
     3.0968   3.0968   3.4741   3.4741   3.7037   4.0041   4.0931   4.0931
     4.1178   4.1178   4.2573   4.2573   4.3960   4.3960   4.6946   4.6946
     5.5344   5.6558   5.6716   5.6716   5.7692   5.7692   5.9174   5.9174
     6.0068   6.0068   6.2084   6.2084   6.6745   6.6745   6.8169   7.0259
     7.0259   7.5019   7.5019   7.9216   8.2639   8.2639   8.5743   8.5743
     8.9418   8.9418   9.4572   9.4572   9.5885   9.5885

     occupation numbers 
     1.0000   1.0000   1.0000   1.0000   1.0000   1.0000   1.0000   1.0000
     1.0000   1.0000   1.0000   1.0000   1.0000   1.0000   1.0000   1.0000
     1.0000   1.0000   1.0000   1.0000   1.0000   1.0000   1.0000   1.0000
     1.0000   1.0000   1.0000   1.0000   1.0000   1.0000   1.0000   1.0000
     1.0000   1.0000   1.0000   1.0000   1.0000   1.0000   1.0000   1.0000
     1.0000   1.0000   1.0000   1.0000   1.0000   1.0000   1.0000   1.0000
     1.0000   1.0000   1.0000   1.0000   1.0000   1.0000

          k = 0.3333 0.1925-0.3226 (  4702 PWs)   bands (ev):

    -8.2715  -8.2714  -8.2714  -8.2714  -8.0273  -8.0273   2.9304   2.9304
     2.9304   2.9304   3.3353   3.3353   3.8334   3.8334   4.1461   4.1461
     4.1461   4.1461   4.2429   4.2429   4.2429   4.2429   4.6709   4.6709
     5.5973   5.5973   5.8416   5.8416   5.8416   5.8416   5.8584   5.8584
     5.8584   5.8584   6.4106   6.4106   6.5431   6.5431   7.3218   7.3218
     7.3218   7.3218   7.3655   7.3655   9.0287   9.0287   9.0287   9.0287
     9.0406   9.0407   9.0407   9.0407   9.1524   9.1525

     occupation numbers 
     1.0000   1.0000   1.0000   1.0000   1.0000   1.0000   1.0000   1.0000
     1.0000   1.0000   1.0000   1.0000   1.0000   1.0000   1.0000   1.0000
     1.0000   1.0000   1.0000   1.0000   1.0000   1.0000   1.0000   1.0000
     1.0000   1.0000   1.0000   1.0000   1.0000   1.0000   1.0000   1.0000
     1.0000   1.0000   1.0000   1.0000   1.0000   1.0000   1.0000   1.0000
     1.0000   1.0000   1.0000   1.0000   1.0000   1.0000   1.0000   1.0000
     1.0000   1.0000   1.0000   1.0000   1.0000   1.0000

          k = 0.3333 0.2566 0.0000 (  4700 PWs)   bands (ev):

    -8.6914  -8.5300  -8.1303  -7.9998  -7.9584  -7.9388   3.1702   3.2055
     3.5775   3.5981   3.6693   3.8739   3.9688   4.0102   4.0216   4.0907
     4.1653   4.1941   4.4448   4.5287   4.5889   4.6660   4.8219   4.9347
     5.3827   5.4558   5.4711   5.5804   5.6547   5.7059   5.7619   5.8133
     5.9117   5.9302   5.9999   6.0112   6.2447   6.4739   6.5246   6.7558
     6.9345   6.9757   7.1766   7.8356   7.9274   7.9973   8.1299   8.3901
     8.5161   8.6971   9.4754   9.7337   9.7458   9.9064

     occupation numbers 
     1.0000   1.0000   1.0000   1.0000   1.0000   1.0000   1.0000   1.0000
     1.0000   1.0000   1.0000   1.0000   1.0000   1.0000   1.0000   1.0000
     1.0000   1.0000   1.0000   1.0000   1.0000   1.0000   1.0000   1.0000
     1.0000   1.0000   1.0000   1.0000   1.0000   1.0000   1.0000   1.0000
     1.0000   1.0000   1.0000   1.0000   1.0000   1.0000   1.0000   1.0000
     1.0000   1.0000   1.0000   1.0000   1.0000   1.0000   1.0000   1.0000
     1.0000   1.0000   1.0000   1.0000   1.0000   1.0000

          k = 0.3333 0.2566 0.1075 (  4701 PWs)   bands (ev):

    -8.6404  -8.4868  -8.1147  -8.0045  -8.0015  -7.9737   3.1012   3.1417
     3.4062   3.4555   3.5602   3.7142   3.8560   3.9895   4.0353   4.0785
     4.1457   4.1579   4.3451   4.4694   4.4762   4.6035   4.7380   4.7963
     5.4734   5.5078   5.5246   5.6904   5.7088   5.7519   5.9153   5.9291
     5.9757   5.9854   6.0294   6.0631   6.4231   6.5530   6.7008   6.7405
     6.9181   7.1468   7.3334   7.8772   8.0005   8.2114   8.2144   8.3274
     8.4733   8.7930   9.5436   9.6314   9.7722   9.8137

     occupation numbers 
     1.0000   1.0000   1.0000   1.0000   1.0000   1.0000   1.0000   1.0000
     1.0000   1.0000   1.0000   1.0000   1.0000   1.0000   1.0000   1.0000
     1.0000   1.0000   1.0000   1.0000   1.0000   1.0000   1.0000   1.0000
     1.0000   1.0000   1.0000   1.0000   1.0000   1.0000   1.0000   1.0000
     1.0000   1.0000   1.0000   1.0000   1.0000   1.0000   1.0000   1.0000
     1.0000   1.0000   1.0000   1.0000   1.0000   1.0000   1.0000   1.0000
     1.0000   1.0000   1.0000   1.0000   1.0000   1.0000

          k = 0.3333 0.2566 0.2151 (  4712 PWs)   bands (ev):

    -8.5018  -8.3707  -8.1334  -8.0770  -8.0733  -8.0112   2.9632   3.0095
     3.0860   3.1269   3.3869   3.4178   3.7805   4.0308   4.0308   4.0853
     4.0980   4.1467   4.2193   4.3175   4.3524   4.4570   4.6562   4.6763
     5.5734   5.6533   5.6901   5.6910   5.7546   5.8023   5.9148   5.9292
     5.9963   6.0324   6.1547   6.2607   6.5515   6.7282   6.8411   6.9533
     7.1958   7.3143   7.6955   8.0112   8.2430   8.2828   8.3912   8.6285
     8.7884   9.0988   9.2896   9.4881   9.5342   9.6498

     occupation numbers 
     1.0000   1.0000   1.0000   1.0000   1.0000   1.0000   1.0000   1.0000
     1.0000   1.0000   1.0000   1.0000   1.0000   1.0000   1.0000   1.0000
     1.0000   1.0000   1.0000   1.0000   1.0000   1.0000   1.0000   1.0000
     1.0000   1.0000   1.0000   1.0000   1.0000   1.0000   1.0000   1.0000
     1.0000   1.0000   1.0000   1.0000   1.0000   1.0000   1.0000   1.0000
     1.0000   1.0000   1.0000   1.0000   1.0000   1.0000   1.0000   1.0000
     1.0000   1.0000   1.0000   1.0000   1.0000   1.0000

          k = 0.3333 0.2566-0.3226 (  4710 PWs)   bands (ev):

    -8.3152  -8.3152  -8.2179  -8.2179  -8.0370  -8.0370   2.9220   2.9220
     2.9676   2.9676   3.2759   3.2759   3.8821   3.8821   4.0784   4.0785
     4.1556   4.1556   4.2244   4.2244   4.3083   4.3083   4.6364   4.6364
     5.6370   5.6370   5.8236   5.8236   5.8408   5.8408   5.8557   5.8557
     5.9010   5.9010   6.3479   6.3479   6.5722   6.5722   7.1175   7.1175
     7.4750   7.4750   7.5248   7.5248   8.8173   8.8173   8.9863   8.9863
     9.0751   9.0751   9.1294   9.1294   9.1492   9.1492

     occupation numbers 
     1.0000   1.0000   1.0000   1.0000   1.0000   1.0000   1.0000   1.0000
     1.0000   1.0000   1.0000   1.0000   1.0000   1.0000   1.0000   1.0000
     1.0000   1.0000   1.0000   1.0000   1.0000   1.0000   1.0000   1.0000
     1.0000   1.0000   1.0000   1.0000   1.0000   1.0000   1.0000   1.0000
     1.0000   1.0000   1.0000   1.0000   1.0000   1.0000   1.0000   1.0000
     1.0000   1.0000   1.0000   1.0000   1.0000   1.0000   1.0000   1.0000
     1.0000   1.0000   1.0000   1.0000   1.0000   1.0000

          k = 0.3333 0.3208 0.0000 (  4707 PWs)   bands (ev):

    -8.7367  -8.4276  -8.2204  -7.9663  -7.9623  -7.9353   3.2415   3.2802
     3.5034   3.5908   3.6440   3.7230   3.9681   3.9979   4.0145   4.0850
     4.1734   4.2010   4.3506   4.4968   4.6382   4.7552   4.7603   4.9164
     5.3896   5.4977   5.5204   5.5572   5.6156   5.6637   5.9266   5.9370
     5.9952   5.9971   6.0189   6.0516   6.3647   6.3664   6.5123   6.6306
     6.9791   7.0899   7.3961   7.4438   7.7155   7.7226   8.0263   8.5681
     8.7387   8.9936   9.2742   9.5206   9.8280   9.8765

     occupation numbers 
     1.0000   1.0000   1.0000   1.0000   1.0000   1.0000   1.0000   1.0000
     1.0000   1.0000   1.0000   1.0000   1.0000   1.0000   1.0000   1.0000
     1.0000   1.0000   1.0000   1.0000   1.0000   1.0000   1.0000   1.0000
     1.0000   1.0000   1.0000   1.0000   1.0000   1.0000   1.0000   1.0000
     1.0000   1.0000   1.0000   1.0000   1.0000   1.0000   1.0000   1.0000
     1.0000   1.0000   1.0000   1.0000   1.0000   1.0000   1.0000   1.0000
     1.0000   1.0000   1.0000   1.0000   1.0000   1.0000

          k = 0.3333 0.3208 0.1075 (  4702 PWs)   bands (ev):

    -8.6837  -8.3901  -8.1969  -8.0154  -7.9727  -7.9627   3.1650   3.2142
     3.4181   3.4328   3.4556   3.5791   3.9292   3.9619   4.0124   4.0541
     4.1500   4.1720   4.2793   4.4468   4.5258   4.6708   4.6763   4.7836
     5.4713   5.5394   5.5441   5.6729   5.7396   5.7767   5.9727   5.9976
     6.0055   6.0340   6.0421   6.1517   6.3962   6.4693   6.6899   6.7635
     7.0489   7.1402   7.5375   7.5600   7.8124   7.9704   8.1222   8.4753
     8.6960   9.0521   9.3046   9.4672   9.7534   9.8686

     occupation numbers 
     1.0000   1.0000   1.0000   1.0000   1.0000   1.0000   1.0000   1.0000
     1.0000   1.0000   1.0000   1.0000   1.0000   1.0000   1.0000   1.0000
     1.0000   1.0000   1.0000   1.0000   1.0000   1.0000   1.0000   1.0000
     1.0000   1.0000   1.0000   1.0000   1.0000   1.0000   1.0000   1.0000
     1.0000   1.0000   1.0000   1.0000   1.0000   1.0000   1.0000   1.0000
     1.0000   1.0000   1.0000   1.0000   1.0000   1.0000   1.0000   1.0000
     1.0000   1.0000   1.0000   1.0000   1.0000   1.0000

          k = 0.3333 0.3208 0.2151 (  4711 PWs)   bands (ev):

    -8.5393  -8.2902  -8.1522  -8.1367  -8.0422  -8.0066   3.0110   3.0706
     3.1124   3.1481   3.2457   3.2942   3.9004   3.9777   4.0283   4.0671
     4.0784   4.1429   4.2030   4.3321   4.3968   4.5186   4.5781   4.6263
     5.6419   5.6459   5.6964   5.7486   5.7629   5.8349   5.9148   5.9629
     5.9935   6.0918   6.0927   6.2850   6.4569   6.6646   6.8137   7.1327
     7.2307   7.3164   7.8941   7.9857   8.2271   8.2742   8.3452   8.5940
     8.6720   9.0171   9.2439   9.4466   9.4644   9.6941

     occupation numbers 
     1.0000   1.0000   1.0000   1.0000   1.0000   1.0000   1.0000   1.0000
     1.0000   1.0000   1.0000   1.0000   1.0000   1.0000   1.0000   1.0000
     1.0000   1.0000   1.0000   1.0000   1.0000   1.0000   1.0000   1.0000
     1.0000   1.0000   1.0000   1.0000   1.0000   1.0000   1.0000   1.0000
     1.0000   1.0000   1.0000   1.0000   1.0000   1.0000   1.0000   1.0000
     1.0000   1.0000   1.0000   1.0000   1.0000   1.0000   1.0000   1.0000
     1.0000   1.0000   1.0000   1.0000   1.0000   1.0000

          k = 0.3333 0.3208-0.3226 (  4714 PWs)   bands (ev):

    -8.3439  -8.3438  -8.1611  -8.1611  -8.0650  -8.0650   2.9566   2.9566
     3.0095   3.0095   3.1543   3.1543   3.9768   3.9768   4.0076   4.0076
     4.1244   4.1244   4.2232   4.2232   4.3891   4.3891   4.5585   4.5585
     5.7190   5.7190   5.8134   5.8134   5.8254   5.8254   5.8586   5.8586
     5.9799   5.9799   6.2213   6.2213   6.6469   6.6469   6.9288   6.9288
     7.6912   7.6912   7.7518   7.7519   8.4944   8.4944   8.9245   8.9245
     9.1028   9.1028   9.1397   9.1397   9.1542   9.1542

     occupation numbers 
     1.0000   1.0000   1.0000   1.0000   1.0000   1.0000   1.0000   1.0000
     1.0000   1.0000   1.0000   1.0000   1.0000   1.0000   1.0000   1.0000
     1.0000   1.0000   1.0000   1.0000   1.0000   1.0000   1.0000   1.0000
     1.0000   1.0000   1.0000   1.0000   1.0000   1.0000   1.0000   1.0000
     1.0000   1.0000   1.0000   1.0000   1.0000   1.0000   1.0000   1.0000
     1.0000   1.0000   1.0000   1.0000   1.0000   1.0000   1.0000   1.0000
     1.0000   1.0000   1.0000   1.0000   1.0000   1.0000

          k = 0.3333-0.0000 0.0000 (  4711 PWs)   bands (ev):

    -8.7522  -8.3218  -8.3218  -7.9693  -7.9418  -7.9418   3.3276   3.3692
     3.3692   3.6021   3.6244   3.6244   3.9984   3.9984   4.0231   4.0468
     4.1969   4.1969   4.3083   4.4867   4.6944   4.6944   4.8451   4.8451
     5.3987   5.5208   5.5208   5.5984   5.6035   5.6035   5.9469   5.9929
     6.0292   6.0292   6.0694   6.0694   6.3702   6.3702   6.5074   6.8581
     6.8581   7.1666   7.1666   7.5328   7.6054   7.6054   7.9214   8.6403
     9.0137   9.0137   9.2701   9.2701   9.8432   9.8658

     occupation numbers 
     1.0000   1.0000   1.0000   1.0000   1.0000   1.0000   1.0000   1.0000
     1.0000   1.0000   1.0000   1.0000   1.0000   1.0000   1.0000   1.0000
     1.0000   1.0000   1.0000   1.0000   1.0000   1.0000   1.0000   1.0000
     1.0000   1.0000   1.0000   1.0000   1.0000   1.0000   1.0000   1.0000
     1.0000   1.0000   1.0000   1.0000   1.0000   1.0000   1.0000   1.0000
     1.0000   1.0000   1.0000   1.0000   1.0000   1.0000   1.0000   1.0000
     1.0000   1.0000   1.0000   1.0000   1.0000   1.0000

          k = 0.3333-0.0000 0.1075 (  4707 PWs)   bands (ev):

    -8.6985  -8.2908  -8.2908  -8.0194  -7.9609  -7.9609   3.2603   3.2851
     3.2851   3.4354   3.4732   3.4732   3.9802   3.9802   3.9956   4.0018
     4.1645   4.1645   4.2547   4.4380   4.5939   4.5939   4.7401   4.7401
     5.4738   5.5485   5.5485   5.6661   5.7694   5.7694   5.9714   6.0140
     6.0140   6.0364   6.1916   6.1916   6.3365   6.3365   6.7689   7.0041
     7.0041   7.2121   7.2121   7.6758   7.8123   7.8123   8.0130   8.5408
     8.9976   8.9976   9.2781   9.2781   9.7280   9.8921

     occupation numbers 
     1.0000   1.0000   1.0000   1.0000   1.0000   1.0000   1.0000   1.0000
     1.0000   1.0000   1.0000   1.0000   1.0000   1.0000   1.0000   1.0000
     1.0000   1.0000   1.0000   1.0000   1.0000   1.0000   1.0000   1.0000
     1.0000   1.0000   1.0000   1.0000   1.0000   1.0000   1.0000   1.0000
     1.0000   1.0000   1.0000   1.0000   1.0000   1.0000   1.0000   1.0000
     1.0000   1.0000   1.0000   1.0000   1.0000   1.0000   1.0000   1.0000
     1.0000   1.0000   1.0000   1.0000   1.0000   1.0000

          k = 0.3333-0.0000 0.2151 (  4712 PWs)   bands (ev):

    -8.5522  -8.2097  -8.2097  -8.1588  -8.0183  -8.0183   3.1103   3.1103
     3.1108   3.1442   3.1831   3.1831   3.9683   3.9882   4.0014   4.0014
     4.1172   4.1172   4.1996   4.3266   4.4858   4.4858   4.5738   4.5738
     5.6448   5.6834   5.6834   5.7466   5.8220   5.8220   5.9148   5.9930
     6.0229   6.0229   6.1963   6.1963   6.5175   6.5175   6.9607   6.9607
     7.3592   7.5951   7.5951   8.0293   8.2102   8.3717   8.3717   8.5774
     8.7338   8.7338   9.3675   9.3675   9.4180   9.7090

     occupation numbers 
     1.0000   1.0000   1.0000   1.0000   1.0000   1.0000   1.0000   1.0000
     1.0000   1.0000   1.0000   1.0000   1.0000   1.0000   1.0000   1.0000
     1.0000   1.0000   1.0000   1.0000   1.0000   1.0000   1.0000   1.0000
     1.0000   1.0000   1.0000   1.0000   1.0000   1.0000   1.0000   1.0000
     1.0000   1.0000   1.0000   1.0000   1.0000   1.0000   1.0000   1.0000
     1.0000   1.0000   1.0000   1.0000   1.0000   1.0000   1.0000   1.0000
     1.0000   1.0000   1.0000   1.0000   1.0000   1.0000

          k = 0.3333-0.0000-0.3226 (  4702 PWs)   bands (ev):

    -8.3538  -8.3538  -8.1081  -8.1081  -8.1080  -8.1080   3.0282   3.0282
     3.0375   3.0375   3.0375   3.0375   3.9786   3.9786   4.0637   4.0637
     4.0637   4.0637   4.2235   4.2235   4.4721   4.4721   4.4721   4.4721
     5.7877   5.7877   5.7877   5.7877   5.8108   5.8108   5.8601   5.8601
     6.0902   6.0902   6.0902   6.0902   6.7678   6.7678   6.7678   6.7678
     7.7600   7.7600   8.1157   8.1157   8.1157   8.1157   8.8921   8.8921
     9.1241   9.1241   9.1241   9.1241   9.1564   9.1565

     occupation numbers 
     1.0000   1.0000   1.0000   1.0000   1.0000   1.0000   1.0000   1.0000
[...]
     1.0000   1.0000   1.0000   1.0000   1.0000   1.0000   1.0000   1.0000
     1.0000   1.0000   1.0000   1.0000   1.0000   1.0000   1.0000   1.0000
     1.0000   1.0000   1.0000   1.0000   1.0000   1.0000   1.0000   1.0000
     1.0000   1.0000   1.0000   1.0000   1.0000   1.0000   1.0000   1.0000
     1.0000   1.0000   1.0000   1.0000   1.0000   1.0000   1.0000   1.0000
     1.0000   1.0000   1.0000   1.0000   1.0000   1.0000   1.0000   1.0000
     1.0000   1.0000   1.0000   1.0000   1.0000   1.0000

          k =-0.1667-0.0321-0.1075 (  4711 PWs)   bands (ev):

    -9.0712  -8.5526  -8.4111  -8.1533  -7.9836  -7.9627   3.2391   3.2482
     3.3576   3.4469   3.4630   3.4941   3.8451   3.8745   3.9964   4.0034
     4.0200   4.0687   4.1250   4.1287   4.3742   4.5003   4.5520   4.6529
     5.4661   5.4862   5.5523   5.6042   5.7208   5.7609   5.9484   5.9737
     5.9843   6.0004   6.0759   6.1574   6.4859   6.6714   6.7084   7.2333
     7.4291   7.5209   7.6917   7.7618   8.1171   8.7946   9.1270   9.2278
     9.4699   9.4724   9.5136   9.6903  10.3147  10.3437

     occupation numbers 
     1.0000   1.0000   1.0000   1.0000   1.0000   1.0000   1.0000   1.0000
     1.0000   1.0000   1.0000   1.0000   1.0000   1.0000   1.0000   1.0000
     1.0000   1.0000   1.0000   1.0000   1.0000   1.0000   1.0000   1.0000
     1.0000   1.0000   1.0000   1.0000   1.0000   1.0000   1.0000   1.0000
     1.0000   1.0000   1.0000   1.0000   1.0000   1.0000   1.0000   1.0000
     1.0000   1.0000   1.0000   1.0000   1.0000   1.0000   1.0000   1.0000
     1.0000   1.0000   1.0000   1.0000   1.0000   1.0000

          k =-0.1667-0.0321-0.2151 (  4714 PWs)   bands (ev):

    -8.8834  -8.4263  -8.3529  -8.3073  -8.0964  -8.0472   3.0855   3.0864
     3.1540   3.1689   3.1709   3.3169   3.8566   3.8759   3.9691   3.9952
     4.0051   4.0256   4.0422   4.0727   4.2948   4.3948   4.4248   4.5080
     5.6467   5.6587   5.6736   5.6962   5.7933   5.8272   5.8961   5.9206
     5.9377   5.9734   6.0346   6.1043   6.7847   7.1038   7.3003   7.5013
     7.6637   7.8478   8.1691   8.2078   8.2586   8.9128   8.9519   9.0963
     9.1477   9.4439   9.4891   9.6081   9.9923  10.1028

     occupation numbers 
     1.0000   1.0000   1.0000   1.0000   1.0000   1.0000   1.0000   1.0000
     1.0000   1.0000   1.0000   1.0000   1.0000   1.0000   1.0000   1.0000
     1.0000   1.0000   1.0000   1.0000   1.0000   1.0000   1.0000   1.0000
     1.0000   1.0000   1.0000   1.0000   1.0000   1.0000   1.0000   1.0000
     1.0000   1.0000   1.0000   1.0000   1.0000   1.0000   1.0000   1.0000
     1.0000   1.0000   1.0000   1.0000   1.0000   1.0000   1.0000   1.0000
     1.0000   1.0000   1.0000   1.0000   1.0000   1.0000

          k =-0.3333 0.2566-0.1075 (  4701 PWs)   bands (ev):

    -8.6404  -8.4868  -8.1147  -8.0045  -8.0015  -7.9737   3.1012   3.1417
     3.4062   3.4555   3.5602   3.7142   3.8560   3.9895   4.0353   4.0785
     4.1457   4.1579   4.3451   4.4694   4.4762   4.6035   4.7380   4.7963
     5.4734   5.5078   5.5246   5.6904   5.7088   5.7519   5.9153   5.9291
     5.9757   5.9854   6.0294   6.0631   6.4231   6.5530   6.7008   6.7405
     6.9181   7.1468   7.3334   7.8772   8.0005   8.2114   8.2144   8.3274
     8.4733   8.7930   9.5436   9.6314   9.7722   9.8137

     occupation numbers 
     1.0000   1.0000   1.0000   1.0000   1.0000   1.0000   1.0000   1.0000
     1.0000   1.0000   1.0000   1.0000   1.0000   1.0000   1.0000   1.0000
     1.0000   1.0000   1.0000   1.0000   1.0000   1.0000   1.0000   1.0000
     1.0000   1.0000   1.0000   1.0000   1.0000   1.0000   1.0000   1.0000
     1.0000   1.0000   1.0000   1.0000   1.0000   1.0000   1.0000   1.0000
     1.0000   1.0000   1.0000   1.0000   1.0000   1.0000   1.0000   1.0000
     1.0000   1.0000   1.0000   1.0000   1.0000   1.0000

          k =-0.3333 0.2566-0.2151 (  4712 PWs)   bands (ev):

    -8.5018  -8.3707  -8.1334  -8.0770  -8.0733  -8.0112   2.9632   3.0095
     3.0860   3.1269   3.3869   3.4178   3.7805   4.0308   4.0308   4.0853
     4.0980   4.1467   4.2193   4.3175   4.3524   4.4570   4.6562   4.6763
     5.5734   5.6533   5.6901   5.6910   5.7546   5.8023   5.9148   5.9292
     5.9963   6.0324   6.1547   6.2607   6.5515   6.7282   6.8411   6.9533
     7.1958   7.3143   7.6955   8.0112   8.2430   8.2828   8.3912   8.6285
     8.7884   9.0988   9.2896   9.4881   9.5342   9.6498

     occupation numbers 
     1.0000   1.0000   1.0000   1.0000   1.0000   1.0000   1.0000   1.0000
     1.0000   1.0000   1.0000   1.0000   1.0000   1.0000   1.0000   1.0000
     1.0000   1.0000   1.0000   1.0000   1.0000   1.0000   1.0000   1.0000
     1.0000   1.0000   1.0000   1.0000   1.0000   1.0000   1.0000   1.0000
     1.0000   1.0000   1.0000   1.0000   1.0000   1.0000   1.0000   1.0000
     1.0000   1.0000   1.0000   1.0000   1.0000   1.0000   1.0000   1.0000
     1.0000   1.0000   1.0000   1.0000   1.0000   1.0000

          k =-0.3333 0.3208-0.1075 (  4702 PWs)   bands (ev):

    -8.6837  -8.3901  -8.1969  -8.0154  -7.9727  -7.9627   3.1650   3.2142
     3.4181   3.4328   3.4556   3.5791   3.9292   3.9619   4.0124   4.0541
     4.1501   4.1720   4.2793   4.4468   4.5258   4.6708   4.6763   4.7836
     5.4713   5.5394   5.5441   5.6729   5.7396   5.7767   5.9727   5.9976
     6.0055   6.0340   6.0421   6.1517   6.3962   6.4693   6.6899   6.7635
     7.0489   7.1403   7.5375   7.5600   7.8124   7.9704   8.1222   8.4753
     8.6960   9.0521   9.3046   9.4672   9.7534   9.8686

     occupation numbers 
     1.0000   1.0000   1.0000   1.0000   1.0000   1.0000   1.0000   1.0000
     1.0000   1.0000   1.0000   1.0000   1.0000   1.0000   1.0000   1.0000
     1.0000   1.0000   1.0000   1.0000   1.0000   1.0000   1.0000   1.0000
     1.0000   1.0000   1.0000   1.0000   1.0000   1.0000   1.0000   1.0000
     1.0000   1.0000   1.0000   1.0000   1.0000   1.0000   1.0000   1.0000
     1.0000   1.0000   1.0000   1.0000   1.0000   1.0000   1.0000   1.0000
     1.0000   1.0000   1.0000   1.0000   1.0000   1.0000

          k =-0.3333 0.3208-0.2151 (  4711 PWs)   bands (ev):

    -8.5393  -8.2902  -8.1522  -8.1367  -8.0422  -8.0066   3.0110   3.0706
     3.1124   3.1481   3.2457   3.2942   3.9004   3.9777   4.0283   4.0671
     4.0784   4.1429   4.2030   4.3321   4.3968   4.5186   4.5781   4.6263
     5.6419   5.6459   5.6964   5.7486   5.7629   5.8349   5.9148   5.9629
     5.9935   6.0918   6.0927   6.2850   6.4569   6.6646   6.8137   7.1327
     7.2307   7.3164   7.8941   7.9857   8.2271   8.2743   8.3452   8.5940
     8.6720   9.0171   9.2439   9.4466   9.4644   9.6941

     occupation numbers 
     1.0000   1.0000   1.0000   1.0000   1.0000   1.0000   1.0000   1.0000
     1.0000   1.0000   1.0000   1.0000   1.0000   1.0000   1.0000   1.0000
     1.0000   1.0000   1.0000   1.0000   1.0000   1.0000   1.0000   1.0000
     1.0000   1.0000   1.0000   1.0000   1.0000   1.0000   1.0000   1.0000
     1.0000   1.0000   1.0000   1.0000   1.0000   1.0000   1.0000   1.0000
     1.0000   1.0000   1.0000   1.0000   1.0000   1.0000   1.0000   1.0000
     1.0000   1.0000   1.0000   1.0000   1.0000   1.0000

          k = 0.5000-0.2245-0.1075 (  4694 PWs)   bands (ev):

    -8.2945  -8.2851  -8.2799  -7.9663  -7.9637  -7.9591   3.1580   3.2012
     3.2527   3.3657   3.3813   3.4951   3.9992   4.0286   4.0824   4.1073
     4.2056   4.2346   4.5522   4.5744   4.6013   4.7188   4.7628   4.7749
     5.4875   5.6390   5.7040   5.7586   5.7941   5.8368   5.9982   6.0080
     6.0163   6.1202   6.1580   6.1982   6.3365   6.3810   6.3930   6.7138
     6.8986   6.8991   7.3096   7.3597   7.5025   7.7218   7.7848   7.8359
     8.9299   9.1054   9.1909   9.2435   9.3419   9.4171

     occupation numbers 
     1.0000   1.0000   1.0000   1.0000   1.0000   1.0000   1.0000   1.0000
     1.0000   1.0000   1.0000   1.0000   1.0000   1.0000   1.0000   1.0000
     1.0000   1.0000   1.0000   1.0000   1.0000   1.0000   1.0000   1.0000
     1.0000   1.0000   1.0000   1.0000   1.0000   1.0000   1.0000   1.0000
     1.0000   1.0000   1.0000   1.0000   1.0000   1.0000   1.0000   1.0000
     1.0000   1.0000   1.0000   1.0000   1.0000   1.0000   1.0000   1.0000
     1.0000   1.0000   1.0000   1.0000   1.0000   1.0000

          k = 0.5000-0.2245-0.2151 (  4682 PWs)   bands (ev):

    -8.2124  -8.2056  -8.2019  -8.0199  -8.0191  -8.0178   2.9666   3.0016
     3.0240   3.0863   3.1879   3.2422   3.9488   4.0547   4.0896   4.1731
     4.1844   4.2296   4.4282   4.4614   4.4966   4.5704   4.5808   4.5873
     5.6452   5.7531   5.8123   5.8352   5.8409   5.8655   5.9748   6.0067
     6.0297   6.1028   6.1484   6.2228   6.4550   6.4628   6.5861   6.6281
     6.7901   7.0626   7.4636   7.8177   8.0303   8.2367   8.4257   8.4505
     8.6999   8.8651   9.0401   9.3502   9.3636   9.3680

     occupation numbers 
     1.0000   1.0000   1.0000   1.0000   1.0000   1.0000   1.0000   1.0000
     1.0000   1.0000   1.0000   1.0000   1.0000   1.0000   1.0000   1.0000
     1.0000   1.0000   1.0000   1.0000   1.0000   1.0000   1.0000   1.0000
     1.0000   1.0000   1.0000   1.0000   1.0000   1.0000   1.0000   1.0000
     1.0000   1.0000   1.0000   1.0000   1.0000   1.0000   1.0000   1.0000
     1.0000   1.0000   1.0000   1.0000   1.0000   1.0000   1.0000   1.0000
     1.0000   1.0000   1.0000   1.0000   1.0000   1.0000

     highest occupied level (ev):    10.6283

!    total energy              =   -1084.59938614 Ry
     estimated scf accuracy    <          4.8E-09 Ry

     The total energy is the sum of the following terms:
     one-electron contribution =    -384.12536757 Ry
     hartree contribution      =     327.59813516 Ry
     xc contribution           =    -330.24093288 Ry
     ewald contribution        =    -697.83122085 Ry

     convergence has been achieved in  20 iterations

     Forces acting on atoms (cartesian axes, Ry/au):

     atom    1 type  1   force =     0.00000000   -0.00001162   -0.03923318
     atom    2 type  1   force =     0.00000000    0.00001065   -0.03922043
     atom    3 type  2   force =     0.00000000    0.00000360    0.03922490
     atom    4 type  2   force =     0.00000000   -0.00000113    0.03922849
     atom    5 type  1   force =     0.00000000   -0.00001794   -0.03923468
     atom    6 type  1   force =     0.00000000    0.00001405   -0.03921856
     atom    7 type  2   force =     0.00000000    0.00000180    0.03922431
     atom    8 type  2   force =     0.00000000   -0.00000330    0.03922857
     atom    9 type  1   force =     0.00000000   -0.00001418   -0.03923120
     atom   10 type  1   force =     0.00000000    0.00001897   -0.03922165
     atom   11 type  2   force =     0.00000000    0.00000193    0.03922463
     atom   12 type  2   force =     0.00000000   -0.00000283    0.03922879
     The non-local contrib.  to forces
     atom    1 type  1   force =     0.00000000    0.00002618   -0.13775334
     atom    2 type  1   force =     0.00000000   -0.00002814   -0.13774555
     atom    3 type  2   force =     0.00000000    0.00018642   -0.08400140
     atom    4 type  2   force =     0.00000000   -0.00018509   -0.08399975
     atom    5 type  1   force =     0.00000000    0.00002504   -0.13775589
     atom    6 type  1   force =     0.00000000   -0.00002700   -0.13774460
     atom    7 type  2   force =     0.00000000    0.00018951   -0.08400231
     atom    8 type  2   force =     0.00000000   -0.00018766   -0.08399974
     atom    9 type  1   force =     0.00000000    0.00002586   -0.13775407
     atom   10 type  1   force =     0.00000000   -0.00002243   -0.13774652
     atom   11 type  2   force =     0.00000000    0.00018464   -0.08400277
     atom   12 type  2   force =     0.00000000   -0.00018842   -0.08400061
     The ionic contribution  to forces
     atom    1 type  1   force =    -0.00000000    0.00000001   -0.90457207
     atom    2 type  1   force =     0.00000000    0.00000001   -0.90457207
     atom    3 type  2   force =    -0.00000000    0.00000001    0.90457207
     atom    4 type  2   force =     0.00000000    0.00000000    0.90457207
     atom    5 type  1   force =    -0.00000001    0.00000001   -0.90457208
     atom    6 type  1   force =     0.00000001   -0.00000001   -0.90457208
     atom    7 type  2   force =    -0.00000001    0.00000001    0.90457208
     atom    8 type  2   force =     0.00000001   -0.00000001    0.90457208
     atom    9 type  1   force =    -0.00000000   -0.00000001   -0.90457207
     atom   10 type  1   force =     0.00000000   -0.00000001   -0.90457207
     atom   11 type  2   force =    -0.00000000   -0.00000000    0.90457207
     atom   12 type  2   force =     0.00000000   -0.00000001    0.90457207
     The local contribution  to forces
     atom    1 type  1   force =    -0.00000004   -0.00004816    0.99026284
     atom    2 type  1   force =     0.00000000    0.00005309    0.99024124
     atom    3 type  2   force =    -0.00000001   -0.00018056   -0.78183215
     atom    4 type  2   force =     0.00000000    0.00018364   -0.78182451
     atom    5 type  1   force =    -0.00000008   -0.00004269    0.99026922
     atom    6 type  1   force =     0.00000008    0.00004682    0.99023767
     atom    7 type  2   force =    -0.00000002   -0.00018391   -0.78183059
     atom    8 type  2   force =     0.00000002    0.00018488   -0.78182369
     atom    9 type  1   force =     0.00000000   -0.00004555    0.99026401
     atom   10 type  1   force =     0.00000004    0.00003762    0.99024380
     atom   11 type  2   force =     0.00000000   -0.00018427   -0.78182981
     atom   12 type  2   force =     0.00000001    0.00018017   -0.78182229
     The core correction contribution to forces
     atom    1 type  1   force =    -0.00000001    0.00000407    0.01283617
     atom    2 type  1   force =    -0.00000000   -0.00000413    0.01283644
     atom    3 type  2   force =     0.00000000   -0.00000212    0.00048546
     atom    4 type  2   force =     0.00000000    0.00000211    0.00048546
     atom    5 type  1   force =    -0.00000001    0.00000406    0.01283605
     atom    6 type  1   force =     0.00000001   -0.00000393    0.01283647
     atom    7 type  2   force =     0.00000000   -0.00000217    0.00048548
     atom    8 type  2   force =    -0.00000000    0.00000214    0.00048546
     atom    9 type  1   force =     0.00000000    0.00000399    0.01283611
     atom   10 type  1   force =     0.00000001   -0.00000393    0.01283642
     atom   11 type  2   force =    -0.00000000   -0.00000211    0.00048549
     atom   12 type  2   force =    -0.00000000    0.00000215    0.00048547
     The Hubbard contrib.    to forces
     atom    1 type  1   force =     0.00000000    0.00000000    0.00000000
     atom    2 type  1   force =     0.00000000    0.00000000    0.00000000
     atom    3 type  2   force =     0.00000000    0.00000000    0.00000000
     atom    4 type  2   force =     0.00000000    0.00000000    0.00000000
     atom    5 type  1   force =     0.00000000    0.00000000    0.00000000
     atom    6 type  1   force =     0.00000000    0.00000000    0.00000000
     atom    7 type  2   force =     0.00000000    0.00000000    0.00000000
     atom    8 type  2   force =     0.00000000    0.00000000    0.00000000
     atom    9 type  1   force =     0.00000000    0.00000000    0.00000000
     atom   10 type  1   force =     0.00000000    0.00000000    0.00000000
     atom   11 type  2   force =     0.00000000    0.00000000    0.00000000
     atom   12 type  2   force =     0.00000000    0.00000000    0.00000000
     The SCF correction term to forces
     atom    1 type  1   force =     0.00000000    0.00000628   -0.00000551
     atom    2 type  1   force =    -0.00000000   -0.00001017    0.00002078
     atom    3 type  2   force =    -0.00000000   -0.00000015    0.00000218
     atom    4 type  2   force =    -0.00000000   -0.00000179   -0.00000352
     atom    5 type  1   force =     0.00000000   -0.00000435   -0.00001072
     atom    6 type  1   force =     0.00000000   -0.00000182    0.00002524
     atom    7 type  2   force =    -0.00000000   -0.00000162    0.00000091
     atom    8 type  2   force =     0.00000000   -0.00000265   -0.00000427
     atom    9 type  1   force =     0.00000000    0.00000154   -0.00000391
     atom   10 type  1   force =     0.00000000    0.00000773    0.00001799
     atom   11 type  2   force =     0.00000000    0.00000368    0.00000091
     atom   12 type  2   force =     0.00000000    0.00000329   -0.00000461

     Total force =     0.135885     Total SCF correction =     0.000043

     init_run     :     10.73s CPU     11.91s WALL (       1 calls)
     electrons    :    308.69s CPU    345.74s WALL (       1 calls)
     forces       :      3.79s CPU      4.68s WALL (       1 calls)

     Called by init_run:
     wfcinit      :      4.04s CPU      4.60s WALL (       1 calls)
     wfcinit:atom :      0.03s CPU      0.04s WALL (       4 calls)
     wfcinit:wfcr :      3.79s CPU      4.26s WALL (       4 calls)
     potinit      :      1.95s CPU      2.33s WALL (       1 calls)
     hinit0       :      4.42s CPU      4.61s WALL (       1 calls)

     Called by electrons:
     c_bands      :    267.12s CPU    299.34s WALL (      20 calls)
     sum_band     :     27.49s CPU     30.80s WALL (      20 calls)
     v_of_rho     :      8.06s CPU      9.01s WALL (      21 calls)
     v_h          :      0.43s CPU      0.45s WALL (      21 calls)
     v_xc         :      7.98s CPU      9.01s WALL (      22 calls)
     newd         :      4.31s CPU      4.80s WALL (      21 calls)
     mix_rho      :      1.10s CPU      1.28s WALL (      20 calls)

     Called by c_bands:
     init_us_2    :      1.71s CPU      2.02s WALL (     168 calls)
     init_us_2:cp :      1.70s CPU      2.02s WALL (     168 calls)
     cegterg      :    228.81s CPU    256.91s WALL (      80 calls)

     Called by sum_band:
     sum_band:wei :      0.04s CPU      0.06s WALL (      20 calls)
     sum_band:loo :     21.89s CPU     24.46s WALL (      20 calls)
     sum_band:buf :      0.20s CPU      0.26s WALL (      80 calls)
     sum_band:ini :      0.76s CPU      0.87s WALL (      80 calls)
     sum_band:cal :      4.44s CPU      4.95s WALL (      80 calls)
     sum_band:bec :      0.02s CPU      0.02s WALL (      80 calls)
     addusdens    :      2.97s CPU      3.17s WALL (      20 calls)
     addusd:skk   :      0.02s CPU      0.02s WALL (      40 calls)
     addusd:dgemm :      0.44s CPU      0.46s WALL (      40 calls)
     addusd:qvan2 :      1.45s CPU      1.50s WALL (      40 calls)

     Called by *egterg:
     cdiaghg      :      5.75s CPU      6.49s WALL (     544 calls)
     cegterg:over :     19.05s CPU     21.37s WALL (     464 calls)
     cegterg:upda :      9.78s CPU     11.27s WALL (     464 calls)
     cegterg:last :     23.50s CPU     26.77s WALL (     291 calls)
     h_psi        :    152.50s CPU    170.29s WALL (     548 calls)
     s_psi        :     15.89s CPU     18.09s WALL (     548 calls)
     g_psi        :      0.78s CPU      0.88s WALL (     464 calls)

     Called by h_psi:
     h_psi:calbec :     18.73s CPU     21.05s WALL (     548 calls)
     vloc_psi     :    116.88s CPU    130.50s WALL (     548 calls)
     add_vuspsi   :     16.20s CPU     17.93s WALL (     548 calls)

     General routines
     calbec       :     24.05s CPU     27.01s WALL (     644 calls)
     fft          :      5.06s CPU      5.43s WALL (     282 calls)
     ffts         :      0.59s CPU      0.66s WALL (      41 calls)
     fftw         :    113.67s CPU    127.58s WALL (   37846 calls)
     interpolate  :      0.92s CPU      0.98s WALL (      21 calls)

     Parallel routines

     PWSCF        :   5m23.80s CPU   6m 3.17s WALL


   This run was terminated on:  14:34:31  27Aug2025            

=------------------------------------------------------------------------------=
   JOB DONE.
=------------------------------------------------------------------------------=
