
     Program PWSCF v.7.0 starts on 27Aug2025 at 23:46:11 

     This program is part of the open-source Quantum ESPRESSO suite
     for quantum simulation of materials; please cite
         "P. Giannozzi et al., J. Phys.:Condens. Matter 21 395502 (2009);
         "P. Giannozzi et al., J. Phys.:Condens. Matter 29 465901 (2017);
         "P. Giannozzi et al., J. Chem. Phys. 152 154105 (2020);
          URL http://www.quantum-espresso.org", 
     in publications or presentations arising from this work. More details at
     http://www.quantum-espresso.org/quote

     Parallel version (MPI & OpenMP), running on      17 processor cores
     Number of MPI processes:                17
     Threads/MPI process:                     1

     MPI processes distributed on     1 nodes
     K-points division:     npool     =      17
     106937 MiB available memory on the printing compute node when the environment starts

     Reading input from /home/jvc/QEspresso7.2/ZnO_database/scripts/cell131.in/ZnO-3.40-1.61-131.in
Warning: card &CELL ignored
Warning: card / ignored
Warning: card &FCP ignored
Warning: card / ignored
Warning: card &RISM ignored
Warning: card / ignored

     Current dimensions of program PWSCF are:
     Max number of different atomic species (ntypx) = 10
     Max number of k-points (npk) =  40000
     Max angular momentum in pseudopotentials (lmaxx) =  4
     file Zn.upf: wavefunction(s)  3D renormalized
     Found identity + (  0.0000  0.3333  0.0000) symmetry
     This is a supercell, fractional translations are disabled
     Message from routine setup:
     using ibrav=0 with symmetry is DISCOURAGED, use correct ibrav instead

     Subspace diagonalization in iterative solution of the eigenvalue problem:
     a serial algorithm will be used


     G-vector sticks info
     --------------------
     sticks:   dense  smooth     PW     G-vecs:    dense   smooth      PW
     Sum        3431    1709    499               150369    53175    8587

     Using Slab Decomposition



     bravais-lattice index     =            0
     lattice parameter (alat)  =       6.4260  a.u.
     unit-cell volume          =    1112.9500 (a.u.)^3
     number of atoms/cell      =           12
     number of atomic types    =            2
     number of electrons       =       108.00
     number of Kohn-Sham states=           54
     kinetic-energy cutoff     =      50.0000  Ry
     charge density cutoff     =     400.0000  Ry
     scf convergence threshold =      1.0E-08
     mixing beta               =       0.3000
     number of iterations used =            8  plain     mixing
     Exchange-correlation= PBE
                           (   1   4   3   4   0   0   0)

     celldm(1)=   6.426008  celldm(2)=   0.000000  celldm(3)=   0.000000
     celldm(4)=   0.000000  celldm(5)=   0.000000  celldm(6)=   0.000000

     crystal axes: (cart. coord. in units of alat)
               a(1) = (   1.000000   0.000000   0.000000 )  
               a(2) = (  -1.500000   2.598076   0.000000 )  
               a(3) = (   0.000000   0.000000   1.614358 )  

     reciprocal axes: (cart. coord. in units 2 pi/alat)
               b(1) = (  1.000000  0.577350 -0.000000 )  
               b(2) = (  0.000000  0.384900  0.000000 )  
               b(3) = (  0.000000 -0.000000  0.619441 )  


     PseudoPot. # 1 for Zn read from file:
     /home/jvc/QEspresso7.2/ZnO_database/pseudos/Zn.upf
     MD5 check sum: 7f56cabf9682ed8c977c2f7d0c5985c5
     Pseudo is Ultrasoft + core correction, Zval = 12.0
     Generated using &quot;atomic&quot; code by A. Dal Corso  v.6.2.2
     Using radial grid of 1201 points,  6 beta functions with: 
                l(1) =   0
                l(2) =   0
                l(3) =   1
                l(4) =   1
                l(5) =   2
                l(6) =   2
     Q(r) pseudized with 0 coefficients 


     PseudoPot. # 2 for O  read from file:
     /home/jvc/QEspresso7.2/ZnO_database/pseudos/O.upf
     MD5 check sum: 91400c9766925bcf19f520983a725ff0
     Pseudo is Ultrasoft + core correction, Zval =  6.0
     Generated using &quot;atomic&quot; code by A. Dal Corso  v.6.3MaX
     Using radial grid of 1095 points,  4 beta functions with: 
                l(1) =   0
                l(2) =   0
                l(3) =   1
                l(4) =   1
     Q(r) pseudized with 0 coefficients 


     atomic species   valence    mass     pseudopotential
        Zn            12.00    65.38000     Zn( 1.00)
        O              6.00    15.99900     O ( 1.00)

      2 Sym. Ops. (no inversion) found


                                    s                        frac. trans.

      isym =  1     identity                                     

 cryst.   s( 1) = (     1          0          0      )
                  (     0          1          0      )
                  (     0          0          1      )

 cart.    s( 1) = (  1.0000000  0.0000000  0.0000000 )
                  (  0.0000000  1.0000000  0.0000000 )
                  (  0.0000000  0.0000000  1.0000000 )


      isym =  2     inv. 180 deg rotation - cart. axis [1,0,0]   

 cryst.   s( 2) = (    -1          0          0      )
                  (     3          1          0      )
                  (     0          0          1      )

 cart.    s( 2) = ( -1.0000000  0.0000000  0.0000000 )
                  (  0.0000000  1.0000000  0.0000000 )
                  (  0.0000000  0.0000000  1.0000000 )


   Cartesian axes

     site n.     atom                  positions (alat units)
         1           Zn  tau(   1) = (   0.5000000   0.2886751   0.8082020  )
         2           Zn  tau(   2) = (   0.0000000   0.5773503   0.0010228  )
         3           O   tau(   3) = (   0.5000000   0.2886751   1.4201130  )
         4           O   tau(   4) = (   0.0000000   0.5773503   0.6129338  )
         5           Zn  tau(   5) = (   0.0000000   1.1547005   0.8082020  )
         6           Zn  tau(   6) = (  -0.5000000   1.4433757   0.0010228  )
         7           O   tau(   7) = (   0.0000000   1.1547005   1.4201130  )
         8           O   tau(   8) = (  -0.5000000   1.4433757   0.6129338  )
         9           Zn  tau(   9) = (  -0.5000000   2.0207259   0.8082020  )
        10           Zn  tau(  10) = (  -1.0000000   2.3094011   0.0010228  )
        11           O   tau(  11) = (  -0.5000000   2.0207259   1.4201130  )
        12           O   tau(  12) = (  -1.0000000   2.3094011   0.6129338  )

   Crystallographic axes

     site n.     atom                  positions (cryst. coord.)
         1           Zn  tau(   1) = (  0.6666667  0.1111111  0.5006336  )
         2           Zn  tau(   2) = (  0.3333333  0.2222222  0.0006336  )
         3           O   tau(   3) = (  0.6666667  0.1111111  0.8796764  )
         4           O   tau(   4) = (  0.3333333  0.2222222  0.3796764  )
         5           Zn  tau(   5) = (  0.6666667  0.4444444  0.5006336  )
         6           Zn  tau(   6) = (  0.3333333  0.5555556  0.0006336  )
         7           O   tau(   7) = (  0.6666667  0.4444444  0.8796764  )
         8           O   tau(   8) = (  0.3333333  0.5555556  0.3796764  )
         9           Zn  tau(   9) = (  0.6666667  0.7777778  0.5006336  )
        10           Zn  tau(  10) = (  0.3333333  0.8888889  0.0006336  )
        11           O   tau(  11) = (  0.6666667  0.7777778  0.8796764  )
        12           O   tau(  12) = (  0.3333333  0.8888889  0.3796764  )

     number of k points=    68
                       cart. coord. in units 2pi/alat
        k(    1) = (   0.0000000   0.0000000   0.0000000), wk =   0.0092593
        k(    2) = (   0.0000000   0.0000000   0.1032402), wk =   0.0185185
        k(    3) = (   0.0000000   0.0000000   0.2064804), wk =   0.0185185
        k(    4) = (   0.0000000   0.0000000  -0.3097206), wk =   0.0092593
        k(    5) = (   0.0000000   0.0641500   0.0000000), wk =   0.0185185
        k(    6) = (   0.0000000   0.0641500   0.1032402), wk =   0.0185185
        k(    7) = (   0.0000000   0.0641500   0.2064804), wk =   0.0185185
        k(    8) = (   0.0000000   0.0641500  -0.3097206), wk =   0.0185185
        k(    9) = (   0.0000000   0.1283001   0.0000000), wk =   0.0185185
        k(   10) = (   0.0000000   0.1283001   0.1032402), wk =   0.0185185
        k(   11) = (   0.0000000   0.1283001   0.2064804), wk =   0.0185185
        k(   12) = (   0.0000000   0.1283001  -0.3097206), wk =   0.0185185
        k(   13) = (   0.0000000  -0.1924501   0.0000000), wk =   0.0092593
        k(   14) = (   0.0000000  -0.1924501   0.1032402), wk =   0.0185185
        k(   15) = (   0.0000000  -0.1924501   0.2064804), wk =   0.0185185
        k(   16) = (   0.0000000  -0.1924501  -0.3097206), wk =   0.0092593
        k(   17) = (   0.1666667   0.0962250   0.0000000), wk =   0.0370370
        k(   18) = (   0.1666667   0.0962250   0.1032402), wk =   0.0370370
        k(   19) = (   0.1666667   0.0962250   0.2064804), wk =   0.0370370
        k(   20) = (   0.1666667   0.0962250  -0.3097206), wk =   0.0370370
        k(   21) = (   0.1666667   0.1603751   0.0000000), wk =   0.0370370
        k(   22) = (   0.1666667   0.1603751   0.1032402), wk =   0.0370370
        k(   23) = (   0.1666667   0.1603751   0.2064804), wk =   0.0370370
        k(   24) = (   0.1666667   0.1603751  -0.3097206), wk =   0.0370370
        k(   25) = (   0.1666667  -0.0320750   0.0000000), wk =   0.0370370
        k(   26) = (   0.1666667  -0.0320750   0.1032402), wk =   0.0370370
        k(   27) = (   0.1666667  -0.0320750   0.2064804), wk =   0.0370370
        k(   28) = (   0.1666667  -0.0320750  -0.3097206), wk =   0.0370370
        k(   29) = (   0.3333333   0.1924501   0.0000000), wk =   0.0185185
        k(   30) = (   0.3333333   0.1924501   0.1032402), wk =   0.0370370
        k(   31) = (   0.3333333   0.1924501   0.2064804), wk =   0.0370370
        k(   32) = (   0.3333333   0.1924501  -0.3097206), wk =   0.0185185
        k(   33) = (   0.3333333   0.2566001   0.0000000), wk =   0.0370370
        k(   34) = (   0.3333333   0.2566001   0.1032402), wk =   0.0370370
        k(   35) = (   0.3333333   0.2566001   0.2064804), wk =   0.0370370
        k(   36) = (   0.3333333   0.2566001  -0.3097206), wk =   0.0370370
        k(   37) = (   0.3333333   0.3207501   0.0000000), wk =   0.0370370
        k(   38) = (   0.3333333   0.3207501   0.1032402), wk =   0.0370370
        k(   39) = (   0.3333333   0.3207501   0.2064804), wk =   0.0370370
        k(   40) = (   0.3333333   0.3207501  -0.3097206), wk =   0.0370370
        k(   41) = (   0.3333333  -0.0000000   0.0000000), wk =   0.0185185
        k(   42) = (   0.3333333  -0.0000000   0.1032402), wk =   0.0370370
        k(   43) = (   0.3333333  -0.0000000   0.2064804), wk =   0.0370370
        k(   44) = (   0.3333333  -0.0000000  -0.3097206), wk =   0.0185185
        k(   45) = (  -0.5000000  -0.2886751   0.0000000), wk =   0.0185185
        k(   46) = (  -0.5000000  -0.2886751   0.1032402), wk =   0.0370370
        k(   47) = (  -0.5000000  -0.2886751   0.2064804), wk =   0.0370370
        k(   48) = (  -0.5000000  -0.2886751  -0.3097206), wk =   0.0185185
        k(   49) = (  -0.5000000  -0.2245251   0.0000000), wk =   0.0370370
        k(   50) = (  -0.5000000  -0.2245251   0.1032402), wk =   0.0370370
        k(   51) = (  -0.5000000  -0.2245251   0.2064804), wk =   0.0370370
        k(   52) = (  -0.5000000  -0.2245251  -0.3097206), wk =   0.0370370
        k(   53) = (   0.0000000   0.0641500  -0.1032402), wk =   0.0185185
        k(   54) = (   0.0000000   0.0641500  -0.2064804), wk =   0.0185185
        k(   55) = (   0.0000000   0.1283001  -0.1032402), wk =   0.0185185
        k(   56) = (   0.0000000   0.1283001  -0.2064804), wk =   0.0185185
        k(   57) = (  -0.1666667   0.0962250  -0.1032402), wk =   0.0370370
        k(   58) = (  -0.1666667   0.0962250  -0.2064804), wk =   0.0370370
        k(   59) = (  -0.1666667   0.1603751  -0.1032402), wk =   0.0370370
        k(   60) = (  -0.1666667   0.1603751  -0.2064804), wk =   0.0370370
        k(   61) = (  -0.1666667  -0.0320750  -0.1032402), wk =   0.0370370
        k(   62) = (  -0.1666667  -0.0320750  -0.2064804), wk =   0.0370370
        k(   63) = (  -0.3333333   0.2566001  -0.1032402), wk =   0.0370370
        k(   64) = (  -0.3333333   0.2566001  -0.2064804), wk =   0.0370370
        k(   65) = (  -0.3333333   0.3207501  -0.1032402), wk =   0.0370370
        k(   66) = (  -0.3333333   0.3207501  -0.2064804), wk =   0.0370370
        k(   67) = (   0.5000000  -0.2245251  -0.1032402), wk =   0.0370370
        k(   68) = (   0.5000000  -0.2245251  -0.2064804), wk =   0.0370370

                       cryst. coord.
        k(    1) = (   0.0000000   0.0000000   0.0000000), wk =   0.0092593
        k(    2) = (   0.0000000   0.0000000   0.1666667), wk =   0.0185185
        k(    3) = (   0.0000000   0.0000000   0.3333333), wk =   0.0185185
        k(    4) = (   0.0000000   0.0000000  -0.5000000), wk =   0.0092593
        k(    5) = (   0.0000000   0.1666667   0.0000000), wk =   0.0185185
        k(    6) = (   0.0000000   0.1666667   0.1666667), wk =   0.0185185
        k(    7) = (   0.0000000   0.1666667   0.3333333), wk =   0.0185185
        k(    8) = (   0.0000000   0.1666667  -0.5000000), wk =   0.0185185
        k(    9) = (   0.0000000   0.3333333   0.0000000), wk =   0.0185185
        k(   10) = (   0.0000000   0.3333333   0.1666667), wk =   0.0185185
        k(   11) = (   0.0000000   0.3333333   0.3333333), wk =   0.0185185
        k(   12) = (   0.0000000   0.3333333  -0.5000000), wk =   0.0185185
        k(   13) = (   0.0000000  -0.5000000   0.0000000), wk =   0.0092593
        k(   14) = (   0.0000000  -0.5000000   0.1666667), wk =   0.0185185
        k(   15) = (   0.0000000  -0.5000000   0.3333333), wk =   0.0185185
        k(   16) = (   0.0000000  -0.5000000  -0.5000000), wk =   0.0092593
        k(   17) = (   0.1666667   0.0000000   0.0000000), wk =   0.0370370
        k(   18) = (   0.1666667   0.0000000   0.1666667), wk =   0.0370370
        k(   19) = (   0.1666667   0.0000000   0.3333333), wk =   0.0370370
        k(   20) = (   0.1666667   0.0000000  -0.5000000), wk =   0.0370370
        k(   21) = (   0.1666667   0.1666667   0.0000000), wk =   0.0370370
        k(   22) = (   0.1666667   0.1666667   0.1666667), wk =   0.0370370
        k(   23) = (   0.1666667   0.1666667   0.3333333), wk =   0.0370370
        k(   24) = (   0.1666667   0.1666667  -0.5000000), wk =   0.0370370
        k(   25) = (   0.1666667  -0.3333333   0.0000000), wk =   0.0370370
        k(   26) = (   0.1666667  -0.3333333   0.1666667), wk =   0.0370370
        k(   27) = (   0.1666667  -0.3333333   0.3333333), wk =   0.0370370
        k(   28) = (   0.1666667  -0.3333333  -0.5000000), wk =   0.0370370
        k(   29) = (   0.3333333   0.0000000   0.0000000), wk =   0.0185185
        k(   30) = (   0.3333333   0.0000000   0.1666667), wk =   0.0370370
        k(   31) = (   0.3333333   0.0000000   0.3333333), wk =   0.0370370
        k(   32) = (   0.3333333   0.0000000  -0.5000000), wk =   0.0185185
        k(   33) = (   0.3333333   0.1666667   0.0000000), wk =   0.0370370
        k(   34) = (   0.3333333   0.1666667   0.1666667), wk =   0.0370370
        k(   35) = (   0.3333333   0.1666667   0.3333333), wk =   0.0370370
        k(   36) = (   0.3333333   0.1666667  -0.5000000), wk =   0.0370370
        k(   37) = (   0.3333333   0.3333333   0.0000000), wk =   0.0370370
        k(   38) = (   0.3333333   0.3333333   0.1666667), wk =   0.0370370
        k(   39) = (   0.3333333   0.3333333   0.3333333), wk =   0.0370370
        k(   40) = (   0.3333333   0.3333333  -0.5000000), wk =   0.0370370
        k(   41) = (   0.3333333  -0.5000000   0.0000000), wk =   0.0185185
        k(   42) = (   0.3333333  -0.5000000   0.1666667), wk =   0.0370370
        k(   43) = (   0.3333333  -0.5000000   0.3333333), wk =   0.0370370
        k(   44) = (   0.3333333  -0.5000000  -0.5000000), wk =   0.0185185
        k(   45) = (  -0.5000000   0.0000000   0.0000000), wk =   0.0185185
        k(   46) = (  -0.5000000   0.0000000   0.1666667), wk =   0.0370370
        k(   47) = (  -0.5000000   0.0000000   0.3333333), wk =   0.0370370
        k(   48) = (  -0.5000000   0.0000000  -0.5000000), wk =   0.0185185
        k(   49) = (  -0.5000000   0.1666667   0.0000000), wk =   0.0370370
        k(   50) = (  -0.5000000   0.1666667   0.1666667), wk =   0.0370370
        k(   51) = (  -0.5000000   0.1666667   0.3333333), wk =   0.0370370
        k(   52) = (  -0.5000000   0.1666667  -0.5000000), wk =   0.0370370
        k(   53) = (   0.0000000   0.1666667  -0.1666667), wk =   0.0185185
        k(   54) = (   0.0000000   0.1666667  -0.3333333), wk =   0.0185185
        k(   55) = (   0.0000000   0.3333333  -0.1666667), wk =   0.0185185
        k(   56) = (   0.0000000   0.3333333  -0.3333333), wk =   0.0185185
        k(   57) = (  -0.1666667   0.5000000  -0.1666667), wk =   0.0370370
        k(   58) = (  -0.1666667   0.5000000  -0.3333333), wk =   0.0370370
        k(   59) = (  -0.1666667   0.6666667  -0.1666667), wk =   0.0370370
        k(   60) = (  -0.1666667   0.6666667  -0.3333333), wk =   0.0370370
        k(   61) = (  -0.1666667   0.1666667  -0.1666667), wk =   0.0370370
        k(   62) = (  -0.1666667   0.1666667  -0.3333333), wk =   0.0370370
        k(   63) = (  -0.3333333   1.1666667  -0.1666667), wk =   0.0370370
        k(   64) = (  -0.3333333   1.1666667  -0.3333333), wk =   0.0370370
        k(   65) = (  -0.3333333   1.3333333  -0.1666667), wk =   0.0370370
        k(   66) = (  -0.3333333   1.3333333  -0.3333333), wk =   0.0370370
        k(   67) = (   0.5000000  -1.3333333  -0.1666667), wk =   0.0370370
        k(   68) = (   0.5000000  -1.3333333  -0.3333333), wk =   0.0370370

     Dense  grid:   150369 G-vectors     FFT dimensions: (  45, 125,  72)

     Smooth grid:    53175 G-vectors     FFT dimensions: (  30,  90,  48)

     Dynamical RAM for                 wfc:       5.48 MB

     Dynamical RAM for     wfc (w. buffer):      27.38 MB

     Dynamical RAM for           str. fact:       4.59 MB

     Dynamical RAM for           local pot:       0.00 MB

     Dynamical RAM for          nlocal pot:      15.82 MB

     Dynamical RAM for                qrad:       3.21 MB

     Dynamical RAM for          rho,v,vnew:      16.15 MB

     Dynamical RAM for               rhoin:       5.38 MB

     Dynamical RAM for            rho*nmix:      36.71 MB

     Dynamical RAM for           G-vectors:       9.01 MB

     Dynamical RAM for          h,s,v(r/c):       0.53 MB

     Dynamical RAM for          <psi|beta>:       0.13 MB

     Dynamical RAM for                 psi:      10.95 MB

     Dynamical RAM for                hpsi:      10.95 MB

     Dynamical RAM for                spsi:      10.95 MB

     Dynamical RAM for      wfcinit/wfcrot:      15.96 MB

     Dynamical RAM for           addusdens:      28.07 MB

     Dynamical RAM for          addusforce:      28.43 MB

     Estimated static dynamical RAM per process >     103.87 MB

     Estimated max dynamical RAM per process >     174.10 MB

     Estimated total dynamical RAM >       2.32 GB

     Check: negative core charge=   -0.000002

     Initial potential from superposition of free atoms

     starting charge     107.9776, renormalised to     108.0000
     Starting wfcs are   78 randomized atomic wfcs

     total cpu time spent up to now is       15.1 secs

     per-process dynamical memory:   130.5 Mb

     Self-consistent Calculation

     iteration #  1     ecut=    50.00 Ry     beta= 0.30
     Davidson diagonalization with overlap

---- Real-time Memory Report at c_bands before calling an iterative solver
           150 MiB given to the printing process from OS
           127 MiB allocation reported by mallinfo(arena+hblkhd)
        105066 MiB available memory on the node where the printing process lives
------------------
     ethr =  1.00E-02,  avg # of iterations =  1.8

     total cpu time spent up to now is       29.0 secs

     total energy              =   -1084.34079327 Ry
     estimated scf accuracy    <       2.22206218 Ry

     iteration #  2     ecut=    50.00 Ry     beta= 0.30
     Davidson diagonalization with overlap

---- Real-time Memory Report at c_bands before calling an iterative solver
           205 MiB given to the printing process from OS
           181 MiB allocation reported by mallinfo(arena+hblkhd)
        104530 MiB available memory on the node where the printing process lives
------------------
     ethr =  2.06E-03,  avg # of iterations =  2.1

     total cpu time spent up to now is       45.5 secs

     total energy              =   -1084.69713908 Ry
     estimated scf accuracy    <       0.24275103 Ry

     iteration #  3     ecut=    50.00 Ry     beta= 0.30
     Davidson diagonalization with overlap

---- Real-time Memory Report at c_bands before calling an iterative solver
           206 MiB given to the printing process from OS
           183 MiB allocation reported by mallinfo(arena+hblkhd)
        104623 MiB available memory on the node where the printing process lives
------------------
     ethr =  2.25E-04,  avg # of iterations =  7.2

     total cpu time spent up to now is       70.4 secs

     total energy              =   -1084.75712130 Ry
     estimated scf accuracy    <       0.21978764 Ry

     iteration #  4     ecut=    50.00 Ry     beta= 0.30
     Davidson diagonalization with overlap

---- Real-time Memory Report at c_bands before calling an iterative solver
           208 MiB given to the printing process from OS
           185 MiB allocation reported by mallinfo(arena+hblkhd)
        104685 MiB available memory on the node where the printing process lives
------------------
     ethr =  2.04E-04,  avg # of iterations =  9.8

     total cpu time spent up to now is      103.1 secs

     total energy              =   -1084.93732987 Ry
     estimated scf accuracy    <       1.08531978 Ry

     iteration #  5     ecut=    50.00 Ry     beta= 0.30
     Davidson diagonalization with overlap

---- Real-time Memory Report at c_bands before calling an iterative solver
           210 MiB given to the printing process from OS
           186 MiB allocation reported by mallinfo(arena+hblkhd)
        104623 MiB available memory on the node where the printing process lives
------------------
     ethr =  2.04E-04,  avg # of iterations =  2.0

     total cpu time spent up to now is      117.2 secs

     total energy              =   -1085.27846624 Ry
     estimated scf accuracy    <       0.68293361 Ry

     iteration #  6     ecut=    50.00 Ry     beta= 0.30
     Davidson diagonalization with overlap

---- Real-time Memory Report at c_bands before calling an iterative solver
           211 MiB given to the printing process from OS
           188 MiB allocation reported by mallinfo(arena+hblkhd)
        104699 MiB available memory on the node where the printing process lives
------------------
     ethr =  2.04E-04,  avg # of iterations =  2.0

     total cpu time spent up to now is      131.2 secs

     total energy              =   -1084.40987274 Ry
     estimated scf accuracy    <       1.29756202 Ry

     iteration #  7     ecut=    50.00 Ry     beta= 0.30
     Davidson diagonalization with overlap

---- Real-time Memory Report at c_bands before calling an iterative solver
           213 MiB given to the printing process from OS
           190 MiB allocation reported by mallinfo(arena+hblkhd)
        104597 MiB available memory on the node where the printing process lives
------------------
     ethr =  2.04E-04,  avg # of iterations = 10.0

     total cpu time spent up to now is      159.6 secs

     total energy              =   -1084.93018643 Ry
     estimated scf accuracy    <       0.72404055 Ry

     iteration #  8     ecut=    50.00 Ry     beta= 0.30
     Davidson diagonalization with overlap

---- Real-time Memory Report at c_bands before calling an iterative solver
           214 MiB given to the printing process from OS
           191 MiB allocation reported by mallinfo(arena+hblkhd)
        104658 MiB available memory on the node where the printing process lives
------------------
     ethr =  2.04E-04,  avg # of iterations =  1.1

     total cpu time spent up to now is      172.6 secs

     total energy              =   -1084.94157144 Ry
     estimated scf accuracy    <       0.49586290 Ry

     iteration #  9     ecut=    50.00 Ry     beta= 0.30
     Davidson diagonalization with overlap

---- Real-time Memory Report at c_bands before calling an iterative solver
           216 MiB given to the printing process from OS
           193 MiB allocation reported by mallinfo(arena+hblkhd)
        104645 MiB available memory on the node where the printing process lives
------------------
     ethr =  2.04E-04,  avg # of iterations =  1.0

     total cpu time spent up to now is      185.6 secs

     total energy              =   -1085.16705361 Ry
     estimated scf accuracy    <       0.49871645 Ry

     iteration # 10     ecut=    50.00 Ry     beta= 0.30
     Davidson diagonalization with overlap

---- Real-time Memory Report at c_bands before calling an iterative solver
           218 MiB given to the printing process from OS
           194 MiB allocation reported by mallinfo(arena+hblkhd)
        104694 MiB available memory on the node where the printing process lives
------------------
     ethr =  2.04E-04,  avg # of iterations =  2.0

     total cpu time spent up to now is      199.8 secs

     total energy              =   -1085.00866884 Ry
     estimated scf accuracy    <       0.93762461 Ry

     iteration # 11     ecut=    50.00 Ry     beta= 0.30
     Davidson diagonalization with overlap

---- Real-time Memory Report at c_bands before calling an iterative solver
           218 MiB given to the printing process from OS
           194 MiB allocation reported by mallinfo(arena+hblkhd)
        104645 MiB available memory on the node where the printing process lives
------------------
     ethr =  2.04E-04,  avg # of iterations =  1.0

     total cpu time spent up to now is      212.7 secs

     total energy              =   -1084.86972624 Ry
     estimated scf accuracy    <       0.65707276 Ry

     iteration # 12     ecut=    50.00 Ry     beta= 0.30
     Davidson diagonalization with overlap

---- Real-time Memory Report at c_bands before calling an iterative solver
           218 MiB given to the printing process from OS
           194 MiB allocation reported by mallinfo(arena+hblkhd)
        104268 MiB available memory on the node where the printing process lives
------------------
     ethr =  2.04E-04,  avg # of iterations =  2.0

     total cpu time spent up to now is      226.6 secs

     total energy              =   -1084.89366789 Ry
     estimated scf accuracy    <       0.37891604 Ry

     iteration # 13     ecut=    50.00 Ry     beta= 0.30
     Davidson diagonalization with overlap

---- Real-time Memory Report at c_bands before calling an iterative solver
           218 MiB given to the printing process from OS
           194 MiB allocation reported by mallinfo(arena+hblkhd)
        104704 MiB available memory on the node where the printing process lives
------------------
     ethr =  2.04E-04,  avg # of iterations =  1.0

     total cpu time spent up to now is      239.5 secs

     total energy              =   -1084.92261878 Ry
     estimated scf accuracy    <       0.37665520 Ry

     iteration # 14     ecut=    50.00 Ry     beta= 0.30
     Davidson diagonalization with overlap

---- Real-time Memory Report at c_bands before calling an iterative solver
           218 MiB given to the printing process from OS
           194 MiB allocation reported by mallinfo(arena+hblkhd)
        104718 MiB available memory on the node where the printing process lives
------------------
     ethr =  2.04E-04,  avg # of iterations =  1.0

     total cpu time spent up to now is      252.4 secs

     total energy              =   -1084.73734617 Ry
     estimated scf accuracy    <       0.35715326 Ry

     iteration # 15     ecut=    50.00 Ry     beta= 0.30
     Davidson diagonalization with overlap

---- Real-time Memory Report at c_bands before calling an iterative solver
           218 MiB given to the printing process from OS
           194 MiB allocation reported by mallinfo(arena+hblkhd)
        104642 MiB available memory on the node where the printing process lives
------------------
     ethr =  2.04E-04,  avg # of iterations =  6.6

     total cpu time spent up to now is      276.2 secs

     total energy              =   -1084.89479291 Ry
     estimated scf accuracy    <       0.04884325 Ry

     iteration # 16     ecut=    50.00 Ry     beta= 0.30
     Davidson diagonalization with overlap

---- Real-time Memory Report at c_bands before calling an iterative solver
           218 MiB given to the printing process from OS
           194 MiB allocation reported by mallinfo(arena+hblkhd)
        104498 MiB available memory on the node where the printing process lives
------------------
     ethr =  4.52E-05,  avg # of iterations =  5.6

     total cpu time spent up to now is      289.6 secs

     total energy              =   -1084.85131476 Ry
     estimated scf accuracy    <       0.13206472 Ry

     iteration # 17     ecut=    50.00 Ry     beta= 0.30
     Davidson diagonalization with overlap

---- Real-time Memory Report at c_bands before calling an iterative solver
           218 MiB given to the printing process from OS
           194 MiB allocation reported by mallinfo(arena+hblkhd)
        105102 MiB available memory on the node where the printing process lives
------------------
     ethr =  4.52E-05,  avg # of iterations =  5.1

     total cpu time spent up to now is      304.1 secs

     total energy              =   -1084.84228744 Ry
     estimated scf accuracy    <       0.02396583 Ry

     iteration # 18     ecut=    50.00 Ry     beta= 0.30
     Davidson diagonalization with overlap

---- Real-time Memory Report at c_bands before calling an iterative solver
           218 MiB given to the printing process from OS
           194 MiB allocation reported by mallinfo(arena+hblkhd)
        104428 MiB available memory on the node where the printing process lives
------------------
     ethr =  2.22E-05,  avg # of iterations = 11.3

     total cpu time spent up to now is      333.3 secs

     total energy              =   -1084.88064738 Ry
     estimated scf accuracy    <       0.24201445 Ry

     iteration # 19     ecut=    50.00 Ry     beta= 0.30
     Davidson diagonalization with overlap

---- Real-time Memory Report at c_bands before calling an iterative solver
           218 MiB given to the printing process from OS
           194 MiB allocation reported by mallinfo(arena+hblkhd)
        104608 MiB available memory on the node where the printing process lives
------------------
     ethr =  2.22E-05,  avg # of iterations =  2.1

     total cpu time spent up to now is      345.1 secs

     total energy              =   -1084.84702926 Ry
     estimated scf accuracy    <       0.15954075 Ry

     iteration # 20     ecut=    50.00 Ry     beta= 0.30
     Davidson diagonalization with overlap

---- Real-time Memory Report at c_bands before calling an iterative solver
           218 MiB given to the printing process from OS
           194 MiB allocation reported by mallinfo(arena+hblkhd)
        104604 MiB available memory on the node where the printing process lives
------------------
     ethr =  2.22E-05,  avg # of iterations =  7.0

     total cpu time spent up to now is      364.7 secs

     total energy              =   -1084.86330815 Ry
     estimated scf accuracy    <       0.01505055 Ry

     iteration # 21     ecut=    50.00 Ry     beta= 0.30
     Davidson diagonalization with overlap

---- Real-time Memory Report at c_bands before calling an iterative solver
           218 MiB given to the printing process from OS
           194 MiB allocation reported by mallinfo(arena+hblkhd)
        104619 MiB available memory on the node where the printing process lives
------------------
     ethr =  1.39E-05,  avg # of iterations =  2.2

     total cpu time spent up to now is      375.4 secs

     total energy              =   -1084.85984983 Ry
     estimated scf accuracy    <       0.00744913 Ry

     iteration # 22     ecut=    50.00 Ry     beta= 0.30
     Davidson diagonalization with overlap

---- Real-time Memory Report at c_bands before calling an iterative solver
           218 MiB given to the printing process from OS
           194 MiB allocation reported by mallinfo(arena+hblkhd)
        104590 MiB available memory on the node where the printing process lives
------------------
     ethr =  6.90E-06,  avg # of iterations =  7.8

     total cpu time spent up to now is      395.4 secs

     total energy              =   -1084.86522104 Ry
     estimated scf accuracy    <       0.00422918 Ry

     iteration # 23     ecut=    50.00 Ry     beta= 0.30
     Davidson diagonalization with overlap

---- Real-time Memory Report at c_bands before calling an iterative solver
           218 MiB given to the printing process from OS
           194 MiB allocation reported by mallinfo(arena+hblkhd)
        104638 MiB available memory on the node where the printing process lives
------------------
     ethr =  3.92E-06,  avg # of iterations =  1.5

     total cpu time spent up to now is      406.0 secs

     total energy              =   -1084.86466702 Ry
     estimated scf accuracy    <       0.00366804 Ry

     iteration # 24     ecut=    50.00 Ry     beta= 0.30
     Davidson diagonalization with overlap

---- Real-time Memory Report at c_bands before calling an iterative solver
           218 MiB given to the printing process from OS
           194 MiB allocation reported by mallinfo(arena+hblkhd)
        104653 MiB available memory on the node where the printing process lives
------------------
     ethr =  3.40E-06,  avg # of iterations =  1.0

     total cpu time spent up to now is      416.0 secs

     total energy              =   -1084.86481811 Ry
     estimated scf accuracy    <       0.00233218 Ry

     iteration # 25     ecut=    50.00 Ry     beta= 0.30
     Davidson diagonalization with overlap

---- Real-time Memory Report at c_bands before calling an iterative solver
           218 MiB given to the printing process from OS
           194 MiB allocation reported by mallinfo(arena+hblkhd)
        104587 MiB available memory on the node where the printing process lives
------------------
     ethr =  2.16E-06,  avg # of iterations =  1.0

     total cpu time spent up to now is      425.8 secs

     total energy              =   -1084.86408486 Ry
     estimated scf accuracy    <       0.00251748 Ry

     iteration # 26     ecut=    50.00 Ry     beta= 0.30
     Davidson diagonalization with overlap

---- Real-time Memory Report at c_bands before calling an iterative solver
           218 MiB given to the printing process from OS
           194 MiB allocation reported by mallinfo(arena+hblkhd)
        104514 MiB available memory on the node where the printing process lives
------------------
     ethr =  2.16E-06,  avg # of iterations =  1.0

     total cpu time spent up to now is      435.7 secs

     total energy              =   -1084.86395398 Ry
     estimated scf accuracy    <       0.00104575 Ry

     iteration # 27     ecut=    50.00 Ry     beta= 0.30
     Davidson diagonalization with overlap

---- Real-time Memory Report at c_bands before calling an iterative solver
           218 MiB given to the printing process from OS
           194 MiB allocation reported by mallinfo(arena+hblkhd)
        104335 MiB available memory on the node where the printing process lives
------------------
     ethr =  9.68E-07,  avg # of iterations =  5.0

     total cpu time spent up to now is      451.9 secs

     total energy              =   -1084.86451603 Ry
     estimated scf accuracy    <       0.00003225 Ry

     iteration # 28     ecut=    50.00 Ry     beta= 0.30
     Davidson diagonalization with overlap

---- Real-time Memory Report at c_bands before calling an iterative solver
           218 MiB given to the printing process from OS
           194 MiB allocation reported by mallinfo(arena+hblkhd)
        104601 MiB available memory on the node where the printing process lives
------------------
     ethr =  2.99E-08,  avg # of iterations = 14.2

     total cpu time spent up to now is      492.6 secs

     total energy              =   -1084.86442978 Ry
     estimated scf accuracy    <       0.00276897 Ry

     iteration # 29     ecut=    50.00 Ry     beta= 0.30
     Davidson diagonalization with overlap

---- Real-time Memory Report at c_bands before calling an iterative solver
           218 MiB given to the printing process from OS
           194 MiB allocation reported by mallinfo(arena+hblkhd)
        104595 MiB available memory on the node where the printing process lives
------------------
     ethr =  2.99E-08,  avg # of iterations = 11.1

     total cpu time spent up to now is      523.8 secs

     total energy              =   -1084.86441258 Ry
     estimated scf accuracy    <       0.00069645 Ry

     iteration # 30     ecut=    50.00 Ry     beta= 0.30
     Davidson diagonalization with overlap

---- Real-time Memory Report at c_bands before calling an iterative solver
           218 MiB given to the printing process from OS
           194 MiB allocation reported by mallinfo(arena+hblkhd)
        104651 MiB available memory on the node where the printing process lives
------------------
     ethr =  2.99E-08,  avg # of iterations =  6.9

     total cpu time spent up to now is      542.8 secs

     total energy              =   -1084.86441235 Ry
     estimated scf accuracy    <       0.00021575 Ry

     iteration # 31     ecut=    50.00 Ry     beta= 0.30
     Davidson diagonalization with overlap

---- Real-time Memory Report at c_bands before calling an iterative solver
           218 MiB given to the printing process from OS
           194 MiB allocation reported by mallinfo(arena+hblkhd)
        104636 MiB available memory on the node where the printing process lives
------------------
     ethr =  2.99E-08,  avg # of iterations =  2.5

     total cpu time spent up to now is      553.9 secs

     total energy              =   -1084.86449199 Ry
     estimated scf accuracy    <       0.00015342 Ry

     iteration # 32     ecut=    50.00 Ry     beta= 0.30
     Davidson diagonalization with overlap

---- Real-time Memory Report at c_bands before calling an iterative solver
           218 MiB given to the printing process from OS
           194 MiB allocation reported by mallinfo(arena+hblkhd)
        104640 MiB available memory on the node where the printing process lives
------------------
     ethr =  2.99E-08,  avg # of iterations =  4.6

     total cpu time spent up to now is      569.2 secs

     total energy              =   -1084.86450913 Ry
     estimated scf accuracy    <       0.00041692 Ry

     iteration # 33     ecut=    50.00 Ry     beta= 0.30
     Davidson diagonalization with overlap

---- Real-time Memory Report at c_bands before calling an iterative solver
           218 MiB given to the printing process from OS
           194 MiB allocation reported by mallinfo(arena+hblkhd)
        104656 MiB available memory on the node where the printing process lives
------------------
     ethr =  2.99E-08,  avg # of iterations =  1.9

     total cpu time spent up to now is      580.2 secs

     total energy              =   -1084.86429290 Ry
     estimated scf accuracy    <       0.00044552 Ry

     iteration # 34     ecut=    50.00 Ry     beta= 0.30
     Davidson diagonalization with overlap

---- Real-time Memory Report at c_bands before calling an iterative solver
           218 MiB given to the printing process from OS
           194 MiB allocation reported by mallinfo(arena+hblkhd)
        104616 MiB available memory on the node where the printing process lives
------------------
     ethr =  2.99E-08,  avg # of iterations = 11.2

     total cpu time spent up to now is      611.3 secs

     total energy              =   -1084.86440465 Ry
     estimated scf accuracy    <       0.00002818 Ry

     iteration # 35     ecut=    50.00 Ry     beta= 0.30
     Davidson diagonalization with overlap

---- Real-time Memory Report at c_bands before calling an iterative solver
           218 MiB given to the printing process from OS
           194 MiB allocation reported by mallinfo(arena+hblkhd)
        104660 MiB available memory on the node where the printing process lives
------------------
     ethr =  2.61E-08,  avg # of iterations =  1.7

     total cpu time spent up to now is      621.8 secs

     total energy              =   -1084.86439739 Ry
     estimated scf accuracy    <       0.00002770 Ry

     iteration # 36     ecut=    50.00 Ry     beta= 0.30
     Davidson diagonalization with overlap

---- Real-time Memory Report at c_bands before calling an iterative solver
           218 MiB given to the printing process from OS
           194 MiB allocation reported by mallinfo(arena+hblkhd)
        104611 MiB available memory on the node where the printing process lives
------------------
     ethr =  2.56E-08,  avg # of iterations =  2.0

     total cpu time spent up to now is      632.8 secs

     total energy              =   -1084.86439657 Ry
     estimated scf accuracy    <       0.00001224 Ry

     iteration # 37     ecut=    50.00 Ry     beta= 0.30
     Davidson diagonalization with overlap

---- Real-time Memory Report at c_bands before calling an iterative solver
           218 MiB given to the printing process from OS
           194 MiB allocation reported by mallinfo(arena+hblkhd)
        104358 MiB available memory on the node where the printing process lives
------------------
     ethr =  1.13E-08,  avg # of iterations =  2.0

     total cpu time spent up to now is      644.3 secs

     total energy              =   -1084.86439587 Ry
     estimated scf accuracy    <       0.00000450 Ry

     iteration # 38     ecut=    50.00 Ry     beta= 0.30
     Davidson diagonalization with overlap

---- Real-time Memory Report at c_bands before calling an iterative solver
           218 MiB given to the printing process from OS
           194 MiB allocation reported by mallinfo(arena+hblkhd)
        104644 MiB available memory on the node where the printing process lives
------------------
     ethr =  4.16E-09,  avg # of iterations =  5.3

     total cpu time spent up to now is      661.7 secs

     total energy              =   -1084.86439764 Ry
     estimated scf accuracy    <       0.00000051 Ry

     iteration # 39     ecut=    50.00 Ry     beta= 0.30
     Davidson diagonalization with overlap

---- Real-time Memory Report at c_bands before calling an iterative solver
           218 MiB given to the printing process from OS
           194 MiB allocation reported by mallinfo(arena+hblkhd)
        104612 MiB available memory on the node where the printing process lives
------------------
     ethr =  4.76E-10,  avg # of iterations =  6.2

     total cpu time spent up to now is      681.1 secs

     total energy              =   -1084.86439822 Ry
     estimated scf accuracy    <       0.00000056 Ry

     iteration # 40     ecut=    50.00 Ry     beta= 0.30
     Davidson diagonalization with overlap

---- Real-time Memory Report at c_bands before calling an iterative solver
           218 MiB given to the printing process from OS
           194 MiB allocation reported by mallinfo(arena+hblkhd)
        104651 MiB available memory on the node where the printing process lives
------------------
     ethr =  4.76E-10,  avg # of iterations =  5.1

     total cpu time spent up to now is      697.3 secs

     total energy              =   -1084.86439745 Ry
     estimated scf accuracy    <       0.00000210 Ry

     iteration # 41     ecut=    50.00 Ry     beta= 0.30
     Davidson diagonalization with overlap

---- Real-time Memory Report at c_bands before calling an iterative solver
           218 MiB given to the printing process from OS
           194 MiB allocation reported by mallinfo(arena+hblkhd)
        104594 MiB available memory on the node where the printing process lives
------------------
     ethr =  4.76E-10,  avg # of iterations =  6.4

     total cpu time spent up to now is      716.7 secs

     total energy              =   -1084.86439783 Ry
     estimated scf accuracy    <       0.00000005 Ry

     iteration # 42     ecut=    50.00 Ry     beta= 0.30
     Davidson diagonalization with overlap

---- Real-time Memory Report at c_bands before calling an iterative solver
           218 MiB given to the printing process from OS
           194 MiB allocation reported by mallinfo(arena+hblkhd)
        104579 MiB available memory on the node where the printing process lives
------------------
     ethr =  5.09E-11,  avg # of iterations =  8.1

     total cpu time spent up to now is      737.2 secs

     total energy              =   -1084.86439784 Ry
     estimated scf accuracy    <       0.00000012 Ry

     iteration # 43     ecut=    50.00 Ry     beta= 0.30
     Davidson diagonalization with overlap

---- Real-time Memory Report at c_bands before calling an iterative solver
           218 MiB given to the printing process from OS
           194 MiB allocation reported by mallinfo(arena+hblkhd)
        104601 MiB available memory on the node where the printing process lives
------------------
     ethr =  5.09E-11,  avg # of iterations =  2.6

     total cpu time spent up to now is      749.1 secs

     total energy              =   -1084.86439784 Ry
     estimated scf accuracy    <       0.00000005 Ry

     iteration # 44     ecut=    50.00 Ry     beta= 0.30
     Davidson diagonalization with overlap

---- Real-time Memory Report at c_bands before calling an iterative solver
           218 MiB given to the printing process from OS
           194 MiB allocation reported by mallinfo(arena+hblkhd)
        104623 MiB available memory on the node where the printing process lives
------------------
     ethr =  4.26E-11,  avg # of iterations =  2.4

     total cpu time spent up to now is      760.7 secs

     total energy              =   -1084.86439784 Ry
     estimated scf accuracy    <       0.00000002 Ry

     iteration # 45     ecut=    50.00 Ry     beta= 0.30
     Davidson diagonalization with overlap

---- Real-time Memory Report at c_bands before calling an iterative solver
           218 MiB given to the printing process from OS
           194 MiB allocation reported by mallinfo(arena+hblkhd)
        104574 MiB available memory on the node where the printing process lives
------------------
     ethr =  2.17E-11,  avg # of iterations =  5.7

     total cpu time spent up to now is      775.9 secs

     End of self-consistent calculation

          k = 0.0000 0.0000 0.0000 (  6645 PWs)   bands (ev):

   -11.7733 -11.4246 -11.4246 -11.2503 -11.1263 -11.1263   0.0193   0.0193
     0.1475   0.1478   0.1749   0.2623   0.2623   0.2957   0.2959   0.3095
     0.3095   0.5113   0.5113   0.6122   0.6138   0.6138   0.7621   0.7621
     0.9170   0.9170   0.9478   0.9479   1.0028   1.0028   1.0967   1.0967
     1.1191   1.1191   1.2895   1.2895   1.3730   1.8127   1.8127   2.4749
     2.4749   3.1776   3.1776   3.7818   3.7819   4.6208   4.6208   4.6415
     4.6420   4.7929   4.7929   5.2295   5.2789   5.2795

     occupation numbers 
     1.0000   1.0000   1.0000   1.0000   1.0000   1.0000   1.0000   1.0000
     1.0000   1.0000   1.0000   1.0000   1.0000   1.0000   1.0000   1.0000
     1.0000   1.0000   1.0000   1.0000   1.0000   1.0000   1.0000   1.0000
     1.0000   1.0000   1.0000   1.0000   1.0000   1.0000   1.0000   1.0000
     1.0000   1.0000   1.0000   1.0000   1.0000   1.0000   1.0000   1.0000
     1.0000   1.0000   1.0000   1.0000   1.0000   1.0000   1.0000   1.0000
     1.0000   1.0000   1.0000   1.0000   1.0000   1.0000

          k = 0.0000 0.0000 0.1032 (  6675 PWs)   bands (ev):

   -11.7396 -11.4041 -11.4041 -11.2867 -11.1456 -11.1456  -0.0006  -0.0006
     0.1484   0.1527   0.1529   0.2142   0.2142   0.2808   0.2810   0.3260
     0.3260   0.4073   0.4931   0.4931   0.5889   0.5889   0.6619   0.6619
     0.9314   0.9314   0.9610   0.9610   1.0096   1.0096   1.0907   1.0907
     1.1094   1.1094   1.2263   1.2263   1.7323   1.9751   1.9751   2.5895
     2.5895   3.1979   3.1979   3.8541   3.8542   4.6329   4.6329   4.6422
     4.6852   4.6857   4.7279   4.7280   5.2373   5.2378

     occupation numbers 
     1.0000   1.0000   1.0000   1.0000   1.0000   1.0000   1.0000   1.0000
     1.0000   1.0000   1.0000   1.0000   1.0000   1.0000   1.0000   1.0000
     1.0000   1.0000   1.0000   1.0000   1.0000   1.0000   1.0000   1.0000
     1.0000   1.0000   1.0000   1.0000   1.0000   1.0000   1.0000   1.0000
     1.0000   1.0000   1.0000   1.0000   1.0000   1.0000   1.0000   1.0000
     1.0000   1.0000   1.0000   1.0000   1.0000   1.0000   1.0000   1.0000
     1.0000   1.0000   1.0000   1.0000   1.0000   1.0000

          k = 0.0000 0.0000 0.2065 (  6662 PWs)   bands (ev):

   -11.6465 -11.3851 -11.3483 -11.3483 -11.1989 -11.1989  -0.0338  -0.0337
     0.0873   0.0873   0.0956   0.1709   0.1711   0.1775   0.2442   0.2444
     0.3735   0.3735   0.4649   0.4649   0.5246   0.5246   0.5299   0.5299
     0.9956   0.9956   0.9959   0.9959   1.0286   1.0286   1.0711   1.0711
     1.0851   1.0851   1.1509   1.1509   2.1940   2.1940   2.3968   2.5855
     2.5855   3.5635   3.5635   3.8826   4.0469   4.0469   4.5188   4.5188
     4.5493   4.5493   4.8039   4.8045   5.1227   5.1233

     occupation numbers 
     1.0000   1.0000   1.0000   1.0000   1.0000   1.0000   1.0000   1.0000
     1.0000   1.0000   1.0000   1.0000   1.0000   1.0000   1.0000   1.0000
     1.0000   1.0000   1.0000   1.0000   1.0000   1.0000   1.0000   1.0000
     1.0000   1.0000   1.0000   1.0000   1.0000   1.0000   1.0000   1.0000
     1.0000   1.0000   1.0000   1.0000   1.0000   1.0000   1.0000   1.0000
     1.0000   1.0000   1.0000   1.0000   1.0000   1.0000   1.0000   1.0000
     1.0000   1.0000   1.0000   1.0000   1.0000   1.0000

          k = 0.0000 0.0000-0.3097 (  6624 PWs)   bands (ev):

   -11.5172 -11.5172 -11.2730 -11.2730 -11.2730 -11.2730  -0.0168  -0.0168
    -0.0168  -0.0168   0.0822   0.0822   0.2032   0.2032   0.2034   0.2034
     0.4451   0.4451   0.4451   0.4451   0.4723   0.4723   0.4723   0.4723
     1.0370   1.0371   1.0371   1.0371   1.0558   1.0558   1.0558   1.0558
     1.0750   1.0750   1.0750   1.0750   2.4019   2.4019   2.4019   2.4019
     3.1321   3.1321   4.1263   4.1263   4.1263   4.1263   4.3015   4.3015
     4.3016   4.3016   4.9644   4.9644   4.9649   4.9650

     occupation numbers 
     1.0000   1.0000   1.0000   1.0000   1.0000   1.0000   1.0000   1.0000
     1.0000   1.0000   1.0000   1.0000   1.0000   1.0000   1.0000   1.0000
     1.0000   1.0000   1.0000   1.0000   1.0000   1.0000   1.0000   1.0000
     1.0000   1.0000   1.0000   1.0000   1.0000   1.0000   1.0000   1.0000
     1.0000   1.0000   1.0000   1.0000   1.0000   1.0000   1.0000   1.0000
     1.0000   1.0000   1.0000   1.0000   1.0000   1.0000   1.0000   1.0000
     1.0000   1.0000   1.0000   1.0000   1.0000   1.0000

          k = 0.0000 0.0642 0.0000 (  6669 PWs)   bands (ev):

   -11.7606 -11.5082 -11.3499 -11.2446 -11.1479 -11.1143   0.0192   0.0359
     0.1349   0.1553   0.1853   0.2517   0.2823   0.2841   0.2962   0.3068
     0.3277   0.4271   0.5357   0.6047   0.6215   0.6812   0.7211   0.7800
     0.8788   0.9426   0.9467   0.9586   0.9749   1.0347   1.0978   1.1140
     1.1161   1.1246   1.2853   1.2898   1.3735   1.6722   1.8205   2.2748
     2.8576   2.9650   3.4774   3.6215   3.9727   4.4345   4.5369   4.6072
     4.6995   4.8010   4.9046   4.9835   5.2140   5.2613

     occupation numbers 
     1.0000   1.0000   1.0000   1.0000   1.0000   1.0000   1.0000   1.0000
     1.0000   1.0000   1.0000   1.0000   1.0000   1.0000   1.0000   1.0000
     1.0000   1.0000   1.0000   1.0000   1.0000   1.0000   1.0000   1.0000
     1.0000   1.0000   1.0000   1.0000   1.0000   1.0000   1.0000   1.0000
     1.0000   1.0000   1.0000   1.0000   1.0000   1.0000   1.0000   1.0000
     1.0000   1.0000   1.0000   1.0000   1.0000   1.0000   1.0000   1.0000
     1.0000   1.0000   1.0000   1.0000   1.0000   1.0000

          k = 0.0000 0.0642 0.1032 (  6652 PWs)   bands (ev):

   -11.7272 -11.4839 -11.3332 -11.2804 -11.1718 -11.1290   0.0013   0.0132
     0.1241   0.1611   0.1753   0.2116   0.2248   0.2770   0.2919   0.2956
     0.3470   0.4098   0.4210   0.5143   0.5861   0.6295   0.6529   0.6621
     0.9107   0.9571   0.9602   0.9753   0.9844   1.0389   1.0915   1.0979
     1.1045   1.1150   1.2016   1.2456   1.7428   1.8463   1.9772   2.3591
     2.9323   3.0952   3.4389   3.6999   4.0384   4.4808   4.5352   4.5959
     4.6308   4.6522   4.7778   4.8443   5.1839   5.2186

     occupation numbers 
     1.0000   1.0000   1.0000   1.0000   1.0000   1.0000   1.0000   1.0000
     1.0000   1.0000   1.0000   1.0000   1.0000   1.0000   1.0000   1.0000
     1.0000   1.0000   1.0000   1.0000   1.0000   1.0000   1.0000   1.0000
     1.0000   1.0000   1.0000   1.0000   1.0000   1.0000   1.0000   1.0000
     1.0000   1.0000   1.0000   1.0000   1.0000   1.0000   1.0000   1.0000
     1.0000   1.0000   1.0000   1.0000   1.0000   1.0000   1.0000   1.0000
     1.0000   1.0000   1.0000   1.0000   1.0000   1.0000

          k = 0.0000 0.0642 0.2065 (  6633 PWs)   bands (ev):

   -11.6353 -11.4177 -11.3773 -11.2882 -11.2373 -11.1702  -0.0292  -0.0260
     0.0828   0.0870   0.0923   0.1643   0.1800   0.1851   0.2550   0.2614
     0.3340   0.3854   0.4028   0.4596   0.4667   0.5519   0.5788   0.5836
     0.9793   0.9937   0.9950   1.0098   1.0317   1.0512   1.0714   1.0739
     1.0786   1.0933   1.1298   1.1737   1.9554   2.2869   2.3812   2.4062
     2.9164   3.5851   3.6444   3.8514   3.9072   4.2145   4.4418   4.4492
     4.5891   4.6785   4.7124   4.7741   5.0598   5.1012

     occupation numbers 
     1.0000   1.0000   1.0000   1.0000   1.0000   1.0000   1.0000   1.0000
     1.0000   1.0000   1.0000   1.0000   1.0000   1.0000   1.0000   1.0000
     1.0000   1.0000   1.0000   1.0000   1.0000   1.0000   1.0000   1.0000
     1.0000   1.0000   1.0000   1.0000   1.0000   1.0000   1.0000   1.0000
     1.0000   1.0000   1.0000   1.0000   1.0000   1.0000   1.0000   1.0000
     1.0000   1.0000   1.0000   1.0000   1.0000   1.0000   1.0000   1.0000
     1.0000   1.0000   1.0000   1.0000   1.0000   1.0000

          k = 0.0000 0.0642-0.3097 (  6626 PWs)   bands (ev):

   -11.5076 -11.5076 -11.3273 -11.3273 -11.2282 -11.2282  -0.0148  -0.0148
    -0.0117  -0.0117   0.0729   0.0729   0.2131   0.2131   0.2144   0.2144
     0.3927   0.3928   0.4001   0.4001   0.4862   0.4862   0.5478   0.5478
     1.0367   1.0367   1.0373   1.0373   1.0442   1.0442   1.0575   1.0575
     1.0704   1.0704   1.1023   1.1023   2.1169   2.1169   2.6880   2.6880
     3.1294   3.1294   4.1316   4.1316   4.1563   4.1563   4.1789   4.1789
     4.4490   4.4490   4.8860   4.8861   4.9387   4.9387

     occupation numbers 
     1.0000   1.0000   1.0000   1.0000   1.0000   1.0000   1.0000   1.0000
     1.0000   1.0000   1.0000   1.0000   1.0000   1.0000   1.0000   1.0000
     1.0000   1.0000   1.0000   1.0000   1.0000   1.0000   1.0000   1.0000
     1.0000   1.0000   1.0000   1.0000   1.0000   1.0000   1.0000   1.0000
     1.0000   1.0000   1.0000   1.0000   1.0000   1.0000   1.0000   1.0000
     1.0000   1.0000   1.0000   1.0000   1.0000   1.0000   1.0000   1.0000
     1.0000   1.0000   1.0000   1.0000   1.0000   1.0000

          k = 0.0000 0.1283 0.0000 (  6644 PWs)   bands (ev):

   -11.7234 -11.5912 -11.2951 -11.2282 -11.1754 -11.1119   0.0388   0.0553
     0.1073   0.1779   0.2074   0.2447   0.2477   0.3003   0.3164   0.3376
     0.3390   0.3599   0.4587   0.6492   0.6548   0.7194   0.7267   0.7447
     0.8844   0.9289   0.9455   0.9563   0.9873   1.0611   1.1008   1.1092
     1.1289   1.1717   1.2426   1.2786   1.3794   1.5148   1.7478   2.2118
     2.8865   3.3182   3.5136   3.8207   4.1716   4.2353   4.2812   4.5079
     4.5675   4.6373   4.9557   5.0200   5.1628   5.2084

     occupation numbers 
     1.0000   1.0000   1.0000   1.0000   1.0000   1.0000   1.0000   1.0000
     1.0000   1.0000   1.0000   1.0000   1.0000   1.0000   1.0000   1.0000
     1.0000   1.0000   1.0000   1.0000   1.0000   1.0000   1.0000   1.0000
     1.0000   1.0000   1.0000   1.0000   1.0000   1.0000   1.0000   1.0000
     1.0000   1.0000   1.0000   1.0000   1.0000   1.0000   1.0000   1.0000
     1.0000   1.0000   1.0000   1.0000   1.0000   1.0000   1.0000   1.0000
     1.0000   1.0000   1.0000   1.0000   1.0000   1.0000

          k = 0.0000 0.1283 0.1032 (  6646 PWs)   bands (ev):

   -11.6913 -11.5636 -11.2817 -11.2624 -11.2035 -11.1230   0.0217   0.0302
     0.0917   0.1843   0.2000   0.2141   0.2407   0.2581   0.2733   0.3235
     0.3407   0.3587   0.4399   0.4578   0.5722   0.6393   0.6835   0.6958
     0.9153   0.9460   0.9589   0.9680   1.0198   1.0634   1.0937   1.1004
     1.1175   1.1193   1.1746   1.2271   1.7277   1.7753   1.9066   2.1825
     3.1122   3.3587   3.5964   3.7515   4.2239   4.2307   4.3535   4.3795
     4.5561   4.5661   4.9019   4.9648   5.0940   5.1627

     occupation numbers 
     1.0000   1.0000   1.0000   1.0000   1.0000   1.0000   1.0000   1.0000
     1.0000   1.0000   1.0000   1.0000   1.0000   1.0000   1.0000   1.0000
     1.0000   1.0000   1.0000   1.0000   1.0000   1.0000   1.0000   1.0000
     1.0000   1.0000   1.0000   1.0000   1.0000   1.0000   1.0000   1.0000
     1.0000   1.0000   1.0000   1.0000   1.0000   1.0000   1.0000   1.0000
     1.0000   1.0000   1.0000   1.0000   1.0000   1.0000   1.0000   1.0000
     1.0000   1.0000   1.0000   1.0000   1.0000   1.0000

          k = 0.0000 0.1283 0.2065 (  6647 PWs)   bands (ev):

   -11.6028 -11.4881 -11.3551 -11.2801 -11.2458 -11.1541  -0.0147  -0.0099
     0.0540   0.0888   0.1031   0.1412   0.2051   0.2170   0.2848   0.2883
     0.2985   0.3173   0.3926   0.4035   0.4201   0.6126   0.6141   0.6368
     0.9767   0.9881   0.9935   0.9982   1.0707   1.0718   1.0747   1.0805
     1.0815   1.1002   1.1106   1.1885   1.7721   2.0481   2.4306   2.4584
     3.2528   3.6398   3.7459   3.8141   3.8584   4.3703   4.3893   4.3900
     4.4721   4.6679   4.6868   4.8131   4.9172   5.0369

     occupation numbers 
     1.0000   1.0000   1.0000   1.0000   1.0000   1.0000   1.0000   1.0000
     1.0000   1.0000   1.0000   1.0000   1.0000   1.0000   1.0000   1.0000
     1.0000   1.0000   1.0000   1.0000   1.0000   1.0000   1.0000   1.0000
     1.0000   1.0000   1.0000   1.0000   1.0000   1.0000   1.0000   1.0000
     1.0000   1.0000   1.0000   1.0000   1.0000   1.0000   1.0000   1.0000
     1.0000   1.0000   1.0000   1.0000   1.0000   1.0000   1.0000   1.0000
     1.0000   1.0000   1.0000   1.0000   1.0000   1.0000

          k = 0.0000 0.1283-0.3097 (  6648 PWs)   bands (ev):

   -11.4800 -11.4800 -11.3844 -11.3844 -11.1988 -11.1987  -0.0103  -0.0103
     0.0028   0.0028   0.0509   0.0509   0.2406   0.2406   0.2431   0.2431
     0.3363   0.3363   0.3370   0.3370   0.5119   0.5119   0.6104   0.6104
     1.0356   1.0356   1.0375   1.0375   1.0380   1.0380   1.0468   1.0468
     1.0831   1.0831   1.1387   1.1387   1.8922   1.8922   2.9177   2.9177
     3.1124   3.1124   4.0974   4.0974   4.1445   4.1445   4.2590   4.2590
     4.6034   4.6034   4.6875   4.6875   4.8630   4.8631

     occupation numbers 
     1.0000   1.0000   1.0000   1.0000   1.0000   1.0000   1.0000   1.0000
     1.0000   1.0000   1.0000   1.0000   1.0000   1.0000   1.0000   1.0000
     1.0000   1.0000   1.0000   1.0000   1.0000   1.0000   1.0000   1.0000
     1.0000   1.0000   1.0000   1.0000   1.0000   1.0000   1.0000   1.0000
     1.0000   1.0000   1.0000   1.0000   1.0000   1.0000   1.0000   1.0000
     1.0000   1.0000   1.0000   1.0000   1.0000   1.0000   1.0000   1.0000
     1.0000   1.0000   1.0000   1.0000   1.0000   1.0000

          k = 0.0000-0.1925 0.0000 (  6642 PWs)   bands (ev):

   -11.6653 -11.6652 -11.2740 -11.2038 -11.2038 -11.1131   0.0635   0.0718
     0.0718   0.2107   0.2107   0.2310   0.2310   0.3169   0.3169   0.3352
     0.3406   0.3909   0.3909   0.6393   0.6926   0.6926   0.7430   0.7596
     0.9078   0.9078   0.9474   0.9474   1.0048   1.0717   1.1048   1.1048
     1.1306   1.1869   1.2422   1.2422   1.4113   1.4113   1.7364   2.1770
     2.8847   3.4754   3.7976   3.7976   4.1851   4.1851   4.2188   4.3567
     4.3568   4.6154   5.0769   5.0770   5.1252   5.1252

     occupation numbers 
     1.0000   1.0000   1.0000   1.0000   1.0000   1.0000   1.0000   1.0000
     1.0000   1.0000   1.0000   1.0000   1.0000   1.0000   1.0000   1.0000
     1.0000   1.0000   1.0000   1.0000   1.0000   1.0000   1.0000   1.0000
     1.0000   1.0000   1.0000   1.0000   1.0000   1.0000   1.0000   1.0000
     1.0000   1.0000   1.0000   1.0000   1.0000   1.0000   1.0000   1.0000
     1.0000   1.0000   1.0000   1.0000   1.0000   1.0000   1.0000   1.0000
     1.0000   1.0000   1.0000   1.0000   1.0000   1.0000

          k = 0.0000-0.1925 0.1032 (  6642 PWs)   bands (ev):

   -11.6350 -11.6350 -11.2620 -11.2354 -11.2354 -11.1226   0.0375   0.0550
     0.0551   0.2145   0.2145   0.2187   0.2187   0.2494   0.2916   0.2916
     0.3624   0.3741   0.3741   0.5107   0.5107   0.6322   0.7107   0.7262
     0.9304   0.9304   0.9603   0.9603   1.0463   1.0733   1.0969   1.0969
     1.1209   1.1452   1.1452   1.1863   1.7086   1.8313   1.8313   2.0991
     3.1374   3.5598   3.8071   3.8071   4.0805   4.0805   4.3011   4.4098
     4.4099   4.5434   5.0042   5.0042   5.0751   5.0751

     occupation numbers 
     1.0000   1.0000   1.0000   1.0000   1.0000   1.0000   1.0000   1.0000
     1.0000   1.0000   1.0000   1.0000   1.0000   1.0000   1.0000   1.0000
     1.0000   1.0000   1.0000   1.0000   1.0000   1.0000   1.0000   1.0000
     1.0000   1.0000   1.0000   1.0000   1.0000   1.0000   1.0000   1.0000
     1.0000   1.0000   1.0000   1.0000   1.0000   1.0000   1.0000   1.0000
     1.0000   1.0000   1.0000   1.0000   1.0000   1.0000   1.0000   1.0000
     1.0000   1.0000   1.0000   1.0000   1.0000   1.0000

          k = 0.0000-0.1925 0.2065 (  6650 PWs)   bands (ev):

   -11.5520 -11.5520 -11.3212 -11.3212 -11.2300 -11.1494  -0.0095   0.0204
     0.0204   0.0899   0.1198   0.1198   0.2430   0.2430   0.2612   0.2612
     0.3321   0.3321   0.3465   0.3465   0.4258   0.6246   0.6264   0.6722
     0.9814   0.9814   0.9935   0.9935   1.0727   1.0727   1.0788   1.0940
     1.0940   1.1030   1.1140   1.1812   1.7157   1.9424   2.4577   2.4577
     3.5444   3.5444   3.6670   3.7813   4.1600   4.1600   4.3452   4.3640
     4.5535   4.5535   4.7743   4.7743   4.9373   4.9373

     occupation numbers 
     1.0000   1.0000   1.0000   1.0000   1.0000   1.0000   1.0000   1.0000
     1.0000   1.0000   1.0000   1.0000   1.0000   1.0000   1.0000   1.0000
     1.0000   1.0000   1.0000   1.0000   1.0000   1.0000   1.0000   1.0000
     1.0000   1.0000   1.0000   1.0000   1.0000   1.0000   1.0000   1.0000
     1.0000   1.0000   1.0000   1.0000   1.0000   1.0000   1.0000   1.0000
     1.0000   1.0000   1.0000   1.0000   1.0000   1.0000   1.0000   1.0000
     1.0000   1.0000   1.0000   1.0000   1.0000   1.0000

          k = 0.0000-0.1925-0.3097 (  6676 PWs)   bands (ev):

   -11.4373 -11.4373 -11.4373 -11.4373 -11.1885 -11.1885  -0.0082  -0.0082
     0.0252   0.0252   0.0252   0.0252   0.2833   0.2833   0.2833   0.2833
     0.2845   0.2845   0.2845   0.2845   0.5205   0.5205   0.6355   0.6355
     1.0352   1.0352   1.0352   1.0353   1.0406   1.0406   1.0406   1.0406
     1.0882   1.0882   1.1602   1.1602   1.8007   1.8008   3.0546   3.0546
     3.0546   3.0546   4.0687   4.0687   4.1503   4.1503   4.4505   4.4505
     4.4505   4.4505   4.7468   4.7468   4.7469   4.7469

     occupation numbers 
     1.0000   1.0000   1.0000   1.0000   1.0000   1.0000   1.0000   1.0000
     1.0000   1.0000   1.0000   1.0000   1.0000   1.0000   1.0000   1.0000
     1.0000   1.0000   1.0000   1.0000   1.0000   1.0000   1.0000   1.0000
     1.0000   1.0000   1.0000   1.0000   1.0000   1.0000   1.0000   1.0000
     1.0000   1.0000   1.0000   1.0000   1.0000   1.0000   1.0000   1.0000
     1.0000   1.0000   1.0000   1.0000   1.0000   1.0000   1.0000   1.0000
     1.0000   1.0000   1.0000   1.0000   1.0000   1.0000

          k = 0.1667 0.0962 0.0000 (  6649 PWs)   bands (ev):

   -11.6652 -11.4899 -11.2789 -11.2038 -11.1423 -11.1103   0.0720   0.0889
     0.1301   0.2000   0.2105   0.2310   0.3170   0.3200   0.3210   0.3907
     0.3917   0.4501   0.5674   0.5800   0.6926   0.7418   0.7811   0.7882
     0.8730   0.9078   0.9462   0.9474   0.9669   0.9988   1.1048   1.1142
     1.1440   1.2422   1.2910   1.3021   1.4112   1.7141   1.8027   2.3107
     2.8729   3.1151   3.1388   3.1622   3.7980   3.8433   4.1854   4.2112
     4.3449   4.3564   4.7389   4.7855   5.0769   5.1248

     occupation numbers 
     1.0000   1.0000   1.0000   1.0000   1.0000   1.0000   1.0000   1.0000
     1.0000   1.0000   1.0000   1.0000   1.0000   1.0000   1.0000   1.0000
     1.0000   1.0000   1.0000   1.0000   1.0000   1.0000   1.0000   1.0000
     1.0000   1.0000   1.0000   1.0000   1.0000   1.0000   1.0000   1.0000
     1.0000   1.0000   1.0000   1.0000   1.0000   1.0000   1.0000   1.0000
     1.0000   1.0000   1.0000   1.0000   1.0000   1.0000   1.0000   1.0000
     1.0000   1.0000   1.0000   1.0000   1.0000   1.0000

          k = 0.1667 0.0962 0.1032 (  6629 PWs)   bands (ev):

   -11.6350 -11.4664 -11.2665 -11.2354 -11.1652 -11.1203   0.0552   0.0648
     0.1194   0.1883   0.2145   0.2185   0.2917   0.2957   0.3154   0.3739
     0.3743   0.3991   0.5107   0.5457   0.5697   0.6258   0.6995   0.7207
     0.9050   0.9304   0.9528   0.9604   0.9898   1.0367   1.0969   1.1053
     1.1432   1.1452   1.2155   1.2884   1.8093   1.8313   1.9999   2.2916
     2.9834   3.0903   3.2548   3.3426   3.8074   3.8616   4.0807   4.1892
     4.3592   4.4095   4.6703   4.7752   5.0043   5.0747

     occupation numbers 
     1.0000   1.0000   1.0000   1.0000   1.0000   1.0000   1.0000   1.0000
     1.0000   1.0000   1.0000   1.0000   1.0000   1.0000   1.0000   1.0000
     1.0000   1.0000   1.0000   1.0000   1.0000   1.0000   1.0000   1.0000
     1.0000   1.0000   1.0000   1.0000   1.0000   1.0000   1.0000   1.0000
     1.0000   1.0000   1.0000   1.0000   1.0000   1.0000   1.0000   1.0000
     1.0000   1.0000   1.0000   1.0000   1.0000   1.0000   1.0000   1.0000
     1.0000   1.0000   1.0000   1.0000   1.0000   1.0000

          k = 0.1667 0.0962 0.2065 (  6644 PWs)   bands (ev):

   -11.5520 -11.4023 -11.3212 -11.2332 -11.2282 -11.1487   0.0201   0.0205
     0.0867   0.1123   0.1198   0.1852   0.2428   0.2613   0.3181   0.3319
     0.3466   0.3508   0.3888   0.4618   0.4921   0.5433   0.6171   0.6297
     0.9783   0.9814   0.9936   1.0084   1.0176   1.0559   1.0727   1.0823
     1.0940   1.1420   1.1547   1.2459   1.8849   2.1717   2.3923   2.4577
     2.9305   3.2615   3.5445   3.6638   3.7673   3.9865   3.9872   4.1603
     4.4173   4.4861   4.5531   4.6195   4.7745   4.9369

     occupation numbers 
     1.0000   1.0000   1.0000   1.0000   1.0000   1.0000   1.0000   1.0000
     1.0000   1.0000   1.0000   1.0000   1.0000   1.0000   1.0000   1.0000
     1.0000   1.0000   1.0000   1.0000   1.0000   1.0000   1.0000   1.0000
     1.0000   1.0000   1.0000   1.0000   1.0000   1.0000   1.0000   1.0000
     1.0000   1.0000   1.0000   1.0000   1.0000   1.0000   1.0000   1.0000
     1.0000   1.0000   1.0000   1.0000   1.0000   1.0000   1.0000   1.0000
     1.0000   1.0000   1.0000   1.0000   1.0000   1.0000

          k = 0.1667 0.0962-0.3097 (  6648 PWs)   bands (ev):

   -11.4373 -11.4373 -11.3150 -11.3149 -11.1897 -11.1897   0.0244   0.0244
     0.0253   0.0253   0.0906   0.0906   0.2831   0.2831   0.2846   0.2846
     0.3384   0.3384   0.4403   0.4403   0.4643   0.4643   0.5917   0.5918
     1.0353   1.0353   1.0406   1.0406   1.0429   1.0429   1.0471   1.0471
     1.0712   1.0712   1.1929   1.1929   2.0181   2.0181   2.6930   2.6930
     3.0546   3.0546   3.6045   3.6045   4.1387   4.1387   4.2450   4.2450
     4.2932   4.2932   4.4508   4.4508   4.7464   4.7465

     occupation numbers 
     1.0000   1.0000   1.0000   1.0000   1.0000   1.0000   1.0000   1.0000
     1.0000   1.0000   1.0000   1.0000   1.0000   1.0000   1.0000   1.0000
     1.0000   1.0000   1.0000   1.0000   1.0000   1.0000   1.0000   1.0000
     1.0000   1.0000   1.0000   1.0000   1.0000   1.0000   1.0000   1.0000
     1.0000   1.0000   1.0000   1.0000   1.0000   1.0000   1.0000   1.0000
     1.0000   1.0000   1.0000   1.0000   1.0000   1.0000   1.0000   1.0000
     1.0000   1.0000   1.0000   1.0000   1.0000   1.0000

          k = 0.1667 0.1604 0.0000 (  6647 PWs)   bands (ev):

   -11.6218 -11.5615 -11.2405 -11.1868 -11.1649 -11.1149   0.0595   0.0638
     0.1276   0.2132   0.2205   0.2486   0.2821   0.3321   0.3415   0.3534
     0.4335   0.4956   0.5177   0.6425   0.7233   0.7281   0.7585   0.7908
     0.8845   0.8959   0.9494   0.9537   0.9659   1.0162   1.1071   1.1098
     1.1621   1.2178   1.2703   1.2839   1.4659   1.5745   1.7964   2.2216
     2.7201   3.2690   3.3209   3.5211   3.5555   3.8950   4.0585   4.1009
     4.2712   4.2867   4.9050   4.9135   5.0101   5.0430

     occupation numbers 
     1.0000   1.0000   1.0000   1.0000   1.0000   1.0000   1.0000   1.0000
     1.0000   1.0000   1.0000   1.0000   1.0000   1.0000   1.0000   1.0000
     1.0000   1.0000   1.0000   1.0000   1.0000   1.0000   1.0000   1.0000
     1.0000   1.0000   1.0000   1.0000   1.0000   1.0000   1.0000   1.0000
     1.0000   1.0000   1.0000   1.0000   1.0000   1.0000   1.0000   1.0000
     1.0000   1.0000   1.0000   1.0000   1.0000   1.0000   1.0000   1.0000
     1.0000   1.0000   1.0000   1.0000   1.0000   1.0000

          k = 0.1667 0.1604 0.1032 (  6644 PWs)   bands (ev):

   -11.5931 -11.5351 -11.2308 -11.2163 -11.1915 -11.1219   0.0417   0.0437
     0.1199   0.2000   0.2104   0.2439   0.2773   0.3098   0.3336   0.3368
     0.4053   0.4159   0.4767   0.5472   0.5894   0.6420   0.7030   0.7424
     0.9126   0.9216   0.9631   0.9714   0.9930   1.0309   1.0984   1.1007
     1.1640   1.1710   1.1884   1.2318   1.7704   1.8761   1.9392   2.1559
     2.8562   3.3457   3.4563   3.5279   3.5772   3.8433   4.0803   4.1189
     4.2748   4.3027   4.8423   4.8782   4.9478   4.9911

     occupation numbers 
     1.0000   1.0000   1.0000   1.0000   1.0000   1.0000   1.0000   1.0000
     1.0000   1.0000   1.0000   1.0000   1.0000   1.0000   1.0000   1.0000
     1.0000   1.0000   1.0000   1.0000   1.0000   1.0000   1.0000   1.0000
     1.0000   1.0000   1.0000   1.0000   1.0000   1.0000   1.0000   1.0000
     1.0000   1.0000   1.0000   1.0000   1.0000   1.0000   1.0000   1.0000
     1.0000   1.0000   1.0000   1.0000   1.0000   1.0000   1.0000   1.0000
     1.0000   1.0000   1.0000   1.0000   1.0000   1.0000

          k = 0.1667 0.1604 0.2065 (  6645 PWs)   bands (ev):

   -11.5144 -11.4627 -11.2968 -11.2643 -11.2051 -11.1422   0.0060   0.0072
     0.0937   0.1087   0.1115   0.2114   0.2631   0.2857   0.2860   0.3126
     0.3718   0.3793   0.3817   0.4222   0.4317   0.5929   0.6572   0.6691
     0.9773   0.9785   0.9955   1.0023   1.0248   1.0429   1.0734   1.0756
     1.1045   1.1207   1.2019   1.2477   1.7831   2.0121   2.4539   2.4657
     3.1609   3.1764   3.3863   3.7946   3.8419   3.9113   3.9792   4.2365
     4.3614   4.4338   4.6587   4.6925   4.7165   4.8434

     occupation numbers 
     1.0000   1.0000   1.0000   1.0000   1.0000   1.0000   1.0000   1.0000
     1.0000   1.0000   1.0000   1.0000   1.0000   1.0000   1.0000   1.0000
     1.0000   1.0000   1.0000   1.0000   1.0000   1.0000   1.0000   1.0000
     1.0000   1.0000   1.0000   1.0000   1.0000   1.0000   1.0000   1.0000
     1.0000   1.0000   1.0000   1.0000   1.0000   1.0000   1.0000   1.0000
     1.0000   1.0000   1.0000   1.0000   1.0000   1.0000   1.0000   1.0000
     1.0000   1.0000   1.0000   1.0000   1.0000   1.0000

          k = 0.1667 0.1604-0.3097 (  6644 PWs)   bands (ev):

   -11.4061 -11.4060 -11.3636 -11.3636 -11.1723 -11.1723   0.0137   0.0137
     0.0150   0.0150   0.1031   0.1031   0.2914   0.2914   0.3079   0.3079
     0.3340   0.3340   0.3894   0.3894   0.4717   0.4717   0.6496   0.6496
     1.0355   1.0355   1.0375   1.0375   1.0399   1.0399   1.0450   1.0450
     1.0544   1.0544   1.2352   1.2352   1.8741   1.8741   2.8678   2.8678
     2.9872   2.9872   3.5244   3.5244   4.2356   4.2356   4.2552   4.2552
     4.3347   4.3347   4.4709   4.4709   4.6420   4.6420

     occupation numbers 
     1.0000   1.0000   1.0000   1.0000   1.0000   1.0000   1.0000   1.0000
     1.0000   1.0000   1.0000   1.0000   1.0000   1.0000   1.0000   1.0000
     1.0000   1.0000   1.0000   1.0000   1.0000   1.0000   1.0000   1.0000
     1.0000   1.0000   1.0000   1.0000   1.0000   1.0000   1.0000   1.0000
     1.0000   1.0000   1.0000   1.0000   1.0000   1.0000   1.0000   1.0000
     1.0000   1.0000   1.0000   1.0000   1.0000   1.0000   1.0000   1.0000
     1.0000   1.0000   1.0000   1.0000   1.0000   1.0000

          k = 0.1667-0.0321 0.0000 (  6647 PWs)   bands (ev):

   -11.6880 -11.4137 -11.3405 -11.2132 -11.1232 -11.1119   0.0899   0.1238
     0.1333   0.1918   0.2048   0.2258   0.2611   0.3050   0.3531   0.3723
     0.3871   0.4517   0.5183   0.6401   0.6758   0.7036   0.7960   0.8050
     0.8711   0.9024   0.9174   0.9447   0.9832   0.9922   1.1030   1.1214
     1.1317   1.2190   1.3044   1.3221   1.3943   1.8306   1.8530   2.4848
     2.7675   2.9656   2.9953   3.2396   3.5364   4.0087   4.2114   4.4002
     4.4621   4.4804   4.5693   4.6275   5.1123   5.1450

     occupation numbers 
     1.0000   1.0000   1.0000   1.0000   1.0000   1.0000   1.0000   1.0000
     1.0000   1.0000   1.0000   1.0000   1.0000   1.0000   1.0000   1.0000
     1.0000   1.0000   1.0000   1.0000   1.0000   1.0000   1.0000   1.0000
     1.0000   1.0000   1.0000   1.0000   1.0000   1.0000   1.0000   1.0000
     1.0000   1.0000   1.0000   1.0000   1.0000   1.0000   1.0000   1.0000
     1.0000   1.0000   1.0000   1.0000   1.0000   1.0000   1.0000   1.0000
     1.0000   1.0000   1.0000   1.0000   1.0000   1.0000

          k = 0.1667-0.0321 0.1032 (  6645 PWs)   bands (ev):

   -11.6570 -11.3937 -11.3243 -11.2458 -11.1420 -11.1262   0.0728   0.0973
     0.1157   0.1918   0.1949   0.2203   0.2340   0.2759   0.3478   0.3562
     0.3768   0.4363   0.4908   0.5024   0.6136   0.6544   0.6693   0.6846
     0.9037   0.9177   0.9369   0.9587   1.0136   1.0314   1.0953   1.1135
     1.1261   1.1353   1.2464   1.2799   1.8090   1.9273   2.0100   2.5016
     2.7786   3.1262   3.1395   3.3178   3.5683   4.0032   4.1392   4.3302
     4.4807   4.4927   4.4995   4.6470   5.0411   5.0965

     occupation numbers 
     1.0000   1.0000   1.0000   1.0000   1.0000   1.0000   1.0000   1.0000
     1.0000   1.0000   1.0000   1.0000   1.0000   1.0000   1.0000   1.0000
     1.0000   1.0000   1.0000   1.0000   1.0000   1.0000   1.0000   1.0000
     1.0000   1.0000   1.0000   1.0000   1.0000   1.0000   1.0000   1.0000
     1.0000   1.0000   1.0000   1.0000   1.0000   1.0000   1.0000   1.0000
     1.0000   1.0000   1.0000   1.0000   1.0000   1.0000   1.0000   1.0000
     1.0000   1.0000   1.0000   1.0000   1.0000   1.0000

          k = 0.1667-0.0321 0.2065 (  6634 PWs)   bands (ev):

   -11.5718 -11.3392 -11.3343 -11.2805 -11.1938 -11.1660   0.0356   0.0459
     0.0711   0.1244   0.1278   0.1502   0.2274   0.2373   0.3167   0.3292
     0.3559   0.3858   0.4084   0.4728   0.4958   0.5477   0.5487   0.5922
     0.9834   0.9840   0.9929   0.9936   1.0389   1.0552   1.0720   1.0896
     1.0964   1.1199   1.1703   1.2081   2.0711   2.2596   2.4032   2.4495
     2.6647   3.4457   3.6094   3.6310   3.6898   3.7325   4.1156   4.2799
     4.2886   4.4915   4.5607   4.5917   4.8330   4.9627

     occupation numbers 
     1.0000   1.0000   1.0000   1.0000   1.0000   1.0000   1.0000   1.0000
     1.0000   1.0000   1.0000   1.0000   1.0000   1.0000   1.0000   1.0000
     1.0000   1.0000   1.0000   1.0000   1.0000   1.0000   1.0000   1.0000
     1.0000   1.0000   1.0000   1.0000   1.0000   1.0000   1.0000   1.0000
     1.0000   1.0000   1.0000   1.0000   1.0000   1.0000   1.0000   1.0000
     1.0000   1.0000   1.0000   1.0000   1.0000   1.0000   1.0000   1.0000
     1.0000   1.0000   1.0000   1.0000   1.0000   1.0000

          k = 0.1667-0.0321-0.3097 (  6636 PWs)   bands (ev):

   -11.4539 -11.4538 -11.2658 -11.2658 -11.2223 -11.2223   0.0362   0.0362
     0.0448   0.0448   0.0691   0.0691   0.2521   0.2521   0.2813   0.2813
     0.3851   0.3851   0.4365   0.4365   0.4825   0.4825   0.5262   0.5262
     1.0348   1.0348   1.0400   1.0400   1.0488   1.0488   1.0511   1.0511
     1.0997   1.0997   1.1419   1.1419   2.2374   2.2374   2.4747   2.4747
     3.0832   3.0832   3.7555   3.7555   3.9545   3.9545   4.2308   4.2308
     4.2315   4.2315   4.5410   4.5410   4.7808   4.7808

     occupation numbers 
     1.0000   1.0000   1.0000   1.0000   1.0000   1.0000   1.0000   1.0000
     1.0000   1.0000   1.0000   1.0000   1.0000   1.0000   1.0000   1.0000
     1.0000   1.0000   1.0000   1.0000   1.0000   1.0000   1.0000   1.0000
     1.0000   1.0000   1.0000   1.0000   1.0000   1.0000   1.0000   1.0000
     1.0000   1.0000   1.0000   1.0000   1.0000   1.0000   1.0000   1.0000
     1.0000   1.0000   1.0000   1.0000   1.0000   1.0000   1.0000   1.0000
     1.0000   1.0000   1.0000   1.0000   1.0000   1.0000

          k = 0.3333 0.1925 0.0000 (  6655 PWs)   bands (ev):

   -11.4247 -11.4246 -11.1544 -11.1544 -11.1263 -11.1263   0.0195   0.0195
     0.1494   0.2624   0.2624   0.3093   0.3093   0.4758   0.4759   0.5114
     0.5114   0.6137   0.6137   0.7621   0.7621   0.8002   0.8915   0.8916
     0.9170   0.9171   0.9307   0.9952   1.0029   1.0029   1.1191   1.1191
     1.1475   1.1476   1.2895   1.2895   1.8127   1.8127   2.0500   2.0501
     2.0922   2.4752   2.4752   3.1778   3.1778   3.6830   3.6830   3.7815
     3.7815   3.8627   4.6208   4.6208   4.7925   4.7925

     occupation numbers 
     1.0000   1.0000   1.0000   1.0000   1.0000   1.0000   1.0000   1.0000
     1.0000   1.0000   1.0000   1.0000   1.0000   1.0000   1.0000   1.0000
     1.0000   1.0000   1.0000   1.0000   1.0000   1.0000   1.0000   1.0000
     1.0000   1.0000   1.0000   1.0000   1.0000   1.0000   1.0000   1.0000
     1.0000   1.0000   1.0000   1.0000   1.0000   1.0000   1.0000   1.0000
     1.0000   1.0000   1.0000   1.0000   1.0000   1.0000   1.0000   1.0000
     1.0000   1.0000   1.0000   1.0000   1.0000   1.0000

          k = 0.3333 0.1925 0.1032 (  6670 PWs)   bands (ev):

   -11.4041 -11.4041 -11.1529 -11.1529 -11.1456 -11.1456  -0.0004  -0.0004
     0.1753   0.2143   0.2143   0.3258   0.3258   0.4215   0.4215   0.4932
     0.4932   0.5887   0.5887   0.6620   0.6620   0.7186   0.8349   0.8350
     0.9314   0.9314   0.9327   0.9907   1.0096   1.0096   1.1094   1.1094
     1.2115   1.2115   1.2264   1.2264   1.9752   1.9752   2.0017   2.0017
     2.2401   2.5897   2.5897   3.1981   3.1981   3.7483   3.8443   3.8443
     3.8538   3.8538   4.6329   4.6329   4.7276   4.7276

     occupation numbers 
     1.0000   1.0000   1.0000   1.0000   1.0000   1.0000   1.0000   1.0000
     1.0000   1.0000   1.0000   1.0000   1.0000   1.0000   1.0000   1.0000
[...]
     1.0000   1.0000   1.0000   1.0000   1.0000   1.0000   1.0000   1.0000
     1.0000   1.0000   1.0000   1.0000   1.0000   1.0000   1.0000   1.0000
     1.0000   1.0000   1.0000   1.0000   1.0000   1.0000   1.0000   1.0000
     1.0000   1.0000   1.0000   1.0000   1.0000   1.0000   1.0000   1.0000
     1.0000   1.0000   1.0000   1.0000   1.0000   1.0000

          k =-0.1667-0.0321-0.1032 (  6645 PWs)   bands (ev):

   -11.6570 -11.3937 -11.3243 -11.2458 -11.1420 -11.1262   0.0728   0.0973
     0.1157   0.1918   0.1949   0.2203   0.2340   0.2759   0.3478   0.3562
     0.3768   0.4363   0.4908   0.5024   0.6136   0.6544   0.6693   0.6846
     0.9037   0.9177   0.9369   0.9587   1.0136   1.0314   1.0953   1.1135
     1.1261   1.1353   1.2464   1.2799   1.8090   1.9273   2.0100   2.5016
     2.7786   3.1262   3.1395   3.3178   3.5683   4.0032   4.1392   4.3302
     4.4807   4.4927   4.4995   4.6470   5.0411   5.0965

     occupation numbers 
     1.0000   1.0000   1.0000   1.0000   1.0000   1.0000   1.0000   1.0000
     1.0000   1.0000   1.0000   1.0000   1.0000   1.0000   1.0000   1.0000
     1.0000   1.0000   1.0000   1.0000   1.0000   1.0000   1.0000   1.0000
     1.0000   1.0000   1.0000   1.0000   1.0000   1.0000   1.0000   1.0000
     1.0000   1.0000   1.0000   1.0000   1.0000   1.0000   1.0000   1.0000
     1.0000   1.0000   1.0000   1.0000   1.0000   1.0000   1.0000   1.0000
     1.0000   1.0000   1.0000   1.0000   1.0000   1.0000

          k =-0.1667-0.0321-0.2065 (  6634 PWs)   bands (ev):

   -11.5718 -11.3392 -11.3343 -11.2805 -11.1938 -11.1660   0.0356   0.0459
     0.0711   0.1244   0.1278   0.1502   0.2274   0.2373   0.3167   0.3292
     0.3559   0.3858   0.4084   0.4728   0.4958   0.5477   0.5487   0.5922
     0.9834   0.9840   0.9929   0.9936   1.0389   1.0552   1.0720   1.0896
     1.0964   1.1199   1.1703   1.2081   2.0711   2.2596   2.4032   2.4495
     2.6647   3.4457   3.6094   3.6310   3.6898   3.7325   4.1156   4.2799
     4.2886   4.4915   4.5607   4.5917   4.8330   4.9627

     occupation numbers 
     1.0000   1.0000   1.0000   1.0000   1.0000   1.0000   1.0000   1.0000
     1.0000   1.0000   1.0000   1.0000   1.0000   1.0000   1.0000   1.0000
     1.0000   1.0000   1.0000   1.0000   1.0000   1.0000   1.0000   1.0000
     1.0000   1.0000   1.0000   1.0000   1.0000   1.0000   1.0000   1.0000
     1.0000   1.0000   1.0000   1.0000   1.0000   1.0000   1.0000   1.0000
     1.0000   1.0000   1.0000   1.0000   1.0000   1.0000   1.0000   1.0000
     1.0000   1.0000   1.0000   1.0000   1.0000   1.0000

          k =-0.3333 0.2566-0.1032 (  6655 PWs)   bands (ev):

   -11.4376 -11.3618 -11.1829 -11.1557 -11.1346 -11.1327   0.0105   0.0188
     0.1720   0.2164   0.2275   0.3083   0.3344   0.3758   0.4462   0.4577
     0.5328   0.5616   0.6300   0.6499   0.6673   0.6948   0.7731   0.8193
     0.9150   0.9448   0.9461   0.9985   1.0011   1.0260   1.1073   1.1137
     1.1860   1.2185   1.2434   1.2501   1.8906   1.9243   1.9960   2.0955
     2.3778   2.4746   2.7568   3.1257   3.2849   3.6393   3.7066   3.8173
     3.8874   4.0326   4.5449   4.6331   4.6966   4.7465

     occupation numbers 
     1.0000   1.0000   1.0000   1.0000   1.0000   1.0000   1.0000   1.0000
     1.0000   1.0000   1.0000   1.0000   1.0000   1.0000   1.0000   1.0000
     1.0000   1.0000   1.0000   1.0000   1.0000   1.0000   1.0000   1.0000
     1.0000   1.0000   1.0000   1.0000   1.0000   1.0000   1.0000   1.0000
     1.0000   1.0000   1.0000   1.0000   1.0000   1.0000   1.0000   1.0000
     1.0000   1.0000   1.0000   1.0000   1.0000   1.0000   1.0000   1.0000
     1.0000   1.0000   1.0000   1.0000   1.0000   1.0000

          k =-0.3333 0.2566-0.2065 (  6644 PWs)   bands (ev):

   -11.3772 -11.3122 -11.2143 -11.1809 -11.1693 -11.1403  -0.0226  -0.0182
     0.0962   0.0971   0.2173   0.2871   0.3417   0.3493   0.3855   0.4213
     0.4917   0.5040   0.5074   0.5495   0.5498   0.5654   0.7296   0.7510
     0.9678   0.9847   0.9988   1.0068   1.0216   1.0443   1.0831   1.0931
     1.1440   1.1680   1.2542   1.3054   1.8684   1.9942   2.0762   2.2983
     2.4313   2.6960   2.7434   3.5064   3.5660   3.5894   3.9147   4.0339
     4.0702   4.2516   4.4148   4.5093   4.5278   4.5937

     occupation numbers 
     1.0000   1.0000   1.0000   1.0000   1.0000   1.0000   1.0000   1.0000
     1.0000   1.0000   1.0000   1.0000   1.0000   1.0000   1.0000   1.0000
     1.0000   1.0000   1.0000   1.0000   1.0000   1.0000   1.0000   1.0000
     1.0000   1.0000   1.0000   1.0000   1.0000   1.0000   1.0000   1.0000
     1.0000   1.0000   1.0000   1.0000   1.0000   1.0000   1.0000   1.0000
     1.0000   1.0000   1.0000   1.0000   1.0000   1.0000   1.0000   1.0000
     1.0000   1.0000   1.0000   1.0000   1.0000   1.0000

          k =-0.3333 0.3208-0.1032 (  6649 PWs)   bands (ev):

   -11.4590 -11.3145 -11.2215 -11.1627 -11.1253 -11.1221   0.0423   0.0649
     0.1568   0.2067   0.2606   0.3026   0.3308   0.3477   0.4008   0.4623
     0.5490   0.5589   0.6064   0.6335   0.6653   0.6867   0.7363   0.7626
     0.9067   0.9517   0.9520   0.9921   1.0216   1.0385   1.1059   1.1241
     1.1663   1.2159   1.2688   1.2822   1.8184   1.8563   1.9999   2.1900
     2.3861   2.6711   2.9557   3.1027   3.3075   3.4584   3.4683   3.8681
     3.9738   4.2066   4.4025   4.4948   4.6925   4.7607

     occupation numbers 
     1.0000   1.0000   1.0000   1.0000   1.0000   1.0000   1.0000   1.0000
     1.0000   1.0000   1.0000   1.0000   1.0000   1.0000   1.0000   1.0000
     1.0000   1.0000   1.0000   1.0000   1.0000   1.0000   1.0000   1.0000
     1.0000   1.0000   1.0000   1.0000   1.0000   1.0000   1.0000   1.0000
     1.0000   1.0000   1.0000   1.0000   1.0000   1.0000   1.0000   1.0000
     1.0000   1.0000   1.0000   1.0000   1.0000   1.0000   1.0000   1.0000
     1.0000   1.0000   1.0000   1.0000   1.0000   1.0000

          k =-0.3333 0.3208-0.2065 (  6634 PWs)   bands (ev):

   -11.3958 -11.2725 -11.2246 -11.1978 -11.1631 -11.1403   0.0039   0.0246
     0.1091   0.1309   0.1547   0.2444   0.3234   0.3732   0.3772   0.3905
     0.4688   0.4956   0.5318   0.5498   0.5742   0.5993   0.6628   0.6862
     0.9795   0.9959   1.0109   1.0186   1.0336   1.0588   1.0826   1.1154
     1.1423   1.2006   1.2041   1.2872   1.8491   1.9666   2.0731   2.2918
     2.3682   2.8756   2.9496   3.5174   3.6367   3.6721   3.7627   3.9348
     4.0213   4.2156   4.3433   4.4721   4.5040   4.6130

     occupation numbers 
     1.0000   1.0000   1.0000   1.0000   1.0000   1.0000   1.0000   1.0000
     1.0000   1.0000   1.0000   1.0000   1.0000   1.0000   1.0000   1.0000
     1.0000   1.0000   1.0000   1.0000   1.0000   1.0000   1.0000   1.0000
     1.0000   1.0000   1.0000   1.0000   1.0000   1.0000   1.0000   1.0000
     1.0000   1.0000   1.0000   1.0000   1.0000   1.0000   1.0000   1.0000
     1.0000   1.0000   1.0000   1.0000   1.0000   1.0000   1.0000   1.0000
     1.0000   1.0000   1.0000   1.0000   1.0000   1.0000

          k = 0.5000-0.2245-0.1032 (  6648 PWs)   bands (ev):

   -11.2677 -11.2645 -11.2627 -11.1222 -11.1213 -11.1197   0.0472   0.0756
     0.1636   0.2672   0.2684   0.3024   0.3543   0.3571   0.4572   0.5115
     0.6333   0.6426   0.6713   0.6896   0.7118   0.7221   0.7249   0.7281
     0.9189   0.9963   1.0309   1.0314   1.0482   1.0643   1.1303   1.1392
     1.1449   1.2051   1.2482   1.3103   1.7179   1.7505   1.8667   2.1288
     2.2044   2.3452   2.9169   3.0669   3.1205   3.2799   3.4379   3.5248
     4.1135   4.2680   4.2948   4.3503   4.4107   4.5016

     occupation numbers 
     1.0000   1.0000   1.0000   1.0000   1.0000   1.0000   1.0000   1.0000
     1.0000   1.0000   1.0000   1.0000   1.0000   1.0000   1.0000   1.0000
     1.0000   1.0000   1.0000   1.0000   1.0000   1.0000   1.0000   1.0000
     1.0000   1.0000   1.0000   1.0000   1.0000   1.0000   1.0000   1.0000
     1.0000   1.0000   1.0000   1.0000   1.0000   1.0000   1.0000   1.0000
     1.0000   1.0000   1.0000   1.0000   1.0000   1.0000   1.0000   1.0000
     1.0000   1.0000   1.0000   1.0000   1.0000   1.0000

          k = 0.5000-0.2245-0.2065 (  6650 PWs)   bands (ev):

   -11.2341 -11.2318 -11.2305 -11.1493 -11.1490 -11.1485   0.0021   0.0358
     0.1056   0.1436   0.1455   0.1861   0.4004   0.4065   0.4180   0.4844
     0.5997   0.6119   0.6228   0.6235   0.6243   0.6271   0.6356   0.6569
     0.9930   1.0373   1.0526   1.0636   1.0687   1.0782   1.1345   1.1481
     1.1578   1.1937   1.2212   1.2592   1.7347   1.7942   1.9634   1.9778
     2.0669   2.2428   3.1392   3.4370   3.5933   3.7003   3.8000   3.8053
     3.9317   4.1195   4.2621   4.3946   4.4093   4.4219

     occupation numbers 
     1.0000   1.0000   1.0000   1.0000   1.0000   1.0000   1.0000   1.0000
     1.0000   1.0000   1.0000   1.0000   1.0000   1.0000   1.0000   1.0000
     1.0000   1.0000   1.0000   1.0000   1.0000   1.0000   1.0000   1.0000
     1.0000   1.0000   1.0000   1.0000   1.0000   1.0000   1.0000   1.0000
     1.0000   1.0000   1.0000   1.0000   1.0000   1.0000   1.0000   1.0000
     1.0000   1.0000   1.0000   1.0000   1.0000   1.0000   1.0000   1.0000
     1.0000   1.0000   1.0000   1.0000   1.0000   1.0000

     highest occupied level (ev):     5.2795

!    total energy              =   -1084.86439785 Ry
     estimated scf accuracy    <          6.8E-10 Ry

     The total energy is the sum of the following terms:
     one-electron contribution =    -503.45140083 Ry
     hartree contribution      =     369.20320027 Ry
     xc contribution           =    -327.96155346 Ry
     ewald contribution        =    -622.65464383 Ry

     convergence has been achieved in  45 iterations

     Forces acting on atoms (cartesian axes, Ry/au):

     atom    1 type  1   force =     0.00000000    0.00001774   -0.00009818
     atom    2 type  1   force =     0.00000000    0.00000680   -0.00008764
     atom    3 type  2   force =     0.00000000    0.00000333    0.00009404
     atom    4 type  2   force =     0.00000000   -0.00000364    0.00009463
     atom    5 type  1   force =     0.00000000   -0.00001778   -0.00009779
     atom    6 type  1   force =     0.00000000   -0.00001971   -0.00009649
     atom    7 type  2   force =     0.00000000    0.00000510    0.00009430
     atom    8 type  2   force =     0.00000000   -0.00000281    0.00009441
     atom    9 type  1   force =     0.00000000    0.00000388   -0.00008922
     atom   10 type  1   force =     0.00000000    0.00000858   -0.00009752
     atom   11 type  2   force =     0.00000000    0.00000431    0.00009540
     atom   12 type  2   force =     0.00000000   -0.00000580    0.00009405
     The non-local contrib.  to forces
     atom    1 type  1   force =     0.00000000    0.00000616   -0.00455807
     atom    2 type  1   force =     0.00000000    0.00001192   -0.00455369
     atom    3 type  2   force =     0.00000000    0.00023206    0.00625216
     atom    4 type  2   force =     0.00000000   -0.00024223    0.00625358
     atom    5 type  1   force =     0.00000000   -0.00002011   -0.00455773
     atom    6 type  1   force =     0.00000000   -0.00000863   -0.00455517
     atom    7 type  2   force =     0.00000000    0.00024978    0.00625198
     atom    8 type  2   force =     0.00000000   -0.00022886    0.00625147
     atom    9 type  1   force =     0.00000000   -0.00000336   -0.00455237
     atom   10 type  1   force =     0.00000000    0.00001518   -0.00455465
     atom   11 type  2   force =     0.00000000    0.00024308    0.00625445
     atom   12 type  2   force =     0.00000000   -0.00025298    0.00624975
     The ionic contribution  to forces
     atom    1 type  1   force =    -0.00000000    0.00000001    0.05798523
     atom    2 type  1   force =     0.00000000    0.00000001    0.05798523
     atom    3 type  2   force =    -0.00000000    0.00000000   -0.05798523
     atom    4 type  2   force =     0.00000000    0.00000000   -0.05798523
     atom    5 type  1   force =    -0.00000001    0.00000001    0.05798522
     atom    6 type  1   force =     0.00000001   -0.00000001    0.05798522
     atom    7 type  2   force =    -0.00000001    0.00000000   -0.05798522
     atom    8 type  2   force =     0.00000001   -0.00000000   -0.05798522
     atom    9 type  1   force =    -0.00000000   -0.00000001    0.05798523
     atom   10 type  1   force =     0.00000000   -0.00000001    0.05798523
     atom   11 type  2   force =    -0.00000000   -0.00000000   -0.05798523
     atom   12 type  2   force =     0.00000000   -0.00000000   -0.05798523
     The local contribution  to forces
     atom    1 type  1   force =    -0.00000004   -0.00003124   -0.05387376
     atom    2 type  1   force =     0.00000000   -0.00000880   -0.05388427
     atom    3 type  2   force =    -0.00000001   -0.00024409    0.05189895
     atom    4 type  2   force =     0.00000000    0.00023012    0.05189771
     atom    5 type  1   force =    -0.00000009    0.00002542   -0.05387355
     atom    6 type  1   force =     0.00000009    0.00003733   -0.05387745
     atom    7 type  2   force =    -0.00000002   -0.00023028    0.05189553
     atom    8 type  2   force =     0.00000002    0.00024646    0.05190056
     atom    9 type  1   force =     0.00000000   -0.00001013   -0.05388411
     atom   10 type  1   force =     0.00000004   -0.00001534   -0.05387807
     atom   11 type  2   force =     0.00000000   -0.00023551    0.05190636
     atom   12 type  2   force =     0.00000001    0.00023897    0.05189867
     The core correction contribution to forces
     atom    1 type  1   force =    -0.00000003    0.00000789    0.00035348
     atom    2 type  1   force =     0.00000005   -0.00000760    0.00035342
     atom    3 type  2   force =    -0.00000000   -0.00000262   -0.00007026
     atom    4 type  2   force =    -0.00000000    0.00000275   -0.00007029
     atom    5 type  1   force =     0.00000000    0.00000759    0.00035350
     atom    6 type  1   force =    -0.00000000   -0.00000789    0.00035343
     atom    7 type  2   force =    -0.00000000   -0.00000284   -0.00007027
     atom    8 type  2   force =     0.00000000    0.00000261   -0.00007025
     atom    9 type  1   force =    -0.00000005    0.00000747    0.00035319
     atom   10 type  1   force =     0.00000003   -0.00000756    0.00035348
     atom   11 type  2   force =     0.00000000   -0.00000276   -0.00007027
     atom   12 type  2   force =     0.00000000    0.00000288   -0.00007023
     The Hubbard contrib.    to forces
     atom    1 type  1   force =     0.00000000    0.00000000    0.00000000
     atom    2 type  1   force =     0.00000000    0.00000000    0.00000000
     atom    3 type  2   force =     0.00000000    0.00000000    0.00000000
     atom    4 type  2   force =     0.00000000    0.00000000    0.00000000
     atom    5 type  1   force =     0.00000000    0.00000000    0.00000000
     atom    6 type  1   force =     0.00000000    0.00000000    0.00000000
     atom    7 type  2   force =     0.00000000    0.00000000    0.00000000
     atom    8 type  2   force =     0.00000000    0.00000000    0.00000000
     atom    9 type  1   force =     0.00000000    0.00000000    0.00000000
     atom   10 type  1   force =     0.00000000    0.00000000    0.00000000
     atom   11 type  2   force =     0.00000000    0.00000000    0.00000000
     atom   12 type  2   force =     0.00000000    0.00000000    0.00000000
     The SCF correction term to forces
     atom    1 type  1   force =    -0.00000000    0.00003518   -0.00000320
     atom    2 type  1   force =     0.00000000    0.00001154    0.00001352
     atom    3 type  2   force =    -0.00000000    0.00001823    0.00000028
     atom    4 type  2   force =    -0.00000000    0.00000597    0.00000071
     atom    5 type  1   force =    -0.00000000   -0.00003042   -0.00000339
     atom    6 type  1   force =     0.00000000   -0.00004026   -0.00000067
     atom    7 type  2   force =    -0.00000000   -0.00001130    0.00000414
     atom    8 type  2   force =     0.00000000   -0.00002275   -0.00000029
     atom    9 type  1   force =    -0.00000000    0.00001016    0.00001069
     atom   10 type  1   force =     0.00000000    0.00001655   -0.00000165
     atom   11 type  2   force =     0.00000000   -0.00000025   -0.00000806
     atom   12 type  2   force =     0.00000000    0.00000558    0.00000294

     Total force =     0.000329     Total SCF correction =     0.000076
     SCF correction compared to forces is large: reduce conv_thr to get better values

     init_run     :     14.31s CPU     14.66s WALL (       1 calls)
     electrons    :    758.06s CPU    760.82s WALL (       1 calls)
     forces       :      5.18s CPU      5.24s WALL (       1 calls)

     Called by init_run:
     wfcinit      :      5.85s CPU      5.95s WALL (       1 calls)
     wfcinit:atom :      0.06s CPU      0.06s WALL (       4 calls)
     wfcinit:wfcr :      5.24s CPU      5.33s WALL (       4 calls)
     potinit      :      2.66s CPU      2.77s WALL (       1 calls)
     hinit0       :      5.25s CPU      5.31s WALL (       1 calls)

     Called by electrons:
     c_bands      :    632.14s CPU    633.59s WALL (      45 calls)
     sum_band     :     80.83s CPU     81.84s WALL (      45 calls)
     v_of_rho     :     29.57s CPU     29.81s WALL (      46 calls)
     v_h          :      1.70s CPU      1.71s WALL (      46 calls)
     v_xc         :     28.35s CPU     28.62s WALL (      47 calls)
     newd         :      9.05s CPU      9.12s WALL (      46 calls)
     mix_rho      :      4.24s CPU      4.30s WALL (      45 calls)

     Called by c_bands:
     init_us_2    :      6.12s CPU      6.17s WALL (     368 calls)
     init_us_2:cp :      6.12s CPU      6.16s WALL (     368 calls)
     cegterg      :    577.50s CPU    578.80s WALL (     180 calls)

     Called by sum_band:
     sum_band:wei :      0.02s CPU      0.02s WALL (      45 calls)
     sum_band:loo :     68.05s CPU     68.30s WALL (      45 calls)
     sum_band:buf :      0.67s CPU      0.69s WALL (     180 calls)
     sum_band:ini :      2.94s CPU      2.95s WALL (     180 calls)
     sum_band:cal :     14.09s CPU     14.11s WALL (     180 calls)
     sum_band:bec :      0.05s CPU      0.05s WALL (     180 calls)
     addusdens    :      8.10s CPU      8.42s WALL (      45 calls)
     addusd:skk   :      0.09s CPU      0.09s WALL (      90 calls)
     addusd:dgemm :      1.46s CPU      1.48s WALL (      90 calls)
     addusd:qvan2 :      5.42s CPU      5.44s WALL (      90 calls)

     Called by *egterg:
     cdiaghg      :     11.55s CPU     11.56s WALL (    1085 calls)
     cegterg:over :     48.38s CPU     48.43s WALL (     905 calls)
     cegterg:upda :     24.61s CPU     24.66s WALL (     905 calls)
     cegterg:last :     52.80s CPU     52.89s WALL (     506 calls)
     h_psi        :    387.23s CPU    388.31s WALL (    1089 calls)
     s_psi        :     40.83s CPU     40.86s WALL (    1089 calls)
     g_psi        :      2.02s CPU      2.03s WALL (     905 calls)

     Called by h_psi:
     h_psi:calbec :     49.72s CPU     49.78s WALL (    1089 calls)
     vloc_psi     :    293.63s CPU    294.57s WALL (    1089 calls)
     add_vuspsi   :     42.03s CPU     42.07s WALL (    1089 calls)

     General routines
     calbec       :     65.08s CPU     65.16s WALL (    1285 calls)
     fft          :     16.84s CPU     16.86s WALL (     607 calls)
     ffts         :      1.03s CPU      1.04s WALL (      91 calls)
     fftw         :    276.47s CPU    277.14s WALL (   71044 calls)
     interpolate  :      2.21s CPU      2.22s WALL (      46 calls)

     Parallel routines

     PWSCF        :  12m58.07s CPU  13m 1.27s WALL


   This run was terminated on:  23:59:12  27Aug2025            

=------------------------------------------------------------------------------=
   JOB DONE.
=------------------------------------------------------------------------------=
