
     Program PWSCF v.7.0 starts on 27Aug2025 at 14:17: 7 

     This program is part of the open-source Quantum ESPRESSO suite
     for quantum simulation of materials; please cite
         "P. Giannozzi et al., J. Phys.:Condens. Matter 21 395502 (2009);
         "P. Giannozzi et al., J. Phys.:Condens. Matter 29 465901 (2017);
         "P. Giannozzi et al., J. Chem. Phys. 152 154105 (2020);
          URL http://www.quantum-espresso.org", 
     in publications or presentations arising from this work. More details at
     http://www.quantum-espresso.org/quote

     Parallel version (MPI & OpenMP), running on      17 processor cores
     Number of MPI processes:                17
     Threads/MPI process:                     1

     MPI processes distributed on     1 nodes
     K-points division:     npool     =      17
     104268 MiB available memory on the printing compute node when the environment starts

     Reading input from /home/jvc/QEspresso7.2/ZnO_database/scripts/cell131.in/ZnO-3.07-1.49-131.in
Warning: card &CELL ignored
Warning: card / ignored
Warning: card &FCP ignored
Warning: card / ignored
Warning: card &RISM ignored
Warning: card / ignored

     Current dimensions of program PWSCF are:
     Max number of different atomic species (ntypx) = 10
     Max number of k-points (npk) =  40000
     Max angular momentum in pseudopotentials (lmaxx) =  4
     file Zn.upf: wavefunction(s)  3D renormalized
     Found identity + (  0.0000  0.3333  0.0000) symmetry
     This is a supercell, fractional translations are disabled
     Message from routine setup:
     using ibrav=0 with symmetry is DISCOURAGED, use correct ibrav instead

     Subspace diagonalization in iterative solution of the eigenvalue problem:
     a serial algorithm will be used


     G-vector sticks info
     --------------------
     sticks:   dense  smooth     PW     G-vecs:    dense   smooth      PW
     Sum        2791    1395    423               102101    36077    6011

     Using Slab Decomposition



     bravais-lattice index     =            0
     lattice parameter (alat)  =       5.8081  a.u.
     unit-cell volume          =     756.0439 (a.u.)^3
     number of atoms/cell      =           12
     number of atomic types    =            2
     number of electrons       =       108.00
     number of Kohn-Sham states=           54
     kinetic-energy cutoff     =      50.0000  Ry
     charge density cutoff     =     400.0000  Ry
     scf convergence threshold =      1.0E-08
     mixing beta               =       0.3000
     number of iterations used =            8  plain     mixing
     Exchange-correlation= PBE
                           (   1   4   3   4   0   0   0)

     celldm(1)=   5.808123  celldm(2)=   0.000000  celldm(3)=   0.000000
     celldm(4)=   0.000000  celldm(5)=   0.000000  celldm(6)=   0.000000

     crystal axes: (cart. coord. in units of alat)
               a(1) = (   1.000000   0.000000   0.000000 )  
               a(2) = (  -1.500000   2.598076   0.000000 )  
               a(3) = (   0.000000   0.000000   1.485210 )  

     reciprocal axes: (cart. coord. in units 2 pi/alat)
               b(1) = (  1.000000  0.577350 -0.000000 )  
               b(2) = (  0.000000  0.384900  0.000000 )  
               b(3) = (  0.000000 -0.000000  0.673306 )  


     PseudoPot. # 1 for Zn read from file:
     /home/jvc/QEspresso7.2/ZnO_database/pseudos/Zn.upf
     MD5 check sum: 7f56cabf9682ed8c977c2f7d0c5985c5
     Pseudo is Ultrasoft + core correction, Zval = 12.0
     Generated using &quot;atomic&quot; code by A. Dal Corso  v.6.2.2
     Using radial grid of 1201 points,  6 beta functions with: 
                l(1) =   0
                l(2) =   0
                l(3) =   1
                l(4) =   1
                l(5) =   2
                l(6) =   2
     Q(r) pseudized with 0 coefficients 


     PseudoPot. # 2 for O  read from file:
     /home/jvc/QEspresso7.2/ZnO_database/pseudos/O.upf
     MD5 check sum: 91400c9766925bcf19f520983a725ff0
     Pseudo is Ultrasoft + core correction, Zval =  6.0
     Generated using &quot;atomic&quot; code by A. Dal Corso  v.6.3MaX
     Using radial grid of 1095 points,  4 beta functions with: 
                l(1) =   0
                l(2) =   0
                l(3) =   1
                l(4) =   1
     Q(r) pseudized with 0 coefficients 


     atomic species   valence    mass     pseudopotential
        Zn            12.00    65.38000     Zn( 1.00)
        O              6.00    15.99900     O ( 1.00)

      2 Sym. Ops. (no inversion) found


                                    s                        frac. trans.

      isym =  1     identity                                     

 cryst.   s( 1) = (     1          0          0      )
                  (     0          1          0      )
                  (     0          0          1      )

 cart.    s( 1) = (  1.0000000  0.0000000  0.0000000 )
                  (  0.0000000  1.0000000  0.0000000 )
                  (  0.0000000  0.0000000  1.0000000 )


      isym =  2     inv. 180 deg rotation - cart. axis [1,0,0]   

 cryst.   s( 2) = (    -1          0          0      )
                  (     3          1          0      )
                  (     0          0          1      )

 cart.    s( 2) = ( -1.0000000  0.0000000  0.0000000 )
                  (  0.0000000  1.0000000  0.0000000 )
                  (  0.0000000  0.0000000  1.0000000 )


   Cartesian axes

     site n.     atom                  positions (alat units)
         1           Zn  tau(   1) = (   0.5000000   0.2886751   0.7435459  )
         2           Zn  tau(   2) = (   0.0000000   0.5773503   0.0009410  )
         3           O   tau(   3) = (   0.5000000   0.2886751   1.3065039  )
         4           O   tau(   4) = (   0.0000000   0.5773503   0.5638991  )
         5           Zn  tau(   5) = (   0.0000000   1.1547005   0.7435459  )
         6           Zn  tau(   6) = (  -0.5000000   1.4433757   0.0009410  )
         7           O   tau(   7) = (   0.0000000   1.1547005   1.3065039  )
         8           O   tau(   8) = (  -0.5000000   1.4433757   0.5638991  )
         9           Zn  tau(   9) = (  -0.5000000   2.0207259   0.7435459  )
        10           Zn  tau(  10) = (  -1.0000000   2.3094011   0.0009410  )
        11           O   tau(  11) = (  -0.5000000   2.0207259   1.3065039  )
        12           O   tau(  12) = (  -1.0000000   2.3094011   0.5638991  )

   Crystallographic axes

     site n.     atom                  positions (cryst. coord.)
         1           Zn  tau(   1) = (  0.6666667  0.1111111  0.5006336  )
         2           Zn  tau(   2) = (  0.3333333  0.2222222  0.0006336  )
         3           O   tau(   3) = (  0.6666667  0.1111111  0.8796764  )
         4           O   tau(   4) = (  0.3333333  0.2222222  0.3796764  )
         5           Zn  tau(   5) = (  0.6666667  0.4444444  0.5006336  )
         6           Zn  tau(   6) = (  0.3333333  0.5555556  0.0006336  )
         7           O   tau(   7) = (  0.6666667  0.4444444  0.8796764  )
         8           O   tau(   8) = (  0.3333333  0.5555556  0.3796764  )
         9           Zn  tau(   9) = (  0.6666667  0.7777778  0.5006336  )
        10           Zn  tau(  10) = (  0.3333333  0.8888889  0.0006336  )
        11           O   tau(  11) = (  0.6666667  0.7777778  0.8796764  )
        12           O   tau(  12) = (  0.3333333  0.8888889  0.3796764  )

     number of k points=    68
                       cart. coord. in units 2pi/alat
        k(    1) = (   0.0000000   0.0000000   0.0000000), wk =   0.0092593
        k(    2) = (   0.0000000   0.0000000   0.1122176), wk =   0.0185185
        k(    3) = (   0.0000000   0.0000000   0.2244352), wk =   0.0185185
        k(    4) = (   0.0000000   0.0000000  -0.3366528), wk =   0.0092593
        k(    5) = (   0.0000000   0.0641500   0.0000000), wk =   0.0185185
        k(    6) = (   0.0000000   0.0641500   0.1122176), wk =   0.0185185
        k(    7) = (   0.0000000   0.0641500   0.2244352), wk =   0.0185185
        k(    8) = (   0.0000000   0.0641500  -0.3366528), wk =   0.0185185
        k(    9) = (   0.0000000   0.1283001   0.0000000), wk =   0.0185185
        k(   10) = (   0.0000000   0.1283001   0.1122176), wk =   0.0185185
        k(   11) = (   0.0000000   0.1283001   0.2244352), wk =   0.0185185
        k(   12) = (   0.0000000   0.1283001  -0.3366528), wk =   0.0185185
        k(   13) = (   0.0000000  -0.1924501   0.0000000), wk =   0.0092593
        k(   14) = (   0.0000000  -0.1924501   0.1122176), wk =   0.0185185
        k(   15) = (   0.0000000  -0.1924501   0.2244352), wk =   0.0185185
        k(   16) = (   0.0000000  -0.1924501  -0.3366528), wk =   0.0092593
        k(   17) = (   0.1666667   0.0962250   0.0000000), wk =   0.0370370
        k(   18) = (   0.1666667   0.0962250   0.1122176), wk =   0.0370370
        k(   19) = (   0.1666667   0.0962250   0.2244352), wk =   0.0370370
        k(   20) = (   0.1666667   0.0962250  -0.3366528), wk =   0.0370370
        k(   21) = (   0.1666667   0.1603751   0.0000000), wk =   0.0370370
        k(   22) = (   0.1666667   0.1603751   0.1122176), wk =   0.0370370
        k(   23) = (   0.1666667   0.1603751   0.2244352), wk =   0.0370370
        k(   24) = (   0.1666667   0.1603751  -0.3366528), wk =   0.0370370
        k(   25) = (   0.1666667  -0.0320750   0.0000000), wk =   0.0370370
        k(   26) = (   0.1666667  -0.0320750   0.1122176), wk =   0.0370370
        k(   27) = (   0.1666667  -0.0320750   0.2244352), wk =   0.0370370
        k(   28) = (   0.1666667  -0.0320750  -0.3366528), wk =   0.0370370
        k(   29) = (   0.3333333   0.1924501   0.0000000), wk =   0.0185185
        k(   30) = (   0.3333333   0.1924501   0.1122176), wk =   0.0370370
        k(   31) = (   0.3333333   0.1924501   0.2244352), wk =   0.0370370
        k(   32) = (   0.3333333   0.1924501  -0.3366528), wk =   0.0185185
        k(   33) = (   0.3333333   0.2566001   0.0000000), wk =   0.0370370
        k(   34) = (   0.3333333   0.2566001   0.1122176), wk =   0.0370370
        k(   35) = (   0.3333333   0.2566001   0.2244352), wk =   0.0370370
        k(   36) = (   0.3333333   0.2566001  -0.3366528), wk =   0.0370370
        k(   37) = (   0.3333333   0.3207501   0.0000000), wk =   0.0370370
        k(   38) = (   0.3333333   0.3207501   0.1122176), wk =   0.0370370
        k(   39) = (   0.3333333   0.3207501   0.2244352), wk =   0.0370370
        k(   40) = (   0.3333333   0.3207501  -0.3366528), wk =   0.0370370
        k(   41) = (   0.3333333  -0.0000000   0.0000000), wk =   0.0185185
        k(   42) = (   0.3333333  -0.0000000   0.1122176), wk =   0.0370370
        k(   43) = (   0.3333333  -0.0000000   0.2244352), wk =   0.0370370
        k(   44) = (   0.3333333  -0.0000000  -0.3366528), wk =   0.0185185
        k(   45) = (  -0.5000000  -0.2886751   0.0000000), wk =   0.0185185
        k(   46) = (  -0.5000000  -0.2886751   0.1122176), wk =   0.0370370
        k(   47) = (  -0.5000000  -0.2886751   0.2244352), wk =   0.0370370
        k(   48) = (  -0.5000000  -0.2886751  -0.3366528), wk =   0.0185185
        k(   49) = (  -0.5000000  -0.2245251   0.0000000), wk =   0.0370370
        k(   50) = (  -0.5000000  -0.2245251   0.1122176), wk =   0.0370370
        k(   51) = (  -0.5000000  -0.2245251   0.2244352), wk =   0.0370370
        k(   52) = (  -0.5000000  -0.2245251  -0.3366528), wk =   0.0370370
        k(   53) = (   0.0000000   0.0641500  -0.1122176), wk =   0.0185185
        k(   54) = (   0.0000000   0.0641500  -0.2244352), wk =   0.0185185
        k(   55) = (   0.0000000   0.1283001  -0.1122176), wk =   0.0185185
        k(   56) = (   0.0000000   0.1283001  -0.2244352), wk =   0.0185185
        k(   57) = (  -0.1666667   0.0962250  -0.1122176), wk =   0.0370370
        k(   58) = (  -0.1666667   0.0962250  -0.2244352), wk =   0.0370370
        k(   59) = (  -0.1666667   0.1603751  -0.1122176), wk =   0.0370370
        k(   60) = (  -0.1666667   0.1603751  -0.2244352), wk =   0.0370370
        k(   61) = (  -0.1666667  -0.0320750  -0.1122176), wk =   0.0370370
        k(   62) = (  -0.1666667  -0.0320750  -0.2244352), wk =   0.0370370
        k(   63) = (  -0.3333333   0.2566001  -0.1122176), wk =   0.0370370
        k(   64) = (  -0.3333333   0.2566001  -0.2244352), wk =   0.0370370
        k(   65) = (  -0.3333333   0.3207501  -0.1122176), wk =   0.0370370
        k(   66) = (  -0.3333333   0.3207501  -0.2244352), wk =   0.0370370
        k(   67) = (   0.5000000  -0.2245251  -0.1122176), wk =   0.0370370
        k(   68) = (   0.5000000  -0.2245251  -0.2244352), wk =   0.0370370

                       cryst. coord.
        k(    1) = (   0.0000000   0.0000000   0.0000000), wk =   0.0092593
        k(    2) = (   0.0000000   0.0000000   0.1666667), wk =   0.0185185
        k(    3) = (   0.0000000   0.0000000   0.3333333), wk =   0.0185185
        k(    4) = (   0.0000000   0.0000000  -0.5000000), wk =   0.0092593
        k(    5) = (   0.0000000   0.1666667   0.0000000), wk =   0.0185185
        k(    6) = (   0.0000000   0.1666667   0.1666667), wk =   0.0185185
        k(    7) = (   0.0000000   0.1666667   0.3333333), wk =   0.0185185
        k(    8) = (   0.0000000   0.1666667  -0.5000000), wk =   0.0185185
        k(    9) = (   0.0000000   0.3333333   0.0000000), wk =   0.0185185
        k(   10) = (   0.0000000   0.3333333   0.1666667), wk =   0.0185185
        k(   11) = (   0.0000000   0.3333333   0.3333333), wk =   0.0185185
        k(   12) = (   0.0000000   0.3333333  -0.5000000), wk =   0.0185185
        k(   13) = (   0.0000000  -0.5000000   0.0000000), wk =   0.0092593
        k(   14) = (   0.0000000  -0.5000000   0.1666667), wk =   0.0185185
        k(   15) = (   0.0000000  -0.5000000   0.3333333), wk =   0.0185185
        k(   16) = (   0.0000000  -0.5000000  -0.5000000), wk =   0.0092593
        k(   17) = (   0.1666667   0.0000000   0.0000000), wk =   0.0370370
        k(   18) = (   0.1666667   0.0000000   0.1666667), wk =   0.0370370
        k(   19) = (   0.1666667   0.0000000   0.3333333), wk =   0.0370370
        k(   20) = (   0.1666667   0.0000000  -0.5000000), wk =   0.0370370
        k(   21) = (   0.1666667   0.1666667   0.0000000), wk =   0.0370370
        k(   22) = (   0.1666667   0.1666667   0.1666667), wk =   0.0370370
        k(   23) = (   0.1666667   0.1666667   0.3333333), wk =   0.0370370
        k(   24) = (   0.1666667   0.1666667  -0.5000000), wk =   0.0370370
        k(   25) = (   0.1666667  -0.3333333   0.0000000), wk =   0.0370370
        k(   26) = (   0.1666667  -0.3333333   0.1666667), wk =   0.0370370
        k(   27) = (   0.1666667  -0.3333333   0.3333333), wk =   0.0370370
        k(   28) = (   0.1666667  -0.3333333  -0.5000000), wk =   0.0370370
        k(   29) = (   0.3333333   0.0000000   0.0000000), wk =   0.0185185
        k(   30) = (   0.3333333   0.0000000   0.1666667), wk =   0.0370370
        k(   31) = (   0.3333333   0.0000000   0.3333333), wk =   0.0370370
        k(   32) = (   0.3333333   0.0000000  -0.5000000), wk =   0.0185185
        k(   33) = (   0.3333333   0.1666667   0.0000000), wk =   0.0370370
        k(   34) = (   0.3333333   0.1666667   0.1666667), wk =   0.0370370
        k(   35) = (   0.3333333   0.1666667   0.3333333), wk =   0.0370370
        k(   36) = (   0.3333333   0.1666667  -0.5000000), wk =   0.0370370
        k(   37) = (   0.3333333   0.3333333   0.0000000), wk =   0.0370370
        k(   38) = (   0.3333333   0.3333333   0.1666667), wk =   0.0370370
        k(   39) = (   0.3333333   0.3333333   0.3333333), wk =   0.0370370
        k(   40) = (   0.3333333   0.3333333  -0.5000000), wk =   0.0370370
        k(   41) = (   0.3333333  -0.5000000   0.0000000), wk =   0.0185185
        k(   42) = (   0.3333333  -0.5000000   0.1666667), wk =   0.0370370
        k(   43) = (   0.3333333  -0.5000000   0.3333333), wk =   0.0370370
        k(   44) = (   0.3333333  -0.5000000  -0.5000000), wk =   0.0185185
        k(   45) = (  -0.5000000   0.0000000   0.0000000), wk =   0.0185185
        k(   46) = (  -0.5000000   0.0000000   0.1666667), wk =   0.0370370
        k(   47) = (  -0.5000000   0.0000000   0.3333333), wk =   0.0370370
        k(   48) = (  -0.5000000   0.0000000  -0.5000000), wk =   0.0185185
        k(   49) = (  -0.5000000   0.1666667   0.0000000), wk =   0.0370370
        k(   50) = (  -0.5000000   0.1666667   0.1666667), wk =   0.0370370
        k(   51) = (  -0.5000000   0.1666667   0.3333333), wk =   0.0370370
        k(   52) = (  -0.5000000   0.1666667  -0.5000000), wk =   0.0370370
        k(   53) = (   0.0000000   0.1666667  -0.1666667), wk =   0.0185185
        k(   54) = (   0.0000000   0.1666667  -0.3333333), wk =   0.0185185
        k(   55) = (   0.0000000   0.3333333  -0.1666667), wk =   0.0185185
        k(   56) = (   0.0000000   0.3333333  -0.3333333), wk =   0.0185185
        k(   57) = (  -0.1666667   0.5000000  -0.1666667), wk =   0.0370370
        k(   58) = (  -0.1666667   0.5000000  -0.3333333), wk =   0.0370370
        k(   59) = (  -0.1666667   0.6666667  -0.1666667), wk =   0.0370370
        k(   60) = (  -0.1666667   0.6666667  -0.3333333), wk =   0.0370370
        k(   61) = (  -0.1666667   0.1666667  -0.1666667), wk =   0.0370370
        k(   62) = (  -0.1666667   0.1666667  -0.3333333), wk =   0.0370370
        k(   63) = (  -0.3333333   1.1666667  -0.1666667), wk =   0.0370370
        k(   64) = (  -0.3333333   1.1666667  -0.3333333), wk =   0.0370370
        k(   65) = (  -0.3333333   1.3333333  -0.1666667), wk =   0.0370370
        k(   66) = (  -0.3333333   1.3333333  -0.3333333), wk =   0.0370370
        k(   67) = (   0.5000000  -1.3333333  -0.1666667), wk =   0.0370370
        k(   68) = (   0.5000000  -1.3333333  -0.3333333), wk =   0.0370370

     Dense  grid:   102101 G-vectors     FFT dimensions: (  40, 120,  60)

     Smooth grid:    36077 G-vectors     FFT dimensions: (  27,  80,  40)

     Dynamical RAM for                 wfc:       3.72 MB

     Dynamical RAM for     wfc (w. buffer):      18.60 MB

     Dynamical RAM for           str. fact:       3.12 MB

     Dynamical RAM for           local pot:       0.00 MB

     Dynamical RAM for          nlocal pot:      10.74 MB

     Dynamical RAM for                qrad:       3.21 MB

     Dynamical RAM for          rho,v,vnew:      11.27 MB

     Dynamical RAM for               rhoin:       3.76 MB

     Dynamical RAM for            rho*nmix:      24.93 MB

     Dynamical RAM for           G-vectors:       6.12 MB

     Dynamical RAM for          h,s,v(r/c):       0.53 MB

     Dynamical RAM for          <psi|beta>:       0.13 MB

     Dynamical RAM for                 psi:       7.44 MB

     Dynamical RAM for                hpsi:       7.44 MB

     Dynamical RAM for                spsi:       7.44 MB

     Dynamical RAM for      wfcinit/wfcrot:      10.88 MB

     Dynamical RAM for           addusdens:      19.06 MB

     Dynamical RAM for          addusforce:      19.31 MB

     Estimated static dynamical RAM per process >      72.47 MB

     Estimated max dynamical RAM per process >     120.37 MB

     Estimated total dynamical RAM >       1.61 GB

     Check: negative core charge=   -0.000001

     Initial potential from superposition of free atoms

     starting charge     107.9776, renormalised to     108.0000
     Starting wfcs are   78 randomized atomic wfcs

     total cpu time spent up to now is       11.8 secs

     per-process dynamical memory:    93.6 Mb

     Self-consistent Calculation

     iteration #  1     ecut=    50.00 Ry     beta= 0.30
     Davidson diagonalization with overlap

---- Real-time Memory Report at c_bands before calling an iterative solver
           115 MiB given to the printing process from OS
            91 MiB allocation reported by mallinfo(arena+hblkhd)
        103914 MiB available memory on the node where the printing process lives
------------------
     ethr =  1.00E-02,  avg # of iterations =  2.1

     total cpu time spent up to now is       20.9 secs

     total energy              =   -1084.01041789 Ry
     estimated scf accuracy    <       2.07575199 Ry

     iteration #  2     ecut=    50.00 Ry     beta= 0.30
     Davidson diagonalization with overlap

---- Real-time Memory Report at c_bands before calling an iterative solver
           154 MiB given to the printing process from OS
           129 MiB allocation reported by mallinfo(arena+hblkhd)
        102124 MiB available memory on the node where the printing process lives
------------------
     ethr =  1.92E-03,  avg # of iterations =  2.2

     total cpu time spent up to now is       31.4 secs

     total energy              =   -1084.13376830 Ry
     estimated scf accuracy    <       0.41284014 Ry

     iteration #  3     ecut=    50.00 Ry     beta= 0.30
     Davidson diagonalization with overlap

---- Real-time Memory Report at c_bands before calling an iterative solver
           155 MiB given to the printing process from OS
           130 MiB allocation reported by mallinfo(arena+hblkhd)
        102495 MiB available memory on the node where the printing process lives
------------------
     ethr =  3.82E-04,  avg # of iterations =  6.7

     total cpu time spent up to now is       49.6 secs

     total energy              =   -1084.38420766 Ry
     estimated scf accuracy    <       0.25774629 Ry

     iteration #  4     ecut=    50.00 Ry     beta= 0.30
     Davidson diagonalization with overlap

---- Real-time Memory Report at c_bands before calling an iterative solver
           156 MiB given to the printing process from OS
           132 MiB allocation reported by mallinfo(arena+hblkhd)
        102508 MiB available memory on the node where the printing process lives
------------------
     ethr =  2.39E-04,  avg # of iterations =  2.0

     total cpu time spent up to now is       59.7 secs

     total energy              =   -1084.38004055 Ry
     estimated scf accuracy    <       0.06932058 Ry

     iteration #  5     ecut=    50.00 Ry     beta= 0.30
     Davidson diagonalization with overlap

---- Real-time Memory Report at c_bands before calling an iterative solver
           157 MiB given to the printing process from OS
           133 MiB allocation reported by mallinfo(arena+hblkhd)
        102539 MiB available memory on the node where the printing process lives
------------------
     ethr =  6.42E-05,  avg # of iterations =  9.9

     total cpu time spent up to now is       86.0 secs

     total energy              =   -1084.54508346 Ry
     estimated scf accuracy    <       1.24950058 Ry

     iteration #  6     ecut=    50.00 Ry     beta= 0.30
     Davidson diagonalization with overlap

---- Real-time Memory Report at c_bands before calling an iterative solver
           158 MiB given to the printing process from OS
           134 MiB allocation reported by mallinfo(arena+hblkhd)
        102586 MiB available memory on the node where the printing process lives
------------------
     ethr =  6.42E-05,  avg # of iterations =  5.0

     total cpu time spent up to now is      100.0 secs

     total energy              =   -1084.31869355 Ry
     estimated scf accuracy    <       0.63124766 Ry

     iteration #  7     ecut=    50.00 Ry     beta= 0.30
     Davidson diagonalization with overlap

---- Real-time Memory Report at c_bands before calling an iterative solver
           159 MiB given to the printing process from OS
           135 MiB allocation reported by mallinfo(arena+hblkhd)
        102528 MiB available memory on the node where the printing process lives
------------------
     ethr =  6.42E-05,  avg # of iterations =  7.3

     total cpu time spent up to now is      120.3 secs

     total energy              =   -1084.40487156 Ry
     estimated scf accuracy    <       0.01688774 Ry

     iteration #  8     ecut=    50.00 Ry     beta= 0.30
     Davidson diagonalization with overlap

---- Real-time Memory Report at c_bands before calling an iterative solver
           160 MiB given to the printing process from OS
           136 MiB allocation reported by mallinfo(arena+hblkhd)
        102532 MiB available memory on the node where the printing process lives
------------------
     ethr =  1.56E-05,  avg # of iterations =  7.0

     total cpu time spent up to now is      138.5 secs

     total energy              =   -1084.41474343 Ry
     estimated scf accuracy    <       0.00878277 Ry

     iteration #  9     ecut=    50.00 Ry     beta= 0.30
     Davidson diagonalization with overlap

---- Real-time Memory Report at c_bands before calling an iterative solver
           161 MiB given to the printing process from OS
           137 MiB allocation reported by mallinfo(arena+hblkhd)
        102356 MiB available memory on the node where the printing process lives
------------------
     ethr =  8.13E-06,  avg # of iterations =  1.5

     total cpu time spent up to now is      147.4 secs

     total energy              =   -1084.41188705 Ry
     estimated scf accuracy    <       0.00519532 Ry

     iteration # 10     ecut=    50.00 Ry     beta= 0.30
     Davidson diagonalization with overlap

---- Real-time Memory Report at c_bands before calling an iterative solver
           162 MiB given to the printing process from OS
           138 MiB allocation reported by mallinfo(arena+hblkhd)
        102588 MiB available memory on the node where the printing process lives
------------------
     ethr =  4.81E-06,  avg # of iterations =  5.3

     total cpu time spent up to now is      162.6 secs

     total energy              =   -1084.41406946 Ry
     estimated scf accuracy    <       0.00039622 Ry

     iteration # 11     ecut=    50.00 Ry     beta= 0.30
     Davidson diagonalization with overlap

---- Real-time Memory Report at c_bands before calling an iterative solver
           162 MiB given to the printing process from OS
           138 MiB allocation reported by mallinfo(arena+hblkhd)
        102729 MiB available memory on the node where the printing process lives
------------------
     ethr =  3.67E-07,  avg # of iterations =  6.1

     total cpu time spent up to now is      179.6 secs

     total energy              =   -1084.41417804 Ry
     estimated scf accuracy    <       0.00090215 Ry

     iteration # 12     ecut=    50.00 Ry     beta= 0.30
     Davidson diagonalization with overlap

---- Real-time Memory Report at c_bands before calling an iterative solver
           162 MiB given to the printing process from OS
           138 MiB allocation reported by mallinfo(arena+hblkhd)
        102736 MiB available memory on the node where the printing process lives
------------------
     ethr =  3.67E-07,  avg # of iterations =  1.0

     total cpu time spent up to now is      188.4 secs

     total energy              =   -1084.41391995 Ry
     estimated scf accuracy    <       0.00060454 Ry

     iteration # 13     ecut=    50.00 Ry     beta= 0.30
     Davidson diagonalization with overlap

---- Real-time Memory Report at c_bands before calling an iterative solver
           162 MiB given to the printing process from OS
           138 MiB allocation reported by mallinfo(arena+hblkhd)
        102594 MiB available memory on the node where the printing process lives
------------------
     ethr =  3.67E-07,  avg # of iterations =  4.0

     total cpu time spent up to now is      201.7 secs

     total energy              =   -1084.41404358 Ry
     estimated scf accuracy    <       0.00001207 Ry

     iteration # 14     ecut=    50.00 Ry     beta= 0.30
     Davidson diagonalization with overlap

---- Real-time Memory Report at c_bands before calling an iterative solver
           162 MiB given to the printing process from OS
           138 MiB allocation reported by mallinfo(arena+hblkhd)
        102613 MiB available memory on the node where the printing process lives
------------------
     ethr =  1.12E-08,  avg # of iterations =  7.2

     total cpu time spent up to now is      222.2 secs

     total energy              =   -1084.41406201 Ry
     estimated scf accuracy    <       0.00000225 Ry

     iteration # 15     ecut=    50.00 Ry     beta= 0.30
     Davidson diagonalization with overlap

---- Real-time Memory Report at c_bands before calling an iterative solver
           162 MiB given to the printing process from OS
           138 MiB allocation reported by mallinfo(arena+hblkhd)
        102596 MiB available memory on the node where the printing process lives
------------------
     ethr =  2.08E-09,  avg # of iterations =  6.3

     total cpu time spent up to now is      237.4 secs

     total energy              =   -1084.41406376 Ry
     estimated scf accuracy    <       0.00000024 Ry

     iteration # 16     ecut=    50.00 Ry     beta= 0.30
     Davidson diagonalization with overlap

---- Real-time Memory Report at c_bands before calling an iterative solver
           162 MiB given to the printing process from OS
           138 MiB allocation reported by mallinfo(arena+hblkhd)
        102634 MiB available memory on the node where the printing process lives
------------------
     ethr =  2.24E-10,  avg # of iterations =  9.3

     total cpu time spent up to now is      261.9 secs

     total energy              =   -1084.41406280 Ry
     estimated scf accuracy    <       0.00000523 Ry

     iteration # 17     ecut=    50.00 Ry     beta= 0.30
     Davidson diagonalization with overlap

---- Real-time Memory Report at c_bands before calling an iterative solver
           162 MiB given to the printing process from OS
           138 MiB allocation reported by mallinfo(arena+hblkhd)
        102555 MiB available memory on the node where the printing process lives
------------------
     ethr =  2.24E-10,  avg # of iterations =  7.9

     total cpu time spent up to now is      281.6 secs

     total energy              =   -1084.41406289 Ry
     estimated scf accuracy    <       0.00000071 Ry

     iteration # 18     ecut=    50.00 Ry     beta= 0.30
     Davidson diagonalization with overlap

---- Real-time Memory Report at c_bands before calling an iterative solver
           162 MiB given to the printing process from OS
           138 MiB allocation reported by mallinfo(arena+hblkhd)
        104100 MiB available memory on the node where the printing process lives
------------------
     ethr =  2.24E-10,  avg # of iterations =  6.1

     total cpu time spent up to now is      297.6 secs

     total energy              =   -1084.41406305 Ry
     estimated scf accuracy    <       0.00000002 Ry

     iteration # 19     ecut=    50.00 Ry     beta= 0.30
     Davidson diagonalization with overlap

---- Real-time Memory Report at c_bands before calling an iterative solver
           162 MiB given to the printing process from OS
           138 MiB allocation reported by mallinfo(arena+hblkhd)
        102133 MiB available memory on the node where the printing process lives
------------------
     ethr =  1.45E-11,  avg # of iterations =  6.5

     total cpu time spent up to now is      315.8 secs

     total energy              =   -1084.41406304 Ry
     estimated scf accuracy    <       0.00000013 Ry

     iteration # 20     ecut=    50.00 Ry     beta= 0.30
     Davidson diagonalization with overlap

---- Real-time Memory Report at c_bands before calling an iterative solver
           162 MiB given to the printing process from OS
           138 MiB allocation reported by mallinfo(arena+hblkhd)
        102512 MiB available memory on the node where the printing process lives
------------------
     ethr =  1.45E-11,  avg # of iterations =  4.6

     total cpu time spent up to now is      327.7 secs

     total energy              =   -1084.41406302 Ry
     estimated scf accuracy    <       0.00000006 Ry

     iteration # 21     ecut=    50.00 Ry     beta= 0.30
     Davidson diagonalization with overlap

---- Real-time Memory Report at c_bands before calling an iterative solver
           162 MiB given to the printing process from OS
           138 MiB allocation reported by mallinfo(arena+hblkhd)
        102463 MiB available memory on the node where the printing process lives
------------------
     ethr =  1.45E-11,  avg # of iterations =  6.0

     total cpu time spent up to now is      344.5 secs

     End of self-consistent calculation

          k = 0.0000 0.0000 0.0000 (  4533 PWs)   bands (ev):

    -8.9650  -8.2559  -8.2559  -7.6167  -7.4729  -7.4729   3.6087   3.6087
     3.8590   4.0911   4.0911   4.2491   4.2492   4.2967   4.4990   4.4990
     4.5716   4.5716   4.5884   4.5885   5.0876   5.0876   5.1458   5.1458
     6.0324   6.0324   6.1788   6.1788   6.3264   6.3264   6.4874   6.4874
     6.6243   6.6244   6.7042   6.7042   6.9843   7.2484   7.2484   7.7525
     7.7525   8.5696   8.5696   8.9179   8.9179  10.0280  10.0281  10.4370
    10.4370  10.6515  10.6515  11.3981  11.3983  11.4269

     occupation numbers 
     1.0000   1.0000   1.0000   1.0000   1.0000   1.0000   1.0000   1.0000
     1.0000   1.0000   1.0000   1.0000   1.0000   1.0000   1.0000   1.0000
     1.0000   1.0000   1.0000   1.0000   1.0000   1.0000   1.0000   1.0000
     1.0000   1.0000   1.0000   1.0000   1.0000   1.0000   1.0000   1.0000
     1.0000   1.0000   1.0000   1.0000   1.0000   1.0000   1.0000   1.0000
     1.0000   1.0000   1.0000   1.0000   1.0000   1.0000   1.0000   1.0000
     1.0000   1.0000   1.0000   1.0000   1.0000   1.0000

          k = 0.0000 0.0000 0.1122 (  4531 PWs)   bands (ev):

    -8.8795  -8.1985  -8.1985  -7.7112  -7.5182  -7.5182   3.5260   3.5260
     3.7255   3.8462   3.8462   4.1715   4.2531   4.2533   4.5245   4.5245
     4.5438   4.5439   4.5504   4.5504   4.9320   4.9320   5.0759   5.0759
     6.1304   6.1304   6.2273   6.2274   6.3517   6.3517   6.6183   6.6183
     6.6740   6.6740   6.6931   6.6931   7.3765   7.3765   7.4036   7.9921
     7.9921   8.7387   8.7387   8.8214   8.8214  10.1203  10.1205  10.5285
    10.5285  10.5476  10.5476  10.9450  11.3100  11.3102

     occupation numbers 
     1.0000   1.0000   1.0000   1.0000   1.0000   1.0000   1.0000   1.0000
     1.0000   1.0000   1.0000   1.0000   1.0000   1.0000   1.0000   1.0000
     1.0000   1.0000   1.0000   1.0000   1.0000   1.0000   1.0000   1.0000
     1.0000   1.0000   1.0000   1.0000   1.0000   1.0000   1.0000   1.0000
     1.0000   1.0000   1.0000   1.0000   1.0000   1.0000   1.0000   1.0000
     1.0000   1.0000   1.0000   1.0000   1.0000   1.0000   1.0000   1.0000
     1.0000   1.0000   1.0000   1.0000   1.0000   1.0000

          k = 0.0000 0.0000 0.2244 (  4534 PWs)   bands (ev):

    -8.6423  -8.0439  -8.0439  -7.9668  -7.6487  -7.6487   3.3503   3.3503
     3.4656   3.4656   3.5729   3.8859   4.2774   4.2775   4.4419   4.4420
     4.5386   4.5386   4.6032   4.6032   4.7319   4.7319   4.9125   4.9125
     6.3329   6.3329   6.3475   6.3475   6.4192   6.4192   6.5791   6.5791
     6.6007   6.6007   6.6988   6.6988   7.7300   7.7301   8.2839   8.2839
     8.3287   9.1001   9.1001   9.1649   9.1649  10.1848  10.1848  10.1891
    10.3749  10.3750  10.5188  10.5188  11.0651  11.0653

     occupation numbers 
     1.0000   1.0000   1.0000   1.0000   1.0000   1.0000   1.0000   1.0000
     1.0000   1.0000   1.0000   1.0000   1.0000   1.0000   1.0000   1.0000
     1.0000   1.0000   1.0000   1.0000   1.0000   1.0000   1.0000   1.0000
     1.0000   1.0000   1.0000   1.0000   1.0000   1.0000   1.0000   1.0000
     1.0000   1.0000   1.0000   1.0000   1.0000   1.0000   1.0000   1.0000
     1.0000   1.0000   1.0000   1.0000   1.0000   1.0000   1.0000   1.0000
     1.0000   1.0000   1.0000   1.0000   1.0000   1.0000

          k = 0.0000 0.0000-0.3367 (  4536 PWs)   bands (ev):

    -8.3093  -8.3093  -7.8403  -7.8403  -7.8403  -7.8403   3.2850   3.2850
     3.2850   3.2850   3.6329   3.6329   4.3413   4.3413   4.3414   4.3414
     4.5967   4.5967   4.5967   4.5967   4.7376   4.7376   4.7376   4.7376
     6.4825   6.4825   6.4825   6.4825   6.5092   6.5092   6.5092   6.5092
     6.5417   6.5417   6.5417   6.5417   8.0537   8.0537   8.0537   8.0537
     9.3200   9.3200   9.6935   9.6935   9.6935   9.6935   9.9732   9.9732
     9.9732   9.9732  10.7227  10.7227  10.7229  10.7229

     occupation numbers 
     1.0000   1.0000   1.0000   1.0000   1.0000   1.0000   1.0000   1.0000
     1.0000   1.0000   1.0000   1.0000   1.0000   1.0000   1.0000   1.0000
     1.0000   1.0000   1.0000   1.0000   1.0000   1.0000   1.0000   1.0000
     1.0000   1.0000   1.0000   1.0000   1.0000   1.0000   1.0000   1.0000
     1.0000   1.0000   1.0000   1.0000   1.0000   1.0000   1.0000   1.0000
     1.0000   1.0000   1.0000   1.0000   1.0000   1.0000   1.0000   1.0000
     1.0000   1.0000   1.0000   1.0000   1.0000   1.0000

          k = 0.0000 0.0642 0.0000 (  4538 PWs)   bands (ev):

    -8.9401  -8.4321  -8.0935  -7.6088  -7.4892  -7.4752   3.5906   3.6810
     3.8858   3.9841   4.1644   4.1912   4.2613   4.3361   4.4577   4.4970
     4.5263   4.5832   4.6060   4.6388   4.9224   4.9962   5.1573   5.2875
     5.9845   6.1664   6.1722   6.1771   6.2562   6.4078   6.5156   6.5448
     6.6236   6.6289   6.6906   6.7149   6.9917   7.0523   7.2524   7.7333
     8.0600   8.2717   8.4331   8.9060   9.4013   9.9058   9.9705  10.1810
    10.4975  10.7086  10.8308  11.1718  11.3722  11.4044

     occupation numbers 
     1.0000   1.0000   1.0000   1.0000   1.0000   1.0000   1.0000   1.0000
     1.0000   1.0000   1.0000   1.0000   1.0000   1.0000   1.0000   1.0000
     1.0000   1.0000   1.0000   1.0000   1.0000   1.0000   1.0000   1.0000
     1.0000   1.0000   1.0000   1.0000   1.0000   1.0000   1.0000   1.0000
     1.0000   1.0000   1.0000   1.0000   1.0000   1.0000   1.0000   1.0000
     1.0000   1.0000   1.0000   1.0000   1.0000   1.0000   1.0000   1.0000
     1.0000   1.0000   1.0000   1.0000   1.0000   1.0000

          k = 0.0000 0.0642 0.1122 (  4529 PWs)   bands (ev):

    -8.8554  -8.3663  -8.0450  -7.7017  -7.5476  -7.5076   3.4979   3.6014
     3.7411   3.7694   3.8957   4.1179   4.2659   4.2887   4.4764   4.4907
     4.5429   4.5577   4.5614   4.6077   4.8041   4.9361   5.0136   5.2057
     6.0947   6.2175   6.2257   6.2303   6.2902   6.4240   6.6218   6.6234
     6.6655   6.6749   6.6788   6.7488   7.1075   7.4093   7.5255   7.8973
     8.2163   8.4649   8.5005   9.0535   9.2507  10.0000  10.0656  10.3205
    10.3694  10.7142  10.7783  10.8086  11.2823  11.3013

     occupation numbers 
     1.0000   1.0000   1.0000   1.0000   1.0000   1.0000   1.0000   1.0000
     1.0000   1.0000   1.0000   1.0000   1.0000   1.0000   1.0000   1.0000
     1.0000   1.0000   1.0000   1.0000   1.0000   1.0000   1.0000   1.0000
     1.0000   1.0000   1.0000   1.0000   1.0000   1.0000   1.0000   1.0000
     1.0000   1.0000   1.0000   1.0000   1.0000   1.0000   1.0000   1.0000
     1.0000   1.0000   1.0000   1.0000   1.0000   1.0000   1.0000   1.0000
     1.0000   1.0000   1.0000   1.0000   1.0000   1.0000

          k = 0.0000 0.0642 0.2244 (  4516 PWs)   bands (ev):

    -8.6205  -8.1873  -7.9534  -7.9165  -7.7122  -7.6039   3.3069   3.4110
     3.4224   3.5232   3.5720   3.8601   4.2881   4.2915   4.4451   4.4587
     4.4758   4.5376   4.5981   4.6411   4.6530   4.7961   4.8072   5.0154
     6.3017   6.3430   6.3461   6.3786   6.4036   6.4690   6.5801   6.5834
     6.5943   6.6071   6.6677   6.7345   7.3936   7.8789   8.0954   8.3361
     8.6691   8.9334   9.1562   9.1593   9.4369  10.0112  10.1364  10.2666
    10.3268  10.3889  10.4007  10.6292  11.0176  11.0325

     occupation numbers 
     1.0000   1.0000   1.0000   1.0000   1.0000   1.0000   1.0000   1.0000
     1.0000   1.0000   1.0000   1.0000   1.0000   1.0000   1.0000   1.0000
     1.0000   1.0000   1.0000   1.0000   1.0000   1.0000   1.0000   1.0000
     1.0000   1.0000   1.0000   1.0000   1.0000   1.0000   1.0000   1.0000
     1.0000   1.0000   1.0000   1.0000   1.0000   1.0000   1.0000   1.0000
     1.0000   1.0000   1.0000   1.0000   1.0000   1.0000   1.0000   1.0000
     1.0000   1.0000   1.0000   1.0000   1.0000   1.0000

          k = 0.0000 0.0642-0.3367 (  4544 PWs)   bands (ev):

    -8.2913  -8.2913  -7.9463  -7.9463  -7.7522  -7.7522   3.2345   3.2345
     3.3536   3.3536   3.6187   3.6187   4.3466   4.3466   4.3564   4.3564
     4.5235   4.5235   4.6479   4.6480   4.6638   4.6638   4.8119   4.8119
     6.4814   6.4814   6.4826   6.4826   6.4905   6.4905   6.5126   6.5126
     6.5334   6.5334   6.5888   6.5888   7.6678   7.6678   8.4800   8.4800
     9.3138   9.3138   9.4963   9.4963   9.9265   9.9265   9.9725   9.9725
     9.9865   9.9865  10.6349  10.6349  10.6827  10.6827

     occupation numbers 
     1.0000   1.0000   1.0000   1.0000   1.0000   1.0000   1.0000   1.0000
     1.0000   1.0000   1.0000   1.0000   1.0000   1.0000   1.0000   1.0000
     1.0000   1.0000   1.0000   1.0000   1.0000   1.0000   1.0000   1.0000
     1.0000   1.0000   1.0000   1.0000   1.0000   1.0000   1.0000   1.0000
     1.0000   1.0000   1.0000   1.0000   1.0000   1.0000   1.0000   1.0000
     1.0000   1.0000   1.0000   1.0000   1.0000   1.0000   1.0000   1.0000
     1.0000   1.0000   1.0000   1.0000   1.0000   1.0000

          k = 0.0000 0.1283 0.0000 (  4526 PWs)   bands (ev):

    -8.8672  -8.6026  -7.9704  -7.5866  -7.5192  -7.4922   3.6288   3.7930
     3.8616   3.9497   4.1003   4.1749   4.2960   4.3858   4.4043   4.4409
     4.5411   4.5786   4.6589   4.6850   4.7381   4.8585   5.1590   5.3927
     6.0192   6.1313   6.1759   6.2078   6.2450   6.4789   6.5591   6.6171
     6.6411   6.6746   6.7215   6.7884   6.9036   7.0195   7.1612   7.6874
     8.0575   8.0616   8.5511   9.2449   9.5666   9.8059   9.8674   9.9902
    10.3926  10.7578  10.9591  11.0111  11.2950  11.3151

     occupation numbers 
     1.0000   1.0000   1.0000   1.0000   1.0000   1.0000   1.0000   1.0000
     1.0000   1.0000   1.0000   1.0000   1.0000   1.0000   1.0000   1.0000
     1.0000   1.0000   1.0000   1.0000   1.0000   1.0000   1.0000   1.0000
     1.0000   1.0000   1.0000   1.0000   1.0000   1.0000   1.0000   1.0000
     1.0000   1.0000   1.0000   1.0000   1.0000   1.0000   1.0000   1.0000
     1.0000   1.0000   1.0000   1.0000   1.0000   1.0000   1.0000   1.0000
     1.0000   1.0000   1.0000   1.0000   1.0000   1.0000

          k = 0.0000 0.1283 0.1122 (  4527 PWs)   bands (ev):

    -8.7849  -8.5298  -7.9299  -7.6747  -7.5896  -7.5141   3.5199   3.6782
     3.7078   3.7787   3.9115   4.0180   4.3020   4.3422   4.4174   4.4387
     4.5479   4.5762   4.6126   4.6499   4.6733   4.8054   5.0439   5.3001
     6.1117   6.1898   6.2236   6.2490   6.3339   6.4877   6.6308   6.6361
     6.6547   6.6647   6.6788   6.8327   6.9820   7.4284   7.5092   7.6235
     8.2727   8.4228   8.6710   9.3741   9.6653   9.6914   9.9084  10.1440
    10.2612  10.4973  10.9018  10.9818  11.2002  11.2485

     occupation numbers 
     1.0000   1.0000   1.0000   1.0000   1.0000   1.0000   1.0000   1.0000
     1.0000   1.0000   1.0000   1.0000   1.0000   1.0000   1.0000   1.0000
     1.0000   1.0000   1.0000   1.0000   1.0000   1.0000   1.0000   1.0000
     1.0000   1.0000   1.0000   1.0000   1.0000   1.0000   1.0000   1.0000
     1.0000   1.0000   1.0000   1.0000   1.0000   1.0000   1.0000   1.0000
     1.0000   1.0000   1.0000   1.0000   1.0000   1.0000   1.0000   1.0000
     1.0000   1.0000   1.0000   1.0000   1.0000   1.0000

          k = 0.0000 0.1283 0.2244 (  4517 PWs)   bands (ev):

    -8.5570  -8.3300  -7.9147  -7.8242  -7.7850  -7.5822   3.2974   3.3610
     3.4991   3.5658   3.5935   3.7887   4.3182   4.3309   4.4165   4.4584
     4.4636   4.5066   4.5553   4.6432   4.6822   4.6835   4.8530   5.0870
     6.2998   6.3296   6.3427   6.3534   6.4997   6.5140   6.5822   6.5893
     6.5957   6.6102   6.6398   6.7659   7.1996   7.5151   8.3200   8.3544
     8.7753   9.0440   9.2362   9.4169   9.7176   9.8937   9.9061  10.0321
    10.1884  10.3012  10.5974  10.7242  10.9140  10.9366

     occupation numbers 
     1.0000   1.0000   1.0000   1.0000   1.0000   1.0000   1.0000   1.0000
     1.0000   1.0000   1.0000   1.0000   1.0000   1.0000   1.0000   1.0000
     1.0000   1.0000   1.0000   1.0000   1.0000   1.0000   1.0000   1.0000
     1.0000   1.0000   1.0000   1.0000   1.0000   1.0000   1.0000   1.0000
     1.0000   1.0000   1.0000   1.0000   1.0000   1.0000   1.0000   1.0000
     1.0000   1.0000   1.0000   1.0000   1.0000   1.0000   1.0000   1.0000
     1.0000   1.0000   1.0000   1.0000   1.0000   1.0000

          k = 0.0000 0.1283-0.3367 (  4538 PWs)   bands (ev):

    -8.2391  -8.2391  -8.0566  -8.0565  -7.6938  -7.6938   3.2046   3.2046
     3.4333   3.4333   3.5770   3.5770   4.3655   4.3655   4.4002   4.4002
     4.4557   4.4557   4.5542   4.5542   4.7120   4.7120   4.8606   4.8606
     6.4790   6.4790   6.4802   6.4802   6.4840   6.4840   6.4960   6.4960
     6.5550   6.5550   6.6512   6.6512   7.3782   7.3782   8.8776   8.8776
     9.2782   9.2782   9.3628   9.3628   9.9981   9.9981  10.0192  10.0192
    10.1669  10.1669  10.4134  10.4134  10.5668  10.5668

     occupation numbers 
     1.0000   1.0000   1.0000   1.0000   1.0000   1.0000   1.0000   1.0000
     1.0000   1.0000   1.0000   1.0000   1.0000   1.0000   1.0000   1.0000
     1.0000   1.0000   1.0000   1.0000   1.0000   1.0000   1.0000   1.0000
     1.0000   1.0000   1.0000   1.0000   1.0000   1.0000   1.0000   1.0000
     1.0000   1.0000   1.0000   1.0000   1.0000   1.0000   1.0000   1.0000
     1.0000   1.0000   1.0000   1.0000   1.0000   1.0000   1.0000   1.0000
     1.0000   1.0000   1.0000   1.0000   1.0000   1.0000

          k = 0.0000-0.1925 0.0000 (  4532 PWs)   bands (ev):

    -8.7518  -8.7518  -7.9218  -7.5544  -7.5544  -7.5037   3.6858   3.7746
     3.9169   3.9169   4.1085   4.1085   4.3470   4.3470   4.4196   4.4196
     4.5454   4.6152   4.6152   4.7016   4.7442   4.7442   5.1525   5.4318
     6.0779   6.0779   6.1831   6.1831   6.2547   6.5088   6.5962   6.5962
     6.6574   6.6574   6.7234   6.7862   7.0760   7.0760   7.1541   7.4166
     7.9772   8.0015   9.0840   9.0840   9.5548   9.5549   9.9180  10.3173
    10.3173  10.3552  11.1652  11.1652  11.1712  11.1712

     occupation numbers 
     1.0000   1.0000   1.0000   1.0000   1.0000   1.0000   1.0000   1.0000
     1.0000   1.0000   1.0000   1.0000   1.0000   1.0000   1.0000   1.0000
     1.0000   1.0000   1.0000   1.0000   1.0000   1.0000   1.0000   1.0000
     1.0000   1.0000   1.0000   1.0000   1.0000   1.0000   1.0000   1.0000
     1.0000   1.0000   1.0000   1.0000   1.0000   1.0000   1.0000   1.0000
     1.0000   1.0000   1.0000   1.0000   1.0000   1.0000   1.0000   1.0000
     1.0000   1.0000   1.0000   1.0000   1.0000   1.0000

          k = 0.0000-0.1925 0.1122 (  4532 PWs)   bands (ev):

    -8.6734  -8.6734  -7.8847  -7.6349  -7.6349  -7.5212   3.5691   3.6046
     3.7931   3.7931   3.9265   3.9265   4.3556   4.3556   4.3932   4.3932
     4.5820   4.5832   4.5832   4.6656   4.6954   4.6954   5.0491   5.3349
     6.1506   6.1506   6.2287   6.2287   6.3717   6.5151   6.6426   6.6426
     6.6516   6.6516   6.6770   6.7900   7.1868   7.3258   7.4632   7.4632
     8.2023   8.4328   9.1907   9.1907   9.6690   9.6690  10.0753  10.1131
    10.1131  10.2227  11.0696  11.0696  11.1411  11.1411

     occupation numbers 
     1.0000   1.0000   1.0000   1.0000   1.0000   1.0000   1.0000   1.0000
     1.0000   1.0000   1.0000   1.0000   1.0000   1.0000   1.0000   1.0000
     1.0000   1.0000   1.0000   1.0000   1.0000   1.0000   1.0000   1.0000
     1.0000   1.0000   1.0000   1.0000   1.0000   1.0000   1.0000   1.0000
     1.0000   1.0000   1.0000   1.0000   1.0000   1.0000   1.0000   1.0000
     1.0000   1.0000   1.0000   1.0000   1.0000   1.0000   1.0000   1.0000
     1.0000   1.0000   1.0000   1.0000   1.0000   1.0000

          k = 0.0000-0.1925 0.2244 (  4508 PWs)   bands (ev):

    -8.4572  -8.4572  -7.8559  -7.8559  -7.7891  -7.5774   3.3099   3.3287
     3.5458   3.5458   3.6901   3.6901   4.3631   4.3631   4.3913   4.3913
     4.4925   4.4925   4.5830   4.5830   4.6606   4.6937   4.8675   5.1127
     6.3127   6.3127   6.3431   6.3431   6.5338   6.5550   6.5855   6.5855
     6.6097   6.6153   6.6153   6.7662   7.2377   7.2707   8.3672   8.3672
     8.7187   9.2708   9.4878   9.4878   9.7520   9.7520   9.8519   9.9773
     9.9773  10.2602  10.7866  10.7866  10.8132  10.8132

     occupation numbers 
     1.0000   1.0000   1.0000   1.0000   1.0000   1.0000   1.0000   1.0000
     1.0000   1.0000   1.0000   1.0000   1.0000   1.0000   1.0000   1.0000
     1.0000   1.0000   1.0000   1.0000   1.0000   1.0000   1.0000   1.0000
     1.0000   1.0000   1.0000   1.0000   1.0000   1.0000   1.0000   1.0000
     1.0000   1.0000   1.0000   1.0000   1.0000   1.0000   1.0000   1.0000
     1.0000   1.0000   1.0000   1.0000   1.0000   1.0000   1.0000   1.0000
     1.0000   1.0000   1.0000   1.0000   1.0000   1.0000

          k = 0.0000-0.1925-0.3367 (  4516 PWs)   bands (ev):

    -8.1579  -8.1579  -8.1579  -8.1579  -7.6734  -7.6733   3.1948   3.1948
     3.5121   3.5121   3.5121   3.5121   4.4016   4.4016   4.4016   4.4016
     4.4686   4.4686   4.4686   4.4686   4.7298   4.7298   4.8775   4.8775
     6.4776   6.4776   6.4776   6.4776   6.4877   6.4877   6.4877   6.4877
     6.5637   6.5637   6.6891   6.6891   7.2603   7.2603   9.1551   9.1551
     9.1551   9.1551   9.3154   9.3154  10.0024  10.0025  10.1688  10.1688
    10.1688  10.1688  10.3883  10.3883  10.3883  10.3884

     occupation numbers 
     1.0000   1.0000   1.0000   1.0000   1.0000   1.0000   1.0000   1.0000
     1.0000   1.0000   1.0000   1.0000   1.0000   1.0000   1.0000   1.0000
     1.0000   1.0000   1.0000   1.0000   1.0000   1.0000   1.0000   1.0000
     1.0000   1.0000   1.0000   1.0000   1.0000   1.0000   1.0000   1.0000
     1.0000   1.0000   1.0000   1.0000   1.0000   1.0000   1.0000   1.0000
     1.0000   1.0000   1.0000   1.0000   1.0000   1.0000   1.0000   1.0000
     1.0000   1.0000   1.0000   1.0000   1.0000   1.0000

          k = 0.1667 0.0962 0.0000 (  4533 PWs)   bands (ev):

    -8.7518  -8.3945  -7.9372  -7.5544  -7.4938  -7.4835   3.7680   3.7981
     3.9169   4.0603   4.0654   4.1086   4.3469   4.4196   4.4620   4.5237
     4.5360   4.6153   4.6497   4.7441   4.8805   5.0347   5.2442   5.4190
     6.0014   6.0779   6.1635   6.1831   6.2147   6.2148   6.5470   6.5962
     6.6574   6.6911   6.7134   6.7265   7.0370   7.0760   7.2763   7.4207
     7.9455   8.1817   8.3259   8.4844   9.0841   9.3922   9.5547   9.8152
    10.0536  10.3174  10.6299  10.6740  11.1652  11.1711

     occupation numbers 
     1.0000   1.0000   1.0000   1.0000   1.0000   1.0000   1.0000   1.0000
     1.0000   1.0000   1.0000   1.0000   1.0000   1.0000   1.0000   1.0000
     1.0000   1.0000   1.0000   1.0000   1.0000   1.0000   1.0000   1.0000
     1.0000   1.0000   1.0000   1.0000   1.0000   1.0000   1.0000   1.0000
     1.0000   1.0000   1.0000   1.0000   1.0000   1.0000   1.0000   1.0000
     1.0000   1.0000   1.0000   1.0000   1.0000   1.0000   1.0000   1.0000
     1.0000   1.0000   1.0000   1.0000   1.0000   1.0000

          k = 0.1667 0.0962 0.1122 (  4525 PWs)   bands (ev):

    -8.6734  -8.3303  -7.8988  -7.6349  -7.5393  -7.5132   3.6867   3.6925
     3.7931   3.8613   3.8785   3.9265   4.3555   4.3932   4.4389   4.4820
     4.4903   4.5833   4.6105   4.6953   4.7818   4.9716   5.1107   5.2843
     6.0916   6.1506   6.1797   6.2287   6.3029   6.4247   6.6426   6.6516
     6.6680   6.6902   6.6994   6.8551   7.0300   7.4632   7.5346   7.6187
     7.9378   8.3588   8.5915   8.6160   9.1908   9.2554   9.6689   9.7917
    10.1001  10.1131  10.5000  10.7522  11.0694  11.1411

     occupation numbers 
     1.0000   1.0000   1.0000   1.0000   1.0000   1.0000   1.0000   1.0000
     1.0000   1.0000   1.0000   1.0000   1.0000   1.0000   1.0000   1.0000
     1.0000   1.0000   1.0000   1.0000   1.0000   1.0000   1.0000   1.0000
     1.0000   1.0000   1.0000   1.0000   1.0000   1.0000   1.0000   1.0000
     1.0000   1.0000   1.0000   1.0000   1.0000   1.0000   1.0000   1.0000
     1.0000   1.0000   1.0000   1.0000   1.0000   1.0000   1.0000   1.0000
     1.0000   1.0000   1.0000   1.0000   1.0000   1.0000

          k = 0.1667 0.0962 0.2244 (  4515 PWs)   bands (ev):

    -8.4572  -8.1562  -7.8559  -7.7990  -7.6970  -7.5746   3.4692   3.4989
     3.5134   3.5328   3.5459   3.6902   4.3631   4.3912   4.4417   4.4573
     4.4686   4.4926   4.5570   4.5829   4.6904   4.8331   4.9698   5.0818
     6.2920   6.3127   6.3241   6.3431   6.4008   6.4755   6.5854   6.6051
     6.6153   6.6791   6.7107   6.8820   7.2404   7.6978   8.1019   8.2353
     8.3672   8.7551   9.0288   9.2052   9.2210   9.4879   9.5102   9.7521
     9.9772  10.1488  10.2781  10.6346  10.7865  10.8132

     occupation numbers 
     1.0000   1.0000   1.0000   1.0000   1.0000   1.0000   1.0000   1.0000
     1.0000   1.0000   1.0000   1.0000   1.0000   1.0000   1.0000   1.0000
     1.0000   1.0000   1.0000   1.0000   1.0000   1.0000   1.0000   1.0000
     1.0000   1.0000   1.0000   1.0000   1.0000   1.0000   1.0000   1.0000
     1.0000   1.0000   1.0000   1.0000   1.0000   1.0000   1.0000   1.0000
     1.0000   1.0000   1.0000   1.0000   1.0000   1.0000   1.0000   1.0000
     1.0000   1.0000   1.0000   1.0000   1.0000   1.0000

          k = 0.1667 0.0962-0.3367 (  4512 PWs)   bands (ev):

    -8.1579  -8.1579  -7.9226  -7.9225  -7.6772  -7.6772   3.3679   3.3679
     3.3854   3.3854   3.5121   3.5121   4.4017   4.4017   4.4511   4.4511
     4.4685   4.4685   4.5107   4.5107   4.7108   4.7108   4.9554   4.9554
     6.4345   6.4345   6.4769   6.4769   6.4776   6.4776   6.4878   6.4878
     6.5431   6.5431   6.7819   6.7819   7.5057   7.5057   8.4936   8.4936
     8.8136   8.8136   9.1551   9.1551   9.6153   9.6153  10.0274  10.0274
    10.0538  10.0538  10.1689  10.1689  10.3882  10.3882

     occupation numbers 
     1.0000   1.0000   1.0000   1.0000   1.0000   1.0000   1.0000   1.0000
     1.0000   1.0000   1.0000   1.0000   1.0000   1.0000   1.0000   1.0000
     1.0000   1.0000   1.0000   1.0000   1.0000   1.0000   1.0000   1.0000
     1.0000   1.0000   1.0000   1.0000   1.0000   1.0000   1.0000   1.0000
     1.0000   1.0000   1.0000   1.0000   1.0000   1.0000   1.0000   1.0000
     1.0000   1.0000   1.0000   1.0000   1.0000   1.0000   1.0000   1.0000
     1.0000   1.0000   1.0000   1.0000   1.0000   1.0000

          k = 0.1667 0.1604 0.0000 (  4540 PWs)   bands (ev):

    -8.6646  -8.5423  -7.8482  -7.5328  -7.5200  -7.5069   3.8125   3.8417
     3.8638   4.0638   4.0911   4.1178   4.3973   4.4281   4.4471   4.4600
     4.5039   4.6528   4.6602   4.7401   4.8140   4.9153   5.2423   5.5016
     6.0247   6.0494   6.1875   6.1936   6.2013   6.3327   6.5558   6.5776
     6.6660   6.6671   6.6785   6.7114   7.0029   7.1257   7.1995   7.3868
     7.6457   8.4172   8.4905   8.7995   8.9126   9.3078   9.6102   9.7722
     9.9689  10.0738  10.8627  10.8849  11.0494  11.0546

     occupation numbers 
     1.0000   1.0000   1.0000   1.0000   1.0000   1.0000   1.0000   1.0000
     1.0000   1.0000   1.0000   1.0000   1.0000   1.0000   1.0000   1.0000
     1.0000   1.0000   1.0000   1.0000   1.0000   1.0000   1.0000   1.0000
     1.0000   1.0000   1.0000   1.0000   1.0000   1.0000   1.0000   1.0000
     1.0000   1.0000   1.0000   1.0000   1.0000   1.0000   1.0000   1.0000
     1.0000   1.0000   1.0000   1.0000   1.0000   1.0000   1.0000   1.0000
     1.0000   1.0000   1.0000   1.0000   1.0000   1.0000

          k = 0.1667 0.1604 0.1122 (  4521 PWs)   bands (ev):

    -8.5894  -8.4718  -7.8165  -7.6075  -7.5732  -7.5311   3.7329   3.7337
     3.7709   3.8662   3.8673   3.8937   4.3909   4.4197   4.4267   4.4326
     4.4672   4.6216   4.6262   4.6852   4.7623   4.8589   5.1389   5.3500
     6.1091   6.1294   6.2360   6.2565   6.2606   6.4186   6.6495   6.6578
     6.6611   6.6730   6.6985   6.7386   7.1720   7.4478   7.4915   7.5280
     7.6566   8.6218   8.7380   8.9137   9.0301   9.4218   9.6190   9.6289
     9.8962   9.9807  10.7441  10.9267  10.9457  11.0558

     occupation numbers 
     1.0000   1.0000   1.0000   1.0000   1.0000   1.0000   1.0000   1.0000
     1.0000   1.0000   1.0000   1.0000   1.0000   1.0000   1.0000   1.0000
     1.0000   1.0000   1.0000   1.0000   1.0000   1.0000   1.0000   1.0000
     1.0000   1.0000   1.0000   1.0000   1.0000   1.0000   1.0000   1.0000
     1.0000   1.0000   1.0000   1.0000   1.0000   1.0000   1.0000   1.0000
     1.0000   1.0000   1.0000   1.0000   1.0000   1.0000   1.0000   1.0000
     1.0000   1.0000   1.0000   1.0000   1.0000   1.0000

          k = 0.1667 0.1604 0.2244 (  4520 PWs)   bands (ev):

    -8.3826  -8.2791  -7.8137  -7.7579  -7.7362  -7.5701   3.4956   3.5160
     3.5260   3.5294   3.5604   3.6288   4.3872   4.4122   4.4269   4.4478
     4.4519   4.5310   4.5794   4.6016   4.6444   4.7329   5.0141   5.1256
     6.2969   6.3043   6.3479   6.3506   6.3646   6.4438   6.5878   6.5932
     6.6301   6.6512   6.7818   6.8739   7.2155   7.4237   8.1016   8.2868
     8.3551   9.0422   9.1980   9.2539   9.2556   9.4708   9.5138   9.5533
     9.8169  10.1878  10.4182  10.6446  10.7132  10.7697

     occupation numbers 
     1.0000   1.0000   1.0000   1.0000   1.0000   1.0000   1.0000   1.0000
     1.0000   1.0000   1.0000   1.0000   1.0000   1.0000   1.0000   1.0000
     1.0000   1.0000   1.0000   1.0000   1.0000   1.0000   1.0000   1.0000
     1.0000   1.0000   1.0000   1.0000   1.0000   1.0000   1.0000   1.0000
     1.0000   1.0000   1.0000   1.0000   1.0000   1.0000   1.0000   1.0000
     1.0000   1.0000   1.0000   1.0000   1.0000   1.0000   1.0000   1.0000
     1.0000   1.0000   1.0000   1.0000   1.0000   1.0000

          k = 0.1667 0.1604-0.3367 (  4512 PWs)   bands (ev):

    -8.0982  -8.0982  -8.0167  -8.0167  -7.6427  -7.6427   3.3761   3.3761
     3.4229   3.4229   3.4690   3.4690   4.4186   4.4186   4.4323   4.4323
     4.5168   4.5168   4.5294   4.5294   4.6165   4.6165   4.9996   4.9996
     6.4118   6.4118   6.4767   6.4767   6.4770   6.4770   6.4943   6.4943
     6.5109   6.5109   6.8754   6.8754   7.3081   7.3081   8.7062   8.7062
     8.7905   8.7905   9.0158   9.0158   9.9213   9.9213  10.0605  10.0605
    10.0614  10.0614  10.0685  10.0685  10.2337  10.2337

     occupation numbers 
     1.0000   1.0000   1.0000   1.0000   1.0000   1.0000   1.0000   1.0000
     1.0000   1.0000   1.0000   1.0000   1.0000   1.0000   1.0000   1.0000
     1.0000   1.0000   1.0000   1.0000   1.0000   1.0000   1.0000   1.0000
     1.0000   1.0000   1.0000   1.0000   1.0000   1.0000   1.0000   1.0000
     1.0000   1.0000   1.0000   1.0000   1.0000   1.0000   1.0000   1.0000
     1.0000   1.0000   1.0000   1.0000   1.0000   1.0000   1.0000   1.0000
     1.0000   1.0000   1.0000   1.0000   1.0000   1.0000

          k = 0.1667-0.0321 0.0000 (  4516 PWs)   bands (ev):

    -8.7970  -8.2337  -8.0751  -7.5665  -7.4731  -7.4701   3.7454   3.7566
     3.9772   4.0489   4.0532   4.0539   4.3373   4.4177   4.5012   4.5267
     4.5843   4.5918   4.6327   4.7125   5.0517   5.1593   5.1963   5.2845
     5.9916   6.0340   6.1034   6.1739   6.2317   6.2360   6.5853   6.6065
     6.6508   6.6789   6.7045   6.7176   7.0526   7.1254   7.2754   7.6863
     7.9327   8.0232   8.1258   8.5297   8.9579   9.2966   9.6074  10.1006
    10.2122  10.3802  10.4310  10.4932  11.2060  11.2262

     occupation numbers 
     1.0000   1.0000   1.0000   1.0000   1.0000   1.0000   1.0000   1.0000
     1.0000   1.0000   1.0000   1.0000   1.0000   1.0000   1.0000   1.0000
     1.0000   1.0000   1.0000   1.0000   1.0000   1.0000   1.0000   1.0000
     1.0000   1.0000   1.0000   1.0000   1.0000   1.0000   1.0000   1.0000
     1.0000   1.0000   1.0000   1.0000   1.0000   1.0000   1.0000   1.0000
     1.0000   1.0000   1.0000   1.0000   1.0000   1.0000   1.0000   1.0000
     1.0000   1.0000   1.0000   1.0000   1.0000   1.0000

          k = 0.1667-0.0321 0.1122 (  4522 PWs)   bands (ev):

    -8.7171  -8.1773  -8.0276  -7.6500  -7.5139  -7.5043   3.6570   3.6593
     3.8058   3.8682   3.8777   3.9430   4.3380   4.3760   4.4652   4.4835
     4.5405   4.5612   4.5823   4.6646   4.9013   5.0252   5.0865   5.1910
     6.0871   6.1127   6.1677   6.2234   6.3656   6.4115   6.6378   6.6468
     6.6799   6.6922   6.7300   6.8179   7.1605   7.4118   7.4492   7.8792
     8.1618   8.2492   8.3144   8.5088   8.8394   9.4006   9.7116  10.0079
    10.2470  10.2766  10.3065  10.5389  11.1057  11.1894

     occupation numbers 
     1.0000   1.0000   1.0000   1.0000   1.0000   1.0000   1.0000   1.0000
     1.0000   1.0000   1.0000   1.0000   1.0000   1.0000   1.0000   1.0000
     1.0000   1.0000   1.0000   1.0000   1.0000   1.0000   1.0000   1.0000
     1.0000   1.0000   1.0000   1.0000   1.0000   1.0000   1.0000   1.0000
     1.0000   1.0000   1.0000   1.0000   1.0000   1.0000   1.0000   1.0000
     1.0000   1.0000   1.0000   1.0000   1.0000   1.0000   1.0000   1.0000
     1.0000   1.0000   1.0000   1.0000   1.0000   1.0000

          k = 0.1667-0.0321 0.2244 (  4526 PWs)   bands (ev):

    -8.4962  -8.0259  -7.9018  -7.8786  -7.6403  -7.5974   3.4537   3.4627
     3.5171   3.5270   3.5574   3.7269   4.3426   4.3661   4.4645   4.4668
     4.4781   4.4901   4.5235   4.5547   4.7863   4.8851   4.9310   5.0153
     6.2928   6.3031   6.3193   6.3417   6.4495   6.4827   6.5841   6.6079
     6.6269   6.6606   6.7204   6.7915   7.4876   7.8083   8.0333   8.3658
     8.3920   8.4860   8.8269   9.0468   9.1313   9.6575   9.6901   9.8074
     9.8824  10.0692  10.4056  10.5305  10.8263  10.8571

     occupation numbers 
     1.0000   1.0000   1.0000   1.0000   1.0000   1.0000   1.0000   1.0000
     1.0000   1.0000   1.0000   1.0000   1.0000   1.0000   1.0000   1.0000
     1.0000   1.0000   1.0000   1.0000   1.0000   1.0000   1.0000   1.0000
     1.0000   1.0000   1.0000   1.0000   1.0000   1.0000   1.0000   1.0000
     1.0000   1.0000   1.0000   1.0000   1.0000   1.0000   1.0000   1.0000
     1.0000   1.0000   1.0000   1.0000   1.0000   1.0000   1.0000   1.0000
     1.0000   1.0000   1.0000   1.0000   1.0000   1.0000

          k = 0.1667-0.0321-0.3367 (  4518 PWs)   bands (ev):

    -8.1895  -8.1895  -7.8269  -7.8269  -7.7415  -7.7414   3.3602   3.3602
     3.3641   3.3641   3.5386   3.5386   4.3794   4.3794   4.4480   4.4480
     4.4743   4.4743   4.4960   4.4960   4.8016   4.8016   4.8845   4.8845
     6.4591   6.4591   6.4732   6.4732   6.4770   6.4770   6.4870   6.4870
     6.5987   6.5987   6.6804   6.6804   7.8064   7.8064   8.1525   8.1525
     9.0158   9.0158   9.2165   9.2165   9.2933   9.2933  10.0301  10.0301
    10.0421  10.0421  10.2587  10.2587  10.4423  10.4424

     occupation numbers 
     1.0000   1.0000   1.0000   1.0000   1.0000   1.0000   1.0000   1.0000
     1.0000   1.0000   1.0000   1.0000   1.0000   1.0000   1.0000   1.0000
     1.0000   1.0000   1.0000   1.0000   1.0000   1.0000   1.0000   1.0000
     1.0000   1.0000   1.0000   1.0000   1.0000   1.0000   1.0000   1.0000
     1.0000   1.0000   1.0000   1.0000   1.0000   1.0000   1.0000   1.0000
     1.0000   1.0000   1.0000   1.0000   1.0000   1.0000   1.0000   1.0000
     1.0000   1.0000   1.0000   1.0000   1.0000   1.0000

          k = 0.3333 0.1925 0.0000 (  4514 PWs)   bands (ev):

    -8.2559  -8.2559  -7.6414  -7.6413  -7.4729  -7.4729   3.6088   3.6088
     4.0779   4.0911   4.0912   4.3506   4.3506   4.4989   4.4989   4.5716
     4.5716   4.7161   5.0876   5.0876   5.1457   5.1457   5.4146   5.4146
     6.0325   6.0325   6.0880   6.2960   6.2961   6.3264   6.3264   6.3905
     6.4874   6.4874   6.7042   6.7042   6.8398   7.2485   7.2485   7.6033
     7.6033   7.7525   7.7526   8.5695   8.5695   8.9180   8.9180   9.0725
     9.0725   9.3196  10.4370  10.4370  10.6514  10.6514

     occupation numbers 
     1.0000   1.0000   1.0000   1.0000   1.0000   1.0000   1.0000   1.0000
     1.0000   1.0000   1.0000   1.0000   1.0000   1.0000   1.0000   1.0000
     1.0000   1.0000   1.0000   1.0000   1.0000   1.0000   1.0000   1.0000
     1.0000   1.0000   1.0000   1.0000   1.0000   1.0000   1.0000   1.0000
     1.0000   1.0000   1.0000   1.0000   1.0000   1.0000   1.0000   1.0000
     1.0000   1.0000   1.0000   1.0000   1.0000   1.0000   1.0000   1.0000
     1.0000   1.0000   1.0000   1.0000   1.0000   1.0000

          k = 0.3333 0.1925 0.1122 (  4509 PWs)   bands (ev):

    -8.1985  -8.1985  -7.6303  -7.6302  -7.5182  -7.5182   3.5260   3.5260
     3.8463   3.8463   4.1009   4.1477   4.1477   4.5244   4.5244   4.5504
     4.5504   4.6363   4.9321   4.9321   5.0758   5.0758   5.2769   5.2769
     6.1113   6.1304   6.1304   6.3518   6.3518   6.3717   6.5627   6.5628
     6.6740   6.6740   6.6931   6.6931   7.0188   7.3766   7.3766   7.5392
     7.5392   7.9921   7.9921   8.7386   8.7386   8.8215   8.8215   9.1418
     9.3312   9.3312  10.5283  10.5283  10.5476  10.5476

     occupation numbers 
     1.0000   1.0000   1.0000   1.0000   1.0000   1.0000   1.0000   1.0000
     1.0000   1.0000   1.0000   1.0000   1.0000   1.0000   1.0000   1.0000
     1.0000   1.0000   1.0000   1.0000   1.0000   1.0000   1.0000   1.0000
     1.0000   1.0000   1.0000   1.0000   1.0000   1.0000   1.0000   1.0000
     1.0000   1.0000   1.0000   1.0000   1.0000   1.0000   1.0000   1.0000
     1.0000   1.0000   1.0000   1.0000   1.0000   1.0000   1.0000   1.0000
     1.0000   1.0000   1.0000   1.0000   1.0000   1.0000

          k = 0.3333 0.1925 0.2244 (  4502 PWs)   bands (ev):

    -8.0439  -8.0439  -7.6487  -7.6487  -7.6079  -7.6079   3.3504   3.3504
     3.4657   3.4657   3.7845   3.7845   4.1733   4.4655   4.5386   4.5386
     4.6031   4.6031   4.7320   4.7320   4.9124   4.9124   5.1594   5.1594
     6.1704   6.3197   6.3329   6.3329   6.4192   6.4192   6.6007   6.6007
     6.6989   6.6989   6.9251   6.9251   7.4086   7.4086   7.4761   7.7301
     7.7301   8.2839   8.2839   8.6770   9.1001   9.1001   9.1647   9.1647
     9.8364   9.8365  10.1847  10.1847  10.5188  10.5188

     occupation numbers 
     1.0000   1.0000   1.0000   1.0000   1.0000   1.0000   1.0000   1.0000
     1.0000   1.0000   1.0000   1.0000   1.0000   1.0000   1.0000   1.0000
     1.0000   1.0000   1.0000   1.0000   1.0000   1.0000   1.0000   1.0000
     1.0000   1.0000   1.0000   1.0000   1.0000   1.0000   1.0000   1.0000
     1.0000   1.0000   1.0000   1.0000   1.0000   1.0000   1.0000   1.0000
     1.0000   1.0000   1.0000   1.0000   1.0000   1.0000   1.0000   1.0000
     1.0000   1.0000   1.0000   1.0000   1.0000   1.0000

          k = 0.3333 0.1925-0.3367 (  4504 PWs)   bands (ev):

    -7.8403  -7.8403  -7.8403  -7.8403  -7.5966  -7.5966   3.2851   3.2851
     3.2851   3.2851   3.6231   3.6231   4.2975   4.2975   4.5967   4.5967
     4.5967   4.5967   4.7375   4.7375   4.7375   4.7375   5.1251   5.1251
     6.2465   6.2465   6.5093   6.5093   6.5093   6.5093   6.5418   6.5418
     6.5418   6.5418   7.1189   7.1189   7.2954   7.2954   8.0537   8.0537
     8.0537   8.0537   8.0730   8.0730   9.6933   9.6933   9.6933   9.6934
     9.9732   9.9732   9.9732   9.9732  10.0877  10.0877

     occupation numbers 
     1.0000   1.0000   1.0000   1.0000   1.0000   1.0000   1.0000   1.0000
     1.0000   1.0000   1.0000   1.0000   1.0000   1.0000   1.0000   1.0000
     1.0000   1.0000   1.0000   1.0000   1.0000   1.0000   1.0000   1.0000
     1.0000   1.0000   1.0000   1.0000   1.0000   1.0000   1.0000   1.0000
     1.0000   1.0000   1.0000   1.0000   1.0000   1.0000   1.0000   1.0000
     1.0000   1.0000   1.0000   1.0000   1.0000   1.0000   1.0000   1.0000
     1.0000   1.0000   1.0000   1.0000   1.0000   1.0000

          k = 0.3333 0.2566 0.0000 (  4504 PWs)   bands (ev):

    -8.3307  -8.1602  -7.7264  -7.5741  -7.4775  -7.4714   3.6127   3.6542
     4.0431   4.0498   4.1257   4.2590   4.4075   4.4615   4.4928   4.5649
     4.6238   4.6714   5.0128   5.0818   5.1409   5.2275   5.3653   5.4819
     5.9959   6.0894   6.0920   6.2380   6.2776   6.3306   6.4262   6.4831
     6.5104   6.5398   6.6982   6.7107   6.8402   7.1576   7.2785   7.4784
     7.7095   7.7357   7.8757   8.3324   8.6466   8.6615   8.7634   9.1449
     9.3078   9.4812  10.2829  10.5172  10.5565  10.6891

     occupation numbers 
     1.0000   1.0000   1.0000   1.0000   1.0000   1.0000   1.0000   1.0000
     1.0000   1.0000   1.0000   1.0000   1.0000   1.0000   1.0000   1.0000
     1.0000   1.0000   1.0000   1.0000   1.0000   1.0000   1.0000   1.0000
     1.0000   1.0000   1.0000   1.0000   1.0000   1.0000   1.0000   1.0000
     1.0000   1.0000   1.0000   1.0000   1.0000   1.0000   1.0000   1.0000
     1.0000   1.0000   1.0000   1.0000   1.0000   1.0000   1.0000   1.0000
     1.0000   1.0000   1.0000   1.0000   1.0000   1.0000

          k = 0.3333 0.2566 0.1122 (  4513 PWs)   bands (ev):

    -8.2695  -8.1078  -7.7056  -7.5731  -7.5285  -7.5093   3.5250   3.5731
     3.8223   3.8761   3.9863   4.0880   4.2564   4.4746   4.5136   4.5461
     4.5968   4.6194   4.8711   4.9847   5.0159   5.1488   5.2451   5.3059
     6.1020   6.1319   6.1636   6.3247   6.3784   6.3934   6.6047   6.6148
     6.6711   6.6788   6.6870   6.7267   7.0438   7.2321   7.4197   7.4756
     7.6479   7.9691   8.0799   8.5068   8.6340   8.8006   9.0219   9.0230
     9.2641   9.6069  10.3624  10.4373  10.5593  10.6568

     occupation numbers 
     1.0000   1.0000   1.0000   1.0000   1.0000   1.0000   1.0000   1.0000
     1.0000   1.0000   1.0000   1.0000   1.0000   1.0000   1.0000   1.0000
     1.0000   1.0000   1.0000   1.0000   1.0000   1.0000   1.0000   1.0000
     1.0000   1.0000   1.0000   1.0000   1.0000   1.0000   1.0000   1.0000
     1.0000   1.0000   1.0000   1.0000   1.0000   1.0000   1.0000   1.0000
     1.0000   1.0000   1.0000   1.0000   1.0000   1.0000   1.0000   1.0000
     1.0000   1.0000   1.0000   1.0000   1.0000   1.0000

          k = 0.3333 0.2566 0.2244 (  4511 PWs)   bands (ev):

    -8.1042  -7.9681  -7.6738  -7.6560  -7.6201  -7.5788   3.3414   3.3956
     3.4503   3.4981   3.7166   3.7393   4.2336   4.4856   4.4940   4.5530
     4.5587   4.6097   4.7044   4.7941   4.8652   4.9727   5.1284   5.1507
     6.2046   6.3088   6.3491   6.3503   6.4058   6.4561   6.6009   6.6110
     6.6869   6.7236   6.8635   6.9692   7.2842   7.4529   7.5447   7.6258
     7.9093   8.0805   8.4822   8.7706   8.9452   9.0929   9.1432   9.2293
     9.6749   9.9987  10.0217  10.2194  10.4580  10.5761

     occupation numbers 
     1.0000   1.0000   1.0000   1.0000   1.0000   1.0000   1.0000   1.0000
     1.0000   1.0000   1.0000   1.0000   1.0000   1.0000   1.0000   1.0000
     1.0000   1.0000   1.0000   1.0000   1.0000   1.0000   1.0000   1.0000
     1.0000   1.0000   1.0000   1.0000   1.0000   1.0000   1.0000   1.0000
     1.0000   1.0000   1.0000   1.0000   1.0000   1.0000   1.0000   1.0000
     1.0000   1.0000   1.0000   1.0000   1.0000   1.0000   1.0000   1.0000
     1.0000   1.0000   1.0000   1.0000   1.0000   1.0000

          k = 0.3333 0.2566-0.3367 (  4514 PWs)   bands (ev):

    -7.8841  -7.8840  -7.7869  -7.7868  -7.6063  -7.6063   3.2711   3.2711
     3.3249   3.3249   3.5751   3.5751   4.3382   4.3382   4.5396   4.5396
     4.6057   4.6057   4.7147   4.7147   4.7983   4.7983   5.0982   5.0982
     6.2815   6.2815   6.4920   6.4920   6.5064   6.5064   6.5378   6.5378
     6.5848   6.5848   7.0531   7.0531   7.3217   7.3217   7.8493   7.8493
     8.1826   8.1826   8.2571   8.2571   9.5001   9.5001   9.7187   9.7187
     9.9918   9.9918   9.9960   9.9960  10.0839  10.0839

     occupation numbers 
     1.0000   1.0000   1.0000   1.0000   1.0000   1.0000   1.0000   1.0000
     1.0000   1.0000   1.0000   1.0000   1.0000   1.0000   1.0000   1.0000
     1.0000   1.0000   1.0000   1.0000   1.0000   1.0000   1.0000   1.0000
     1.0000   1.0000   1.0000   1.0000   1.0000   1.0000   1.0000   1.0000
     1.0000   1.0000   1.0000   1.0000   1.0000   1.0000   1.0000   1.0000
     1.0000   1.0000   1.0000   1.0000   1.0000   1.0000   1.0000   1.0000
     1.0000   1.0000   1.0000   1.0000   1.0000   1.0000

          k = 0.3333 0.3208 0.0000 (  4517 PWs)   bands (ev):

    -8.3782  -8.0511  -7.8267  -7.5253  -7.4818  -7.4771   3.6768   3.7255
     3.9426   4.0351   4.1008   4.1372   4.4441   4.4712   4.4759   4.5654
     4.6391   4.6545   4.9238   5.0460   5.1883   5.3079   5.3226   5.4876
     5.9946   6.1334   6.1385   6.2012   6.2337   6.2792   6.5369   6.5872
     6.6769   6.6875   6.6930   6.7188   6.9229   7.0419   7.2785   7.3200
     7.7397   7.8376   8.0189   8.0591   8.4253   8.4822   8.5747   9.3210
     9.5389   9.7739  10.0772  10.3057  10.6332  10.6654

     occupation numbers 
     1.0000   1.0000   1.0000   1.0000   1.0000   1.0000   1.0000   1.0000
     1.0000   1.0000   1.0000   1.0000   1.0000   1.0000   1.0000   1.0000
     1.0000   1.0000   1.0000   1.0000   1.0000   1.0000   1.0000   1.0000
     1.0000   1.0000   1.0000   1.0000   1.0000   1.0000   1.0000   1.0000
     1.0000   1.0000   1.0000   1.0000   1.0000   1.0000   1.0000   1.0000
     1.0000   1.0000   1.0000   1.0000   1.0000   1.0000   1.0000   1.0000
     1.0000   1.0000   1.0000   1.0000   1.0000   1.0000

          k = 0.3333 0.3208 0.1122 (  4506 PWs)   bands (ev):

    -8.3148  -8.0051  -7.7967  -7.5363  -7.5346  -7.5061   3.5808   3.6439
     3.8292   3.8394   3.8779   3.9728   4.3626   4.4535   4.4851   4.5296
     4.6045   4.6174   4.8087   4.9818   5.0422   5.1842   5.2222   5.3170
     6.0922   6.1642   6.1800   6.3090   6.4006   6.4267   6.6689   6.6873
     6.6882   6.6889   6.7188   6.8178   7.0738   7.1373   7.3309   7.5223
     7.7817   7.9133   8.1668   8.2379   8.5332   8.7158   8.7766   9.1878
     9.4886   9.8698  10.1025  10.2898  10.5258  10.7274

     occupation numbers 
     1.0000   1.0000   1.0000   1.0000   1.0000   1.0000   1.0000   1.0000
     1.0000   1.0000   1.0000   1.0000   1.0000   1.0000   1.0000   1.0000
     1.0000   1.0000   1.0000   1.0000   1.0000   1.0000   1.0000   1.0000
     1.0000   1.0000   1.0000   1.0000   1.0000   1.0000   1.0000   1.0000
     1.0000   1.0000   1.0000   1.0000   1.0000   1.0000   1.0000   1.0000
     1.0000   1.0000   1.0000   1.0000   1.0000   1.0000   1.0000   1.0000
     1.0000   1.0000   1.0000   1.0000   1.0000   1.0000

          k = 0.3333 0.3208 0.2244 (  4509 PWs)   bands (ev):

    -8.1428  -7.8838  -7.7210  -7.6909  -7.5935  -7.5684   3.3808   3.4563
     3.4703   3.5204   3.5921   3.6322   4.3489   4.4514   4.5020   4.5239
     4.5303   4.5847   4.6934   4.8402   4.8790   5.0318   5.0581   5.1215
     6.2728   6.2954   6.3478   6.4019   6.4159   6.4915   6.6037   6.6463
     6.6809   6.7800   6.7880   6.9726   7.1954   7.3741   7.5435   7.8825
     7.8906   8.0482   8.6132   8.6591   9.0036   9.0761   9.2035   9.2089
     9.5354   9.7565  10.1489  10.1780  10.3811  10.6192

     occupation numbers 
     1.0000   1.0000   1.0000   1.0000   1.0000   1.0000   1.0000   1.0000
     1.0000   1.0000   1.0000   1.0000   1.0000   1.0000   1.0000   1.0000
     1.0000   1.0000   1.0000   1.0000   1.0000   1.0000   1.0000   1.0000
     1.0000   1.0000   1.0000   1.0000   1.0000   1.0000   1.0000   1.0000
     1.0000   1.0000   1.0000   1.0000   1.0000   1.0000   1.0000   1.0000
     1.0000   1.0000   1.0000   1.0000   1.0000   1.0000   1.0000   1.0000
     1.0000   1.0000   1.0000   1.0000   1.0000   1.0000

          k = 0.3333 0.3208-0.3367 (  4508 PWs)   bands (ev):

    -7.9126  -7.9126  -7.7302  -7.7302  -7.6342  -7.6342   3.2976   3.2976
     3.3671   3.3671   3.4709   3.4709   4.4249   4.4249   4.4771   4.4771
     4.5734   4.5734   4.7110   4.7110   4.8759   4.8759   5.0333   5.0333
     6.3600   6.3600   6.4804   6.4804   6.4827   6.4827   6.5414   6.5414
     6.6670   6.6670   6.9194   6.9194   7.3912   7.3912   7.6623   7.6623
     8.4242   8.4242   8.4567   8.4567   9.1842   9.1842   9.6542   9.6542
    10.0188  10.0188  10.0277  10.0277  10.0726  10.0726

     occupation numbers 
     1.0000   1.0000   1.0000   1.0000   1.0000   1.0000   1.0000   1.0000
     1.0000   1.0000   1.0000   1.0000   1.0000   1.0000   1.0000   1.0000
     1.0000   1.0000   1.0000   1.0000   1.0000   1.0000   1.0000   1.0000
     1.0000   1.0000   1.0000   1.0000   1.0000   1.0000   1.0000   1.0000
     1.0000   1.0000   1.0000   1.0000   1.0000   1.0000   1.0000   1.0000
     1.0000   1.0000   1.0000   1.0000   1.0000   1.0000   1.0000   1.0000
     1.0000   1.0000   1.0000   1.0000   1.0000   1.0000

          k = 0.3333-0.0000 0.0000 (  4515 PWs)   bands (ev):

    -8.3945  -7.9372  -7.9372  -7.4939  -7.4938  -7.4835   3.7682   3.7982
     3.7982   4.0604   4.0604   4.0654   4.4620   4.4620   4.5237   4.5360
     4.6497   4.6497   4.8805   5.0347   5.2443   5.2443   5.4189   5.4189
     6.0014   6.1636   6.1636   6.2147   6.2147   6.2148   6.5470   6.6911
     6.7135   6.7135   6.7265   6.7265   7.0371   7.0371   7.2763   7.4207
     7.4207   7.9455   7.9455   8.1818   8.3259   8.3259   8.4844   9.3922
     9.8151   9.8151  10.0535  10.0536  10.6298  10.6740

     occupation numbers 
     1.0000   1.0000   1.0000   1.0000   1.0000   1.0000   1.0000   1.0000
     1.0000   1.0000   1.0000   1.0000   1.0000   1.0000   1.0000   1.0000
     1.0000   1.0000   1.0000   1.0000   1.0000   1.0000   1.0000   1.0000
     1.0000   1.0000   1.0000   1.0000   1.0000   1.0000   1.0000   1.0000
     1.0000   1.0000   1.0000   1.0000   1.0000   1.0000   1.0000   1.0000
     1.0000   1.0000   1.0000   1.0000   1.0000   1.0000   1.0000   1.0000
     1.0000   1.0000   1.0000   1.0000   1.0000   1.0000

          k = 0.3333-0.0000 0.1122 (  4508 PWs)   bands (ev):

    -8.3303  -7.8988  -7.8987  -7.5393  -7.5132  -7.5132   3.6868   3.6925
     3.6925   3.8613   3.8785   3.8785   4.4389   4.4389   4.4819   4.4903
     4.6105   4.6105   4.7819   4.9716   5.1107   5.1107   5.2842   5.2842
     6.0916   6.1797   6.1797   6.3029   6.4247   6.4247   6.6680   6.6902
     6.6994   6.6994   6.8552   6.8552   7.0300   7.0300   7.5346   7.6187
     7.6187   7.9378   7.9378   8.3588   8.5915   8.5915   8.6159   9.2554
     9.7916   9.7916  10.1001  10.1001  10.4999  10.7522

     occupation numbers 
     1.0000   1.0000   1.0000   1.0000   1.0000   1.0000   1.0000   1.0000
     1.0000   1.0000   1.0000   1.0000   1.0000   1.0000   1.0000   1.0000
     1.0000   1.0000   1.0000   1.0000   1.0000   1.0000   1.0000   1.0000
     1.0000   1.0000   1.0000   1.0000   1.0000   1.0000   1.0000   1.0000
     1.0000   1.0000   1.0000   1.0000   1.0000   1.0000   1.0000   1.0000
     1.0000   1.0000   1.0000   1.0000   1.0000   1.0000   1.0000   1.0000
     1.0000   1.0000   1.0000   1.0000   1.0000   1.0000

          k = 0.3333-0.0000 0.2244 (  4506 PWs)   bands (ev):

    -8.1562  -7.7990  -7.7990  -7.6970  -7.5746  -7.5746   3.4693   3.4693
     3.4989   3.5135   3.5328   3.5328   4.4417   4.4573   4.4573   4.4686
     4.5570   4.5570   4.6904   4.8331   4.9697   4.9697   5.0818   5.0818
     6.2920   6.3241   6.3241   6.4009   6.4755   6.4755   6.6052   6.6791
     6.7107   6.7107   6.8820   6.8820   7.2404   7.2404   7.6978   7.6978
     8.1019   8.2352   8.2352   8.7552   9.0288   9.2051   9.2209   9.2209
     9.5102   9.5102  10.1487  10.2781  10.2781  10.6346

     occupation numbers 
     1.0000   1.0000   1.0000   1.0000   1.0000   1.0000   1.0000   1.0000
     1.0000   1.0000   1.0000   1.0000   1.0000   1.0000   1.0000   1.0000
     1.0000   1.0000   1.0000   1.0000   1.0000   1.0000   1.0000   1.0000
     1.0000   1.0000   1.0000   1.0000   1.0000   1.0000   1.0000   1.0000
     1.0000   1.0000   1.0000   1.0000   1.0000   1.0000   1.0000   1.0000
     1.0000   1.0000   1.0000   1.0000   1.0000   1.0000   1.0000   1.0000
     1.0000   1.0000   1.0000   1.0000   1.0000   1.0000

          k = 0.3333-0.0000-0.3367 (  4496 PWs)   bands (ev):

[...]
     1.0000   1.0000   1.0000   1.0000   1.0000   1.0000   1.0000   1.0000
     1.0000   1.0000   1.0000   1.0000   1.0000   1.0000   1.0000   1.0000
     1.0000   1.0000   1.0000   1.0000   1.0000   1.0000   1.0000   1.0000
     1.0000   1.0000   1.0000   1.0000   1.0000   1.0000   1.0000   1.0000
     1.0000   1.0000   1.0000   1.0000   1.0000   1.0000   1.0000   1.0000
     1.0000   1.0000   1.0000   1.0000   1.0000   1.0000   1.0000   1.0000
     1.0000   1.0000   1.0000   1.0000   1.0000   1.0000

          k =-0.1667-0.0321-0.1122 (  4522 PWs)   bands (ev):

    -8.7171  -8.1773  -8.0276  -7.6500  -7.5139  -7.5043   3.6570   3.6593
     3.8058   3.8682   3.8777   3.9430   4.3380   4.3760   4.4652   4.4835
     4.5405   4.5612   4.5823   4.6646   4.9013   5.0252   5.0865   5.1910
     6.0871   6.1127   6.1677   6.2234   6.3656   6.4115   6.6378   6.6468
     6.6799   6.6922   6.7300   6.8179   7.1605   7.4118   7.4492   7.8792
     8.1618   8.2492   8.3144   8.5088   8.8394   9.4006   9.7116  10.0079
    10.2470  10.2766  10.3065  10.5389  11.1057  11.1894

     occupation numbers 
     1.0000   1.0000   1.0000   1.0000   1.0000   1.0000   1.0000   1.0000
     1.0000   1.0000   1.0000   1.0000   1.0000   1.0000   1.0000   1.0000
     1.0000   1.0000   1.0000   1.0000   1.0000   1.0000   1.0000   1.0000
     1.0000   1.0000   1.0000   1.0000   1.0000   1.0000   1.0000   1.0000
     1.0000   1.0000   1.0000   1.0000   1.0000   1.0000   1.0000   1.0000
     1.0000   1.0000   1.0000   1.0000   1.0000   1.0000   1.0000   1.0000
     1.0000   1.0000   1.0000   1.0000   1.0000   1.0000

          k =-0.1667-0.0321-0.2244 (  4526 PWs)   bands (ev):

    -8.4962  -8.0259  -7.9018  -7.8786  -7.6403  -7.5974   3.4537   3.4627
     3.5171   3.5270   3.5574   3.7269   4.3426   4.3661   4.4645   4.4668
     4.4781   4.4901   4.5235   4.5547   4.7863   4.8851   4.9310   5.0153
     6.2928   6.3031   6.3193   6.3417   6.4495   6.4827   6.5841   6.6079
     6.6269   6.6606   6.7204   6.7915   7.4876   7.8083   8.0333   8.3658
     8.3920   8.4860   8.8269   9.0468   9.1313   9.6575   9.6901   9.8074
     9.8824  10.0692  10.4056  10.5305  10.8263  10.8571

     occupation numbers 
     1.0000   1.0000   1.0000   1.0000   1.0000   1.0000   1.0000   1.0000
     1.0000   1.0000   1.0000   1.0000   1.0000   1.0000   1.0000   1.0000
     1.0000   1.0000   1.0000   1.0000   1.0000   1.0000   1.0000   1.0000
     1.0000   1.0000   1.0000   1.0000   1.0000   1.0000   1.0000   1.0000
     1.0000   1.0000   1.0000   1.0000   1.0000   1.0000   1.0000   1.0000
     1.0000   1.0000   1.0000   1.0000   1.0000   1.0000   1.0000   1.0000
     1.0000   1.0000   1.0000   1.0000   1.0000   1.0000

          k =-0.3333 0.2566-0.1122 (  4513 PWs)   bands (ev):

    -8.2695  -8.1078  -7.7056  -7.5731  -7.5285  -7.5093   3.5250   3.5731
     3.8223   3.8761   3.9863   4.0880   4.2564   4.4746   4.5136   4.5461
     4.5968   4.6194   4.8711   4.9847   5.0159   5.1488   5.2451   5.3059
     6.1020   6.1319   6.1636   6.3247   6.3784   6.3934   6.6047   6.6148
     6.6711   6.6788   6.6870   6.7267   7.0438   7.2321   7.4197   7.4756
     7.6479   7.9691   8.0799   8.5068   8.6340   8.8006   9.0219   9.0230
     9.2641   9.6069  10.3624  10.4373  10.5593  10.6568

     occupation numbers 
     1.0000   1.0000   1.0000   1.0000   1.0000   1.0000   1.0000   1.0000
     1.0000   1.0000   1.0000   1.0000   1.0000   1.0000   1.0000   1.0000
     1.0000   1.0000   1.0000   1.0000   1.0000   1.0000   1.0000   1.0000
     1.0000   1.0000   1.0000   1.0000   1.0000   1.0000   1.0000   1.0000
     1.0000   1.0000   1.0000   1.0000   1.0000   1.0000   1.0000   1.0000
     1.0000   1.0000   1.0000   1.0000   1.0000   1.0000   1.0000   1.0000
     1.0000   1.0000   1.0000   1.0000   1.0000   1.0000

          k =-0.3333 0.2566-0.2244 (  4511 PWs)   bands (ev):

    -8.1042  -7.9681  -7.6738  -7.6560  -7.6201  -7.5788   3.3414   3.3956
     3.4503   3.4981   3.7166   3.7393   4.2336   4.4856   4.4940   4.5530
     4.5587   4.6097   4.7044   4.7941   4.8652   4.9727   5.1284   5.1507
     6.2046   6.3088   6.3491   6.3503   6.4058   6.4561   6.6009   6.6110
     6.6869   6.7236   6.8635   6.9692   7.2842   7.4529   7.5447   7.6258
     7.9093   8.0805   8.4822   8.7706   8.9452   9.0929   9.1432   9.2293
     9.6749   9.9987  10.0217  10.2194  10.4580  10.5761

     occupation numbers 
     1.0000   1.0000   1.0000   1.0000   1.0000   1.0000   1.0000   1.0000
     1.0000   1.0000   1.0000   1.0000   1.0000   1.0000   1.0000   1.0000
     1.0000   1.0000   1.0000   1.0000   1.0000   1.0000   1.0000   1.0000
     1.0000   1.0000   1.0000   1.0000   1.0000   1.0000   1.0000   1.0000
     1.0000   1.0000   1.0000   1.0000   1.0000   1.0000   1.0000   1.0000
     1.0000   1.0000   1.0000   1.0000   1.0000   1.0000   1.0000   1.0000
     1.0000   1.0000   1.0000   1.0000   1.0000   1.0000

          k =-0.3333 0.3208-0.1122 (  4506 PWs)   bands (ev):

    -8.3148  -8.0051  -7.7967  -7.5363  -7.5346  -7.5061   3.5808   3.6439
     3.8292   3.8394   3.8779   3.9728   4.3626   4.4535   4.4851   4.5296
     4.6045   4.6174   4.8087   4.9818   5.0422   5.1842   5.2222   5.3170
     6.0922   6.1642   6.1800   6.3090   6.4006   6.4267   6.6689   6.6873
     6.6882   6.6889   6.7188   6.8178   7.0738   7.1373   7.3309   7.5223
     7.7817   7.9133   8.1668   8.2379   8.5332   8.7158   8.7766   9.1878
     9.4886   9.8698  10.1025  10.2898  10.5258  10.7274

     occupation numbers 
     1.0000   1.0000   1.0000   1.0000   1.0000   1.0000   1.0000   1.0000
     1.0000   1.0000   1.0000   1.0000   1.0000   1.0000   1.0000   1.0000
     1.0000   1.0000   1.0000   1.0000   1.0000   1.0000   1.0000   1.0000
     1.0000   1.0000   1.0000   1.0000   1.0000   1.0000   1.0000   1.0000
     1.0000   1.0000   1.0000   1.0000   1.0000   1.0000   1.0000   1.0000
     1.0000   1.0000   1.0000   1.0000   1.0000   1.0000   1.0000   1.0000
     1.0000   1.0000   1.0000   1.0000   1.0000   1.0000

          k =-0.3333 0.3208-0.2244 (  4509 PWs)   bands (ev):

    -8.1428  -7.8838  -7.7210  -7.6909  -7.5935  -7.5684   3.3808   3.4563
     3.4703   3.5204   3.5921   3.6322   4.3489   4.4514   4.5020   4.5239
     4.5303   4.5847   4.6934   4.8402   4.8790   5.0318   5.0581   5.1215
     6.2728   6.2954   6.3478   6.4019   6.4159   6.4915   6.6037   6.6463
     6.6809   6.7800   6.7880   6.9726   7.1954   7.3741   7.5435   7.8825
     7.8906   8.0482   8.6132   8.6591   9.0036   9.0761   9.2035   9.2089
     9.5354   9.7565  10.1489  10.1780  10.3811  10.6192

     occupation numbers 
     1.0000   1.0000   1.0000   1.0000   1.0000   1.0000   1.0000   1.0000
     1.0000   1.0000   1.0000   1.0000   1.0000   1.0000   1.0000   1.0000
     1.0000   1.0000   1.0000   1.0000   1.0000   1.0000   1.0000   1.0000
     1.0000   1.0000   1.0000   1.0000   1.0000   1.0000   1.0000   1.0000
     1.0000   1.0000   1.0000   1.0000   1.0000   1.0000   1.0000   1.0000
     1.0000   1.0000   1.0000   1.0000   1.0000   1.0000   1.0000   1.0000
     1.0000   1.0000   1.0000   1.0000   1.0000   1.0000

          k = 0.5000-0.2245-0.1122 (  4496 PWs)   bands (ev):

    -7.9027  -7.8925  -7.8869  -7.5199  -7.5167  -7.5110   3.5698   3.6121
     3.6610   3.7716   3.7785   3.9119   4.4368   4.4962   4.5580   4.5743
     4.6383   4.6571   5.0608   5.0865   5.1232   5.2534   5.3148   5.3307
     6.1129   6.2784   6.3504   6.4130   6.4501   6.4908   6.6826   6.6926
     6.7021   6.8025   6.8327   6.8564   7.0340   7.0741   7.1047   7.4530
     7.4871   7.6369   7.9064   8.0888   8.1011   8.5039   8.5371   8.5813
     9.7095   9.9243  10.0362  10.0725  10.1457  10.1964

     occupation numbers 
     1.0000   1.0000   1.0000   1.0000   1.0000   1.0000   1.0000   1.0000
     1.0000   1.0000   1.0000   1.0000   1.0000   1.0000   1.0000   1.0000
     1.0000   1.0000   1.0000   1.0000   1.0000   1.0000   1.0000   1.0000
     1.0000   1.0000   1.0000   1.0000   1.0000   1.0000   1.0000   1.0000
     1.0000   1.0000   1.0000   1.0000   1.0000   1.0000   1.0000   1.0000
     1.0000   1.0000   1.0000   1.0000   1.0000   1.0000   1.0000   1.0000
     1.0000   1.0000   1.0000   1.0000   1.0000   1.0000

          k = 0.5000-0.2245-0.2244 (  4494 PWs)   bands (ev):

    -7.8019  -7.7946  -7.7906  -7.5770  -7.5758  -7.5739   3.3279   3.3618
     3.3860   3.4410   3.5405   3.5908   4.3982   4.5075   4.5523   4.6125
     4.6424   4.6532   4.8949   4.9379   4.9850   5.0728   5.0960   5.1081
     6.2812   6.4011   6.4643   6.4912   6.4966   6.5228   6.6508   6.6900
     6.7193   6.7846   6.8310   6.9117   7.1952   7.1957   7.3020   7.3732
     7.5346   7.7794   8.1250   8.4419   8.6352   9.0747   9.2951   9.3157
     9.5005   9.6124   9.7780  10.2668  10.2750  10.2785

     occupation numbers 
     1.0000   1.0000   1.0000   1.0000   1.0000   1.0000   1.0000   1.0000
     1.0000   1.0000   1.0000   1.0000   1.0000   1.0000   1.0000   1.0000
     1.0000   1.0000   1.0000   1.0000   1.0000   1.0000   1.0000   1.0000
     1.0000   1.0000   1.0000   1.0000   1.0000   1.0000   1.0000   1.0000
     1.0000   1.0000   1.0000   1.0000   1.0000   1.0000   1.0000   1.0000
     1.0000   1.0000   1.0000   1.0000   1.0000   1.0000   1.0000   1.0000
     1.0000   1.0000   1.0000   1.0000   1.0000   1.0000

     highest occupied level (ev):    11.4269

!    total energy              =   -1084.41406303 Ry
     estimated scf accuracy    <          2.9E-09 Ry

     The total energy is the sum of the following terms:
     one-electron contribution =    -370.66726581 Ry
     hartree contribution      =     323.49718146 Ry
     xc contribution           =    -330.62818947 Ry
     ewald contribution        =    -706.61578921 Ry

     convergence has been achieved in  21 iterations

     Forces acting on atoms (cartesian axes, Ry/au):

     atom    1 type  1   force =     0.00000000   -0.00001812   -0.10321458
     atom    2 type  1   force =     0.00000000    0.00001636   -0.10321109
     atom    3 type  2   force =     0.00000000    0.00000180    0.10321349
     atom    4 type  2   force =     0.00000000   -0.00000180    0.10321308
     atom    5 type  1   force =     0.00000000   -0.00001792   -0.10321320
     atom    6 type  1   force =     0.00000000    0.00001744   -0.10321289
     atom    7 type  2   force =     0.00000000    0.00000116    0.10321342
     atom    8 type  2   force =     0.00000000   -0.00000245    0.10321269
     atom    9 type  1   force =     0.00000000   -0.00001463   -0.10321476
     atom   10 type  1   force =     0.00000000    0.00001762   -0.10321220
     atom   11 type  2   force =     0.00000000    0.00000205    0.10321290
     atom   12 type  2   force =     0.00000000   -0.00000152    0.10321314
     The non-local contrib.  to forces
     atom    1 type  1   force =     0.00000000    0.00002153   -0.28278067
     atom    2 type  1   force =     0.00000000   -0.00002289   -0.28277927
     atom    3 type  2   force =     0.00000000    0.00017283   -0.16334627
     atom    4 type  2   force =     0.00000000   -0.00017200   -0.16334609
     atom    5 type  1   force =     0.00000000    0.00002215   -0.28277993
     atom    6 type  1   force =     0.00000000   -0.00002195   -0.28277971
     atom    7 type  2   force =     0.00000000    0.00017206   -0.16334599
     atom    8 type  2   force =     0.00000000   -0.00017314   -0.16334656
     atom    9 type  1   force =     0.00000000    0.00002290   -0.28278056
     atom   10 type  1   force =     0.00000000   -0.00002218   -0.28277940
     atom   11 type  2   force =     0.00000000    0.00017189   -0.16334662
     atom   12 type  2   force =     0.00000000   -0.00017213   -0.16334626
     The ionic contribution  to forces
     atom    1 type  1   force =    -0.00000000    0.00000001   -1.97868559
     atom    2 type  1   force =     0.00000000    0.00000001   -1.97868559
     atom    3 type  2   force =    -0.00000000    0.00000001    1.97868559
     atom    4 type  2   force =     0.00000000    0.00000000    1.97868559
     atom    5 type  1   force =    -0.00000001    0.00000001   -1.97868560
     atom    6 type  1   force =     0.00000001   -0.00000001   -1.97868560
     atom    7 type  2   force =    -0.00000001    0.00000001    1.97868560
     atom    8 type  2   force =     0.00000001   -0.00000001    1.97868560
     atom    9 type  1   force =    -0.00000000   -0.00000001   -1.97868559
     atom   10 type  1   force =     0.00000000   -0.00000001   -1.97868559
     atom   11 type  2   force =    -0.00000000   -0.00000000    1.97868559
     atom   12 type  2   force =     0.00000000   -0.00000001    1.97868559
     The local contribution  to forces
     atom    1 type  1   force =    -0.00000004   -0.00003985    2.13067029
     atom    2 type  1   force =    -0.00000000    0.00004201    2.13066343
     atom    3 type  2   force =    -0.00000001   -0.00016841   -1.71295948
     atom    4 type  2   force =    -0.00000000    0.00017016   -1.71296047
     atom    5 type  1   force =    -0.00000008   -0.00003913    2.13066786
     atom    6 type  1   force =     0.00000008    0.00004019    2.13066660
     atom    7 type  2   force =    -0.00000002   -0.00016893   -1.71295997
     atom    8 type  2   force =     0.00000002    0.00016827   -1.71296025
     atom    9 type  1   force =    -0.00000000   -0.00004387    2.13066923
     atom   10 type  1   force =     0.00000004    0.00004065    2.13066477
     atom   11 type  2   force =    -0.00000000   -0.00016926   -1.71296064
     atom   12 type  2   force =     0.00000001    0.00016772   -1.71295970
     The core correction contribution to forces
     atom    1 type  1   force =    -0.00000001    0.00000269    0.02757508
     atom    2 type  1   force =    -0.00000000   -0.00000266    0.02757523
     atom    3 type  2   force =     0.00000000   -0.00000197    0.00083691
     atom    4 type  2   force =    -0.00000000    0.00000196    0.00083690
     atom    5 type  1   force =    -0.00000001    0.00000261    0.02757510
     atom    6 type  1   force =     0.00000001   -0.00000265    0.02757516
     atom    7 type  2   force =     0.00000000   -0.00000196    0.00083690
     atom    8 type  2   force =    -0.00000000    0.00000197    0.00083691
     atom    9 type  1   force =     0.00000000    0.00000269    0.02757515
     atom   10 type  1   force =     0.00000001   -0.00000268    0.02757521
     atom   11 type  2   force =     0.00000000   -0.00000195    0.00083691
     atom   12 type  2   force =    -0.00000000    0.00000196    0.00083691
     The Hubbard contrib.    to forces
     atom    1 type  1   force =     0.00000000    0.00000000    0.00000000
     atom    2 type  1   force =     0.00000000    0.00000000    0.00000000
     atom    3 type  2   force =     0.00000000    0.00000000    0.00000000
     atom    4 type  2   force =     0.00000000    0.00000000    0.00000000
     atom    5 type  1   force =     0.00000000    0.00000000    0.00000000
     atom    6 type  1   force =     0.00000000    0.00000000    0.00000000
     atom    7 type  2   force =     0.00000000    0.00000000    0.00000000
     atom    8 type  2   force =     0.00000000    0.00000000    0.00000000
     atom    9 type  1   force =     0.00000000    0.00000000    0.00000000
     atom   10 type  1   force =     0.00000000    0.00000000    0.00000000
     atom   11 type  2   force =     0.00000000    0.00000000    0.00000000
     atom   12 type  2   force =     0.00000000    0.00000000    0.00000000
     The SCF correction term to forces
     atom    1 type  1   force =     0.00000000   -0.00000240    0.00001029
     atom    2 type  1   force =    -0.00000000   -0.00000002    0.00001909
     atom    3 type  2   force =     0.00000000   -0.00000056    0.00000072
     atom    4 type  2   force =    -0.00000000   -0.00000183    0.00000112
     atom    5 type  1   force =     0.00000000   -0.00000347    0.00001334
     atom    6 type  1   force =    -0.00000000    0.00000196    0.00001463
     atom    7 type  2   force =     0.00000000    0.00000008    0.00000086
     atom    8 type  2   force =    -0.00000000    0.00000055    0.00000097
     atom    9 type  1   force =     0.00000000    0.00000376    0.00001100
     atom   10 type  1   force =    -0.00000000    0.00000194    0.00001679
     atom   11 type  2   force =     0.00000000    0.00000147    0.00000163
     atom   12 type  2   force =     0.00000000    0.00000103    0.00000057

     Total force =     0.357541     Total SCF correction =     0.000036

     init_run     :      9.18s CPU     10.74s WALL (       1 calls)
     electrons    :    289.43s CPU    332.71s WALL (       1 calls)
     forces       :      3.86s CPU      4.36s WALL (       1 calls)

     Called by init_run:
     wfcinit      :      3.43s CPU      3.78s WALL (       1 calls)
     wfcinit:atom :      0.03s CPU      0.03s WALL (       4 calls)
     wfcinit:wfcr :      3.18s CPU      3.53s WALL (       4 calls)
     potinit      :      1.35s CPU      1.46s WALL (       1 calls)
     hinit0       :      3.92s CPU      4.97s WALL (       1 calls)

     Called by electrons:
     c_bands      :    249.18s CPU    286.23s WALL (      21 calls)
     sum_band     :     26.17s CPU     30.33s WALL (      21 calls)
     v_of_rho     :      8.62s CPU     10.15s WALL (      22 calls)
     v_h          :      0.46s CPU      0.51s WALL (      22 calls)
     v_xc         :      8.64s CPU     10.19s WALL (      23 calls)
     newd         :      3.96s CPU      4.23s WALL (      22 calls)
     mix_rho      :      1.09s CPU      1.30s WALL (      21 calls)

     Called by c_bands:
     init_us_2    :      1.69s CPU      1.97s WALL (     176 calls)
     init_us_2:cp :      1.69s CPU      1.97s WALL (     176 calls)
     cegterg      :    216.98s CPU    248.90s WALL (      84 calls)

     Called by sum_band:
     sum_band:wei :      0.03s CPU      0.04s WALL (      21 calls)
     sum_band:loo :     20.44s CPU     23.98s WALL (      21 calls)
     sum_band:buf :      0.20s CPU      0.26s WALL (      84 calls)
     sum_band:ini :      0.79s CPU      0.92s WALL (      84 calls)
     sum_band:cal :      4.47s CPU      5.08s WALL (      84 calls)
     sum_band:bec :      0.02s CPU      0.02s WALL (      84 calls)
     addusdens    :      2.85s CPU      3.21s WALL (      21 calls)
     addusd:skk   :      0.02s CPU      0.02s WALL (      42 calls)
     addusd:dgemm :      0.44s CPU      0.48s WALL (      42 calls)
     addusd:qvan2 :      1.41s CPU      1.56s WALL (      42 calls)

     Called by *egterg:
     cdiaghg      :      5.97s CPU      6.80s WALL (     571 calls)
     cegterg:over :     18.68s CPU     21.27s WALL (     487 calls)
     cegterg:upda :      9.62s CPU     10.87s WALL (     487 calls)
     cegterg:last :     23.50s CPU     26.58s WALL (     307 calls)
     h_psi        :    140.65s CPU    161.72s WALL (     575 calls)
     s_psi        :     15.72s CPU     18.26s WALL (     575 calls)
     g_psi        :      0.75s CPU      0.83s WALL (     487 calls)

     Called by h_psi:
     h_psi:calbec :     18.74s CPU     21.62s WALL (     575 calls)
     vloc_psi     :    105.27s CPU    120.42s WALL (     575 calls)
     add_vuspsi   :     15.97s CPU     18.88s WALL (     575 calls)

     General routines
     calbec       :     24.05s CPU     27.64s WALL (     675 calls)
     fft          :      5.12s CPU      5.99s WALL (     295 calls)
     ffts         :      0.53s CPU      0.53s WALL (      43 calls)
     fftw         :    103.07s CPU    118.35s WALL (   38994 calls)
     interpolate  :      0.85s CPU      0.89s WALL (      22 calls)

     Parallel routines

     PWSCF        :   5m 3.51s CPU   5m48.91s WALL


   This run was terminated on:  14:22:56  27Aug2025            

=------------------------------------------------------------------------------=
   JOB DONE.
=------------------------------------------------------------------------------=
