
     Program PWSCF v.7.2 starts on  1Aug2025 at 11:10:38 

     This program is part of the open-source Quantum ESPRESSO suite
     for quantum simulation of materials; please cite
         "P. Giannozzi et al., J. Phys.:Condens. Matter 21 395502 (2009);
         "P. Giannozzi et al., J. Phys.:Condens. Matter 29 465901 (2017);
         "P. Giannozzi et al., J. Chem. Phys. 152 154105 (2020);
          URL http://www.quantum-espresso.org", 
     in publications or presentations arising from this work. More details at
     http://www.quantum-espresso.org/quote

     Parallel version (MPI), running on    32 processors

     MPI processes distributed on     1 nodes
     124255 MiB available memory on the printing compute node when the environment starts

     Reading input from /home/jvc/QEspresso7.2/ZnO_database/scripts/cell223.in/ZnO-2.94-1.52-223.in
Warning: card &CELL ignored
Warning: card / ignored
Warning: card &FCP ignored
Warning: card / ignored
Warning: card &RISM ignored
Warning: card / ignored

     Current dimensions of program PWSCF are:
     Max number of different atomic species (ntypx) = 10
     Max number of k-points (npk) =  40000
     Max angular momentum in pseudopotentials (lmaxx) =  4
     file Zn.upf: wavefunction(s)  3D renormalized
     Found identity + (  0.0000  0.0000  0.3333) symmetry
     This is a supercell, fractional translations are disabled
     Message from routine setup:
     using ibrav=0 with symmetry is DISCOURAGED, use correct ibrav instead

     K-points division:     npool     =       8
     R & G space division:  proc/nbgrp/npool/nimage =       4
     Subspace diagonalization in iterative solution of the eigenvalue problem:
     one sub-group per band group will be used
     custom distributed-memory algorithm (size of sub-group:  2*  2 procs)

     Message from routine divide_et_impera:
     suboptimal parallelization: some nodes have no k-points

     Parallelization info
     --------------------
     sticks:   dense  smooth     PW     G-vecs:    dense   smooth      PW
     Min        1054     526    145               133630    47266    6863
     Max        1055     527    146               133635    47273    6872
     Sum        4219    2107    583               534533   189081   27473

     Using Slab Decomposition



     bravais-lattice index     =            0
     lattice parameter (alat)  =      12.3576  a.u.
     unit-cell volume          =    3957.5722 (a.u.)^3
     number of atoms/cell      =           48
     number of atomic types    =            2
     number of electrons       =       432.00
     number of Kohn-Sham states=          216
     kinetic-energy cutoff     =      50.0000  Ry
     charge density cutoff     =     400.0000  Ry
     scf convergence threshold =      1.0E-08
     mixing beta               =       0.3000
     number of iterations used =            8  plain     mixing
     Exchange-correlation= PBE
                           (   1   4   3   4   0   0   0)

     celldm(1)=  12.357644  celldm(2)=   0.000000  celldm(3)=   0.000000
     celldm(4)=   0.000000  celldm(5)=   0.000000  celldm(6)=   0.000000

     crystal axes: (cart. coord. in units of alat)
               a(1) = (   1.000000   0.000000   0.000000 )  
               a(2) = (  -0.500000   0.866025   0.000000 )  
               a(3) = (   0.000000   0.000000   2.421538 )  

     reciprocal axes: (cart. coord. in units 2 pi/alat)
               b(1) = (  1.000000  0.577350 -0.000000 )  
               b(2) = (  0.000000  1.154701  0.000000 )  
               b(3) = (  0.000000 -0.000000  0.412961 )  


     PseudoPot. # 1 for Zn read from file:
     /home/jvc/QEspresso7.2/ZnO_database/pseudos/Zn.upf
     MD5 check sum: 7f56cabf9682ed8c977c2f7d0c5985c5
     Pseudo is Ultrasoft + core correction, Zval = 12.0
     Generated using &quot;atomic&quot; code by A. Dal Corso  v.6.2.2
     Using radial grid of 1201 points,  6 beta functions with: 
                l(1) =   0
                l(2) =   0
                l(3) =   1
                l(4) =   1
                l(5) =   2
                l(6) =   2
     Q(r) pseudized with 0 coefficients 


     PseudoPot. # 2 for O  read from file:
     /home/jvc/QEspresso7.2/ZnO_database/pseudos/O.upf
     MD5 check sum: 91400c9766925bcf19f520983a725ff0
     Pseudo is Ultrasoft + core correction, Zval =  6.0
     Generated using &quot;atomic&quot; code by A. Dal Corso  v.6.3MaX
     Using radial grid of 1095 points,  4 beta functions with: 
                l(1) =   0
                l(2) =   0
                l(3) =   1
                l(4) =   1
     Q(r) pseudized with 0 coefficients 


     atomic species   valence    mass     pseudopotential
        Zn            12.00    65.38000     Zn( 1.00)
        O              6.00    15.99900     O ( 1.00)

      6 Sym. Ops. (no inversion) found


                                    s                        frac. trans.

      isym =  1     identity                                     

 cryst.   s( 1) = (     1          0          0      )
                  (     0          1          0      )
                  (     0          0          1      )

 cart.    s( 1) = (  1.0000000  0.0000000  0.0000000 )
                  (  0.0000000  1.0000000  0.0000000 )
                  (  0.0000000  0.0000000  1.0000000 )


      isym =  2     120 deg rotation - cryst. axis [0,0,1]       

 cryst.   s( 2) = (     0          1          0      )
                  (    -1         -1          0      )
                  (     0          0          1      )

 cart.    s( 2) = ( -0.5000000 -0.8660254  0.0000000 )
                  (  0.8660254 -0.5000000  0.0000000 )
                  (  0.0000000  0.0000000  1.0000000 )


      isym =  3     120 deg rotation - cryst. axis [0,0,-1]      

 cryst.   s( 3) = (    -1         -1          0      )
                  (     1          0          0      )
                  (     0          0          1      )

 cart.    s( 3) = ( -0.5000000  0.8660254  0.0000000 )
                  ( -0.8660254 -0.5000000  0.0000000 )
                  (  0.0000000  0.0000000  1.0000000 )


      isym =  4     inv. 180 deg rotation - cart. axis [1,0,0]   

 cryst.   s( 4) = (    -1          0          0      )
                  (     1          1          0      )
                  (     0          0          1      )

 cart.    s( 4) = ( -1.0000000  0.0000000  0.0000000 )
                  (  0.0000000  1.0000000  0.0000000 )
                  (  0.0000000  0.0000000  1.0000000 )


      isym =  5     inv. 180 deg rotation - cryst. axis [0,1,0]  

 cryst.   s( 5) = (     1          1          0      )
                  (     0         -1          0      )
                  (     0          0          1      )

 cart.    s( 5) = (  0.5000000  0.8660254  0.0000000 )
                  (  0.8660254 -0.5000000  0.0000000 )
                  (  0.0000000  0.0000000  1.0000000 )


      isym =  6     inv. 180 deg rotation - cryst. axis [1,1,0]  

 cryst.   s( 6) = (     0         -1          0      )
                  (    -1          0          0      )
                  (     0          0          1      )

 cart.    s( 6) = (  0.5000000 -0.8660254  0.0000000 )
                  ( -0.8660254 -0.5000000  0.0000000 )
                  (  0.0000000  0.0000000  1.0000000 )


   Cartesian axes

     site n.     atom                  positions (alat units)
         1           Zn  tau(   1) = (   0.2500000   0.1443376   0.4041010  )
         2           Zn  tau(   2) = (   0.0000000   0.2886751   0.0005114  )
         3           O   tau(   3) = (   0.2500000   0.1443376   0.7100565  )
         4           O   tau(   4) = (   0.0000000   0.2886751   0.3064669  )
         5           Zn  tau(   5) = (   0.2500000   0.1443376   1.2112802  )
         6           Zn  tau(   6) = (   0.0000000   0.2886751   0.8076906  )
         7           O   tau(   7) = (   0.2500000   0.1443376   1.5172357  )
         8           O   tau(   8) = (   0.0000000   0.2886751   1.1136461  )
         9           Zn  tau(   9) = (   0.2500000   0.1443376   2.0184594  )
        10           Zn  tau(  10) = (   0.0000000   0.2886751   1.6148698  )
        11           O   tau(  11) = (   0.2500000   0.1443376   2.3244148  )
        12           O   tau(  12) = (   0.0000000   0.2886751   1.9208253  )
        13           Zn  tau(  13) = (   0.0000000   0.5773503   0.4041010  )
        14           Zn  tau(  14) = (  -0.2500000   0.7216878   0.0005114  )
        15           O   tau(  15) = (   0.0000000   0.5773503   0.7100565  )
        16           O   tau(  16) = (  -0.2500000   0.7216878   0.3064669  )
        17           Zn  tau(  17) = (   0.0000000   0.5773503   1.2112802  )
        18           Zn  tau(  18) = (  -0.2500000   0.7216878   0.8076906  )
        19           O   tau(  19) = (   0.0000000   0.5773503   1.5172357  )
        20           O   tau(  20) = (  -0.2500000   0.7216878   1.1136461  )
        21           Zn  tau(  21) = (   0.0000000   0.5773503   2.0184594  )
        22           Zn  tau(  22) = (  -0.2500000   0.7216878   1.6148698  )
        23           O   tau(  23) = (   0.0000000   0.5773503   2.3244148  )
        24           O   tau(  24) = (  -0.2500000   0.7216878   1.9208253  )
        25           Zn  tau(  25) = (   0.7500000   0.1443376   0.4041010  )
        26           Zn  tau(  26) = (   0.5000000   0.2886751   0.0005114  )
        27           O   tau(  27) = (   0.7500000   0.1443376   0.7100565  )
        28           O   tau(  28) = (   0.5000000   0.2886751   0.3064669  )
        29           Zn  tau(  29) = (   0.7500000   0.1443376   1.2112802  )
        30           Zn  tau(  30) = (   0.5000000   0.2886751   0.8076906  )
        31           O   tau(  31) = (   0.7500000   0.1443376   1.5172357  )
        32           O   tau(  32) = (   0.5000000   0.2886751   1.1136461  )
        33           Zn  tau(  33) = (   0.7500000   0.1443376   2.0184594  )
        34           Zn  tau(  34) = (   0.5000000   0.2886751   1.6148698  )
        35           O   tau(  35) = (   0.7500000   0.1443376   2.3244148  )
        36           O   tau(  36) = (   0.5000000   0.2886751   1.9208253  )
        37           Zn  tau(  37) = (   0.5000000   0.5773503   0.4041010  )
        38           Zn  tau(  38) = (   0.2500000   0.7216878   0.0005114  )
        39           O   tau(  39) = (   0.5000000   0.5773503   0.7100565  )
        40           O   tau(  40) = (   0.2500000   0.7216878   0.3064669  )
        41           Zn  tau(  41) = (   0.5000000   0.5773503   1.2112802  )
        42           Zn  tau(  42) = (   0.2500000   0.7216878   0.8076906  )
        43           O   tau(  43) = (   0.5000000   0.5773503   1.5172357  )
        44           O   tau(  44) = (   0.2500000   0.7216878   1.1136461  )
        45           Zn  tau(  45) = (   0.5000000   0.5773503   2.0184594  )
        46           Zn  tau(  46) = (   0.2500000   0.7216878   1.6148698  )
        47           O   tau(  47) = (   0.5000000   0.5773503   2.3244148  )
        48           O   tau(  48) = (   0.2500000   0.7216878   1.9208253  )

   Crystallographic axes

     site n.     atom                  positions (cryst. coord.)
         1           Zn  tau(   1) = (  0.3333333  0.1666667  0.1668779  )
         2           Zn  tau(   2) = (  0.1666667  0.3333333  0.0002112  )
         3           O   tau(   3) = (  0.3333333  0.1666667  0.2932255  )
         4           O   tau(   4) = (  0.1666667  0.3333333  0.1265588  )
         5           Zn  tau(   5) = (  0.3333333  0.1666667  0.5002112  )
         6           Zn  tau(   6) = (  0.1666667  0.3333333  0.3335445  )
         7           O   tau(   7) = (  0.3333333  0.1666667  0.6265588  )
         8           O   tau(   8) = (  0.1666667  0.3333333  0.4598921  )
         9           Zn  tau(   9) = (  0.3333333  0.1666667  0.8335445  )
        10           Zn  tau(  10) = (  0.1666667  0.3333333  0.6668779  )
        11           O   tau(  11) = (  0.3333333  0.1666667  0.9598921  )
        12           O   tau(  12) = (  0.1666667  0.3333333  0.7932255  )
        13           Zn  tau(  13) = (  0.3333333  0.6666667  0.1668779  )
        14           Zn  tau(  14) = (  0.1666667  0.8333333  0.0002112  )
        15           O   tau(  15) = (  0.3333333  0.6666667  0.2932255  )
        16           O   tau(  16) = (  0.1666667  0.8333333  0.1265588  )
        17           Zn  tau(  17) = (  0.3333333  0.6666667  0.5002112  )
        18           Zn  tau(  18) = (  0.1666667  0.8333333  0.3335445  )
        19           O   tau(  19) = (  0.3333333  0.6666667  0.6265588  )
        20           O   tau(  20) = (  0.1666667  0.8333333  0.4598921  )
        21           Zn  tau(  21) = (  0.3333333  0.6666667  0.8335445  )
        22           Zn  tau(  22) = (  0.1666667  0.8333333  0.6668779  )
        23           O   tau(  23) = (  0.3333333  0.6666667  0.9598921  )
        24           O   tau(  24) = (  0.1666667  0.8333333  0.7932255  )
        25           Zn  tau(  25) = (  0.8333333  0.1666667  0.1668779  )
        26           Zn  tau(  26) = (  0.6666667  0.3333333  0.0002112  )
        27           O   tau(  27) = (  0.8333333  0.1666667  0.2932255  )
        28           O   tau(  28) = (  0.6666667  0.3333333  0.1265588  )
        29           Zn  tau(  29) = (  0.8333333  0.1666667  0.5002112  )
        30           Zn  tau(  30) = (  0.6666667  0.3333333  0.3335445  )
        31           O   tau(  31) = (  0.8333333  0.1666667  0.6265588  )
        32           O   tau(  32) = (  0.6666667  0.3333333  0.4598921  )
        33           Zn  tau(  33) = (  0.8333333  0.1666667  0.8335445  )
        34           Zn  tau(  34) = (  0.6666667  0.3333333  0.6668779  )
        35           O   tau(  35) = (  0.8333333  0.1666667  0.9598921  )
        36           O   tau(  36) = (  0.6666667  0.3333333  0.7932255  )
        37           Zn  tau(  37) = (  0.8333333  0.6666667  0.1668779  )
        38           Zn  tau(  38) = (  0.6666667  0.8333333  0.0002112  )
        39           O   tau(  39) = (  0.8333333  0.6666667  0.2932255  )
        40           O   tau(  40) = (  0.6666667  0.8333333  0.1265588  )
        41           Zn  tau(  41) = (  0.8333333  0.6666667  0.5002112  )
        42           Zn  tau(  42) = (  0.6666667  0.8333333  0.3335445  )
        43           O   tau(  43) = (  0.8333333  0.6666667  0.6265588  )
        44           O   tau(  44) = (  0.6666667  0.8333333  0.4598921  )
        45           Zn  tau(  45) = (  0.8333333  0.6666667  0.8335445  )
        46           Zn  tau(  46) = (  0.6666667  0.8333333  0.6668779  )
        47           O   tau(  47) = (  0.8333333  0.6666667  0.9598921  )
        48           O   tau(  48) = (  0.6666667  0.8333333  0.7932255  )

     number of k points=     6
                       cart. coord. in units 2pi/alat
        k(    1) = (   0.0000000   0.0000000   0.0000000), wk =   0.1111111
        k(    2) = (   0.0000000   0.0000000  -0.2064804), wk =   0.1111111
        k(    3) = (   0.0000000   0.3849002   0.0000000), wk =   0.6666667
        k(    4) = (   0.0000000   0.3849002  -0.2064804), wk =   0.6666667
        k(    5) = (   0.3333333   0.5773503   0.0000000), wk =   0.2222222
        k(    6) = (   0.3333333   0.5773503  -0.2064804), wk =   0.2222222

                       cryst. coord.
        k(    1) = (   0.0000000   0.0000000   0.0000000), wk =   0.1111111
        k(    2) = (   0.0000000   0.0000000  -0.5000000), wk =   0.1111111
        k(    3) = (   0.0000000   0.3333333   0.0000000), wk =   0.6666667
        k(    4) = (   0.0000000   0.3333333  -0.5000000), wk =   0.6666667
        k(    5) = (   0.3333333   0.3333333   0.0000000), wk =   0.2222222
        k(    6) = (   0.3333333   0.3333333  -0.5000000), wk =   0.2222222

     Dense  grid:   534533 G-vectors     FFT dimensions: (  80,  80, 192)

     Smooth grid:   189081 G-vectors     FFT dimensions: (  60,  60, 135)

     Dynamical RAM for                 wfc:      19.47 MB

     Dynamical RAM for     wfc (w. buffer):      19.47 MB

     Dynamical RAM for           str. fact:       4.08 MB

     Dynamical RAM for           local pot:       0.00 MB

     Dynamical RAM for          nlocal pot:      56.24 MB

     Dynamical RAM for                qrad:       3.21 MB

     Dynamical RAM for          rho,v,vnew:      13.15 MB

     Dynamical RAM for               rhoin:       4.38 MB

     Dynamical RAM for            rho*nmix:      32.63 MB

     Dynamical RAM for           G-vectors:       8.01 MB

     Dynamical RAM for          h,s,v(r/c):       2.14 MB

     Dynamical RAM for          <psi|beta>:       2.06 MB

     Dynamical RAM for                 psi:      38.94 MB

     Dynamical RAM for                hpsi:      38.94 MB

     Dynamical RAM for                spsi:      38.94 MB

     Dynamical RAM for      wfcinit/wfcrot:      58.47 MB

     Dynamical RAM for           addusdens:      55.31 MB

     Dynamical RAM for          addusforce:      66.36 MB

     Estimated static dynamical RAM per process >     126.38 MB

     Estimated max dynamical RAM per process >     280.01 MB

     Estimated total dynamical RAM >       7.86 GB

     Check: negative core charge=   -0.000002

     Initial potential from superposition of free atoms

     starting charge     431.9106, renormalised to     432.0000
     Starting wfcs are  312 randomized atomic wfcs

     total cpu time spent up to now is       17.6 secs

     Self-consistent Calculation

     iteration #  1     ecut=    50.00 Ry     beta= 0.30
     Davidson diagonalization with overlap

---- Real-time Memory Report at c_bands before calling an iterative solver
           221 MiB given to the printing process from OS
             0 MiB allocation reported by mallinfo(arena+hblkhd)
        118953 MiB available memory on the node where the printing process lives
------------------
     ethr =  1.00E-02,  avg # of iterations =  2.0

     total cpu time spent up to now is       30.0 secs

     total energy              =   -4337.75904974 Ry
     estimated scf accuracy    <       8.27959645 Ry

     iteration #  2     ecut=    50.00 Ry     beta= 0.30
     Davidson diagonalization with overlap

---- Real-time Memory Report at c_bands before calling an iterative solver
           293 MiB given to the printing process from OS
             0 MiB allocation reported by mallinfo(arena+hblkhd)
        118743 MiB available memory on the node where the printing process lives
------------------
     ethr =  1.92E-03,  avg # of iterations =  2.0

     total cpu time spent up to now is       45.5 secs

     total energy              =   -4338.96169921 Ry
     estimated scf accuracy    <       1.04971841 Ry

     iteration #  3     ecut=    50.00 Ry     beta= 0.30
     Davidson diagonalization with overlap

---- Real-time Memory Report at c_bands before calling an iterative solver
           328 MiB given to the printing process from OS
             0 MiB allocation reported by mallinfo(arena+hblkhd)
        118470 MiB available memory on the node where the printing process lives
------------------
     ethr =  2.43E-04,  avg # of iterations =  7.7

     total cpu time spent up to now is       75.2 secs

     total energy              =   -4339.32664205 Ry
     estimated scf accuracy    <       0.68812821 Ry

     iteration #  4     ecut=    50.00 Ry     beta= 0.30
     Davidson diagonalization with overlap

---- Real-time Memory Report at c_bands before calling an iterative solver
           329 MiB given to the printing process from OS
             0 MiB allocation reported by mallinfo(arena+hblkhd)
        118938 MiB available memory on the node where the printing process lives
------------------
     ethr =  1.59E-04,  avg # of iterations =  9.8

     total cpu time spent up to now is      109.0 secs

     total energy              =   -4339.76727039 Ry
     estimated scf accuracy    <       2.68630713 Ry

     iteration #  5     ecut=    50.00 Ry     beta= 0.30
     Davidson diagonalization with overlap

---- Real-time Memory Report at c_bands before calling an iterative solver
           330 MiB given to the printing process from OS
             0 MiB allocation reported by mallinfo(arena+hblkhd)
        118840 MiB available memory on the node where the printing process lives
------------------
     ethr =  1.59E-04,  avg # of iterations =  2.0

     total cpu time spent up to now is      121.7 secs

     total energy              =   -4338.59953132 Ry
     estimated scf accuracy    <       1.50161636 Ry

     iteration #  6     ecut=    50.00 Ry     beta= 0.30
     Davidson diagonalization with overlap

---- Real-time Memory Report at c_bands before calling an iterative solver
           333 MiB given to the printing process from OS
             0 MiB allocation reported by mallinfo(arena+hblkhd)
        118339 MiB available memory on the node where the printing process lives
------------------
     ethr =  1.59E-04,  avg # of iterations = 13.3

     total cpu time spent up to now is      165.0 secs

     total energy              =   -4338.31203938 Ry
     estimated scf accuracy    <      13.75287919 Ry

     iteration #  7     ecut=    50.00 Ry     beta= 0.30
     Davidson diagonalization with overlap

---- Real-time Memory Report at c_bands before calling an iterative solver
           334 MiB given to the printing process from OS
             0 MiB allocation reported by mallinfo(arena+hblkhd)
        118746 MiB available memory on the node where the printing process lives
------------------
     ethr =  1.59E-04,  avg # of iterations = 11.5

     total cpu time spent up to now is      201.1 secs

     total energy              =   -4339.62135684 Ry
     estimated scf accuracy    <       0.81394311 Ry

     iteration #  8     ecut=    50.00 Ry     beta= 0.30
     Davidson diagonalization with overlap

---- Real-time Memory Report at c_bands before calling an iterative solver
           336 MiB given to the printing process from OS
             0 MiB allocation reported by mallinfo(arena+hblkhd)
        118845 MiB available memory on the node where the printing process lives
------------------
     ethr =  1.59E-04,  avg # of iterations =  2.0

     total cpu time spent up to now is      213.4 secs

     total energy              =   -4339.61110938 Ry
     estimated scf accuracy    <       0.46621344 Ry

     iteration #  9     ecut=    50.00 Ry     beta= 0.30
     Davidson diagonalization with overlap

---- Real-time Memory Report at c_bands before calling an iterative solver
           337 MiB given to the printing process from OS
             0 MiB allocation reported by mallinfo(arena+hblkhd)
        118321 MiB available memory on the node where the printing process lives
------------------
     ethr =  1.08E-04,  avg # of iterations =  2.0

     total cpu time spent up to now is      226.3 secs

     total energy              =   -4339.53113763 Ry
     estimated scf accuracy    <       0.29781632 Ry

     iteration # 10     ecut=    50.00 Ry     beta= 0.30
     Davidson diagonalization with overlap

---- Real-time Memory Report at c_bands before calling an iterative solver
           338 MiB given to the printing process from OS
             0 MiB allocation reported by mallinfo(arena+hblkhd)
        118422 MiB available memory on the node where the printing process lives
------------------
     ethr =  6.89E-05,  avg # of iterations =  7.0

     total cpu time spent up to now is      246.7 secs

     total energy              =   -4339.63720144 Ry
     estimated scf accuracy    <       0.00080213 Ry

     iteration # 11     ecut=    50.00 Ry     beta= 0.30
     Davidson diagonalization with overlap

---- Real-time Memory Report at c_bands before calling an iterative solver
           340 MiB given to the printing process from OS
             0 MiB allocation reported by mallinfo(arena+hblkhd)
        118789 MiB available memory on the node where the printing process lives
------------------
     c_bands:  1 eigenvalues not converged
     ethr =  1.86E-07,  avg # of iterations = 16.7

     total cpu time spent up to now is      292.0 secs

     total energy              =   -4339.64206711 Ry
     estimated scf accuracy    <       0.00643889 Ry

     iteration # 12     ecut=    50.00 Ry     beta= 0.30
     Davidson diagonalization with overlap

---- Real-time Memory Report at c_bands before calling an iterative solver
           340 MiB given to the printing process from OS
             0 MiB allocation reported by mallinfo(arena+hblkhd)
        118719 MiB available memory on the node where the printing process lives
------------------
     ethr =  1.86E-07,  avg # of iterations =  6.8

     total cpu time spent up to now is      318.8 secs

     total energy              =   -4339.64234656 Ry
     estimated scf accuracy    <       0.00053379 Ry

     iteration # 13     ecut=    50.00 Ry     beta= 0.30
     Davidson diagonalization with overlap

---- Real-time Memory Report at c_bands before calling an iterative solver
           340 MiB given to the printing process from OS
             0 MiB allocation reported by mallinfo(arena+hblkhd)
        118631 MiB available memory on the node where the printing process lives
------------------
     ethr =  1.24E-07,  avg # of iterations = 12.0

     total cpu time spent up to now is      356.5 secs

     total energy              =   -4339.64214169 Ry
     estimated scf accuracy    <       0.00396194 Ry

     iteration # 14     ecut=    50.00 Ry     beta= 0.30
     Davidson diagonalization with overlap

---- Real-time Memory Report at c_bands before calling an iterative solver
           340 MiB given to the printing process from OS
             0 MiB allocation reported by mallinfo(arena+hblkhd)
        118669 MiB available memory on the node where the printing process lives
------------------
     ethr =  1.24E-07,  avg # of iterations = 10.0

     total cpu time spent up to now is      388.2 secs

     total energy              =   -4339.64272572 Ry
     estimated scf accuracy    <       0.00014665 Ry

     iteration # 15     ecut=    50.00 Ry     beta= 0.30
     Davidson diagonalization with overlap

---- Real-time Memory Report at c_bands before calling an iterative solver
           340 MiB given to the printing process from OS
             0 MiB allocation reported by mallinfo(arena+hblkhd)
        118749 MiB available memory on the node where the printing process lives
------------------
     ethr =  3.39E-08,  avg # of iterations =  2.2

     total cpu time spent up to now is      402.5 secs

     total energy              =   -4339.64265433 Ry
     estimated scf accuracy    <       0.00027426 Ry

     iteration # 16     ecut=    50.00 Ry     beta= 0.30
     Davidson diagonalization with overlap

---- Real-time Memory Report at c_bands before calling an iterative solver
           340 MiB given to the printing process from OS
             0 MiB allocation reported by mallinfo(arena+hblkhd)
        118454 MiB available memory on the node where the printing process lives
------------------
     ethr =  3.39E-08,  avg # of iterations =  2.0

     total cpu time spent up to now is      415.0 secs

     total energy              =   -4339.64261379 Ry
     estimated scf accuracy    <       0.00011985 Ry

     iteration # 17     ecut=    50.00 Ry     beta= 0.30
     Davidson diagonalization with overlap

---- Real-time Memory Report at c_bands before calling an iterative solver
           340 MiB given to the printing process from OS
             0 MiB allocation reported by mallinfo(arena+hblkhd)
        118353 MiB available memory on the node where the printing process lives
------------------
     ethr =  2.77E-08,  avg # of iterations =  6.0

     total cpu time spent up to now is      434.7 secs

     total energy              =   -4339.64271898 Ry
     estimated scf accuracy    <       0.00000491 Ry

     iteration # 18     ecut=    50.00 Ry     beta= 0.30
     Davidson diagonalization with overlap

---- Real-time Memory Report at c_bands before calling an iterative solver
           340 MiB given to the printing process from OS
             0 MiB allocation reported by mallinfo(arena+hblkhd)
        118654 MiB available memory on the node where the printing process lives
------------------
     c_bands:  1 eigenvalues not converged
     ethr =  1.14E-09,  avg # of iterations = 18.5

     total cpu time spent up to now is      492.8 secs

     total energy              =   -4339.64263977 Ry
     estimated scf accuracy    <       0.00092648 Ry

     iteration # 19     ecut=    50.00 Ry     beta= 0.30
     Davidson diagonalization with overlap

---- Real-time Memory Report at c_bands before calling an iterative solver
           340 MiB given to the printing process from OS
             0 MiB allocation reported by mallinfo(arena+hblkhd)
        118697 MiB available memory on the node where the printing process lives
------------------
     ethr =  1.14E-09,  avg # of iterations = 14.5

     total cpu time spent up to now is      541.2 secs

     total energy              =   -4339.64266695 Ry
     estimated scf accuracy    <       0.00016321 Ry

     iteration # 20     ecut=    50.00 Ry     beta= 0.30
     Davidson diagonalization with overlap

---- Real-time Memory Report at c_bands before calling an iterative solver
           340 MiB given to the printing process from OS
             0 MiB allocation reported by mallinfo(arena+hblkhd)
        118771 MiB available memory on the node where the printing process lives
------------------
     ethr =  1.14E-09,  avg # of iterations =  8.7

     total cpu time spent up to now is      570.2 secs

     total energy              =   -4339.64263497 Ry
     estimated scf accuracy    <       0.00006803 Ry

     iteration # 21     ecut=    50.00 Ry     beta= 0.30
     Davidson diagonalization with overlap

---- Real-time Memory Report at c_bands before calling an iterative solver
           340 MiB given to the printing process from OS
             0 MiB allocation reported by mallinfo(arena+hblkhd)
        118726 MiB available memory on the node where the printing process lives
------------------
     ethr =  1.14E-09,  avg # of iterations = 13.3

     total cpu time spent up to now is      612.4 secs

     total energy              =   -4339.64265964 Ry
     estimated scf accuracy    <       0.00000716 Ry

     iteration # 22     ecut=    50.00 Ry     beta= 0.30
     Davidson diagonalization with overlap

---- Real-time Memory Report at c_bands before calling an iterative solver
           340 MiB given to the printing process from OS
             0 MiB allocation reported by mallinfo(arena+hblkhd)
        118563 MiB available memory on the node where the printing process lives
------------------
     ethr =  1.14E-09,  avg # of iterations =  3.2

     total cpu time spent up to now is      626.2 secs

     total energy              =   -4339.64265719 Ry
     estimated scf accuracy    <       0.00001371 Ry

     iteration # 23     ecut=    50.00 Ry     beta= 0.30
     Davidson diagonalization with overlap

---- Real-time Memory Report at c_bands before calling an iterative solver
           340 MiB given to the printing process from OS
             0 MiB allocation reported by mallinfo(arena+hblkhd)
        118078 MiB available memory on the node where the printing process lives
------------------
     ethr =  1.14E-09,  avg # of iterations =  1.7

     total cpu time spent up to now is      638.4 secs

     total energy              =   -4339.64265540 Ry
     estimated scf accuracy    <       0.00000953 Ry

     iteration # 24     ecut=    50.00 Ry     beta= 0.30
     Davidson diagonalization with overlap

---- Real-time Memory Report at c_bands before calling an iterative solver
           340 MiB given to the printing process from OS
             0 MiB allocation reported by mallinfo(arena+hblkhd)
        118201 MiB available memory on the node where the printing process lives
------------------
     ethr =  1.14E-09,  avg # of iterations =  1.8

     total cpu time spent up to now is      650.5 secs

     total energy              =   -4339.64265277 Ry
     estimated scf accuracy    <       0.00000545 Ry

     iteration # 25     ecut=    50.00 Ry     beta= 0.30
     Davidson diagonalization with overlap

---- Real-time Memory Report at c_bands before calling an iterative solver
           340 MiB given to the printing process from OS
             0 MiB allocation reported by mallinfo(arena+hblkhd)
        118217 MiB available memory on the node where the printing process lives
------------------
     ethr =  1.14E-09,  avg # of iterations =  6.3

     total cpu time spent up to now is      673.2 secs

     total energy              =   -4339.64265496 Ry
     estimated scf accuracy    <       0.00000059 Ry

     iteration # 26     ecut=    50.00 Ry     beta= 0.30
     Davidson diagonalization with overlap

---- Real-time Memory Report at c_bands before calling an iterative solver
           340 MiB given to the printing process from OS
             0 MiB allocation reported by mallinfo(arena+hblkhd)
        118522 MiB available memory on the node where the printing process lives
------------------
     ethr =  1.36E-10,  avg # of iterations =  6.2

     total cpu time spent up to now is      691.2 secs

     total energy              =   -4339.64265469 Ry
     estimated scf accuracy    <       0.00000057 Ry

     iteration # 27     ecut=    50.00 Ry     beta= 0.30
     Davidson diagonalization with overlap

---- Real-time Memory Report at c_bands before calling an iterative solver
           340 MiB given to the printing process from OS
             0 MiB allocation reported by mallinfo(arena+hblkhd)
        117750 MiB available memory on the node where the printing process lives
------------------
     ethr =  1.32E-10,  avg # of iterations =  8.2

     total cpu time spent up to now is      719.5 secs

     total energy              =   -4339.64265536 Ry
     estimated scf accuracy    <       0.00000062 Ry

     iteration # 28     ecut=    50.00 Ry     beta= 0.30
     Davidson diagonalization with overlap

---- Real-time Memory Report at c_bands before calling an iterative solver
           340 MiB given to the printing process from OS
             0 MiB allocation reported by mallinfo(arena+hblkhd)
        118557 MiB available memory on the node where the printing process lives
------------------
     ethr =  1.32E-10,  avg # of iterations =  3.5

     total cpu time spent up to now is      733.0 secs

     total energy              =   -4339.64265601 Ry
     estimated scf accuracy    <       0.00000116 Ry

     iteration # 29     ecut=    50.00 Ry     beta= 0.30
     Davidson diagonalization with overlap

---- Real-time Memory Report at c_bands before calling an iterative solver
           340 MiB given to the printing process from OS
             0 MiB allocation reported by mallinfo(arena+hblkhd)
        118077 MiB available memory on the node where the printing process lives
------------------
     ethr =  1.32E-10,  avg # of iterations =  8.5

     total cpu time spent up to now is      758.4 secs

     total energy              =   -4339.64265499 Ry
     estimated scf accuracy    <       0.00000486 Ry

     iteration # 30     ecut=    50.00 Ry     beta= 0.30
     Davidson diagonalization with overlap

---- Real-time Memory Report at c_bands before calling an iterative solver
           340 MiB given to the printing process from OS
             0 MiB allocation reported by mallinfo(arena+hblkhd)
        118591 MiB available memory on the node where the printing process lives
------------------
     ethr =  1.32E-10,  avg # of iterations =  6.0

     total cpu time spent up to now is      778.2 secs

     total energy              =   -4339.64265496 Ry
     estimated scf accuracy    <       0.00000144 Ry

     iteration # 31     ecut=    50.00 Ry     beta= 0.30
     Davidson diagonalization with overlap

---- Real-time Memory Report at c_bands before calling an iterative solver
           340 MiB given to the printing process from OS
             0 MiB allocation reported by mallinfo(arena+hblkhd)
        118538 MiB available memory on the node where the printing process lives
------------------
     ethr =  1.32E-10,  avg # of iterations =  4.8

     total cpu time spent up to now is      792.6 secs

     total energy              =   -4339.64265490 Ry
     estimated scf accuracy    <       0.00000072 Ry

     iteration # 32     ecut=    50.00 Ry     beta= 0.30
     Davidson diagonalization with overlap

---- Real-time Memory Report at c_bands before calling an iterative solver
           340 MiB given to the printing process from OS
             0 MiB allocation reported by mallinfo(arena+hblkhd)
        118400 MiB available memory on the node where the printing process lives
------------------
     ethr =  1.32E-10,  avg # of iterations =  3.2

     total cpu time spent up to now is      807.1 secs

     total energy              =   -4339.64265486 Ry
     estimated scf accuracy    <       0.00000027 Ry

     iteration # 33     ecut=    50.00 Ry     beta= 0.30
     Davidson diagonalization with overlap

---- Real-time Memory Report at c_bands before calling an iterative solver
           340 MiB given to the printing process from OS
             0 MiB allocation reported by mallinfo(arena+hblkhd)
        118305 MiB available memory on the node where the printing process lives
------------------
     ethr =  6.14E-11,  avg # of iterations =  7.5

     total cpu time spent up to now is      830.1 secs

     End of self-consistent calculation

          k = 0.0000 0.0000 0.0000 ( 23563 PWs)   bands (ev):

   -10.9986 -10.8353 -10.8353 -10.4953 -10.4953 -10.3494 -10.3494 -10.3494
   -10.3184 -10.2916 -10.2916 -10.2916 -10.2916 -10.2916 -10.2916 -10.1870
   -10.1870 -10.1870 -10.1870 -10.1870 -10.1870 -10.1409 -10.1409 -10.1409
     0.9825   0.9825   0.9825   0.9825   0.9825   0.9825   1.0470   1.0470
     1.0470   1.0470   1.0470   1.0470   1.1141   1.1141   1.1141   1.1614
     1.1614   1.2062   1.2062   1.3159   1.3159   1.3229   1.3229   1.3229
     1.3450   1.3450   1.3450   1.3450   1.3565   1.4366   1.4366   1.4366
     1.4366   1.4391   1.5014   1.5014   1.5609   1.5609   1.5609   1.6641
     1.6641   1.6641   1.6641   1.6641   1.6641   1.8687   1.8687   1.8687
     1.8687   1.8687   1.8687   1.8803   1.8803   1.8803   1.8803   1.8803
     1.8803   1.9178   1.9178   1.9178   1.9178   1.9178   1.9178   1.9413
     1.9413   1.9413   1.9538   1.9538   1.9538   2.0753   2.0753   2.0753
     2.4283   2.4283   2.4642   2.4642   2.4642   2.4918   2.4918   2.4918
     2.4918   2.5909   2.5909   2.5909   2.5918   2.5918   2.5918   2.5918
     2.6003   2.6003   2.6003   2.6003   2.6003   2.6003   2.6249   2.6249
     2.6268   2.6268   2.6268   2.6268   2.6268   2.6268   2.6330   2.6330
     2.6330   2.6330   2.6330   2.6330   2.6706   2.6706   2.6706   2.7318
     2.7318   2.7318   2.7318   2.7318   2.7318   2.7418   2.7418   2.7418
     2.8918   3.1456   3.1456   3.1456   3.1456   3.1456   3.1456   3.2047
     3.2047   3.2047   3.2753   3.2753   3.2753   3.2753   3.2753   3.2753
     3.4268   3.4268   3.4268   3.8752   3.8753   4.1405   4.1405   4.1405
     4.7138   4.7138   4.7138   5.0140   5.0140   5.0140   5.0140   5.0140
     5.0140   5.0926   5.0926   5.0926   5.0926   5.0926   5.0926   5.4565
     5.4565   5.6401   5.6401   5.6401   5.7658   5.7658   5.7658   5.7658
     5.7658   5.7658   5.7926   5.7926   5.7926   5.7926   5.7926   5.7926
     6.0829   6.0829   6.0829   6.1250   6.1250   6.3188   6.3188   6.3188
     6.3188   6.7002   6.7002   6.7002   6.7002   6.8048   6.8872   6.8872

     occupation numbers 
     1.0000   1.0000   1.0000   1.0000   1.0000   1.0000   1.0000   1.0000
     1.0000   1.0000   1.0000   1.0000   1.0000   1.0000   1.0000   1.0000
     1.0000   1.0000   1.0000   1.0000   1.0000   1.0000   1.0000   1.0000
     1.0000   1.0000   1.0000   1.0000   1.0000   1.0000   1.0000   1.0000
     1.0000   1.0000   1.0000   1.0000   1.0000   1.0000   1.0000   1.0000
     1.0000   1.0000   1.0000   1.0000   1.0000   1.0000   1.0000   1.0000
     1.0000   1.0000   1.0000   1.0000   1.0000   1.0000   1.0000   1.0000
     1.0000   1.0000   1.0000   1.0000   1.0000   1.0000   1.0000   1.0000
     1.0000   1.0000   1.0000   1.0000   1.0000   1.0000   1.0000   1.0000
     1.0000   1.0000   1.0000   1.0000   1.0000   1.0000   1.0000   1.0000
     1.0000   1.0000   1.0000   1.0000   1.0000   1.0000   1.0000   1.0000
     1.0000   1.0000   1.0000   1.0000   1.0000   1.0000   1.0000   1.0000
     1.0000   1.0000   1.0000   1.0000   1.0000   1.0000   1.0000   1.0000
     1.0000   1.0000   1.0000   1.0000   1.0000   1.0000   1.0000   1.0000
     1.0000   1.0000   1.0000   1.0000   1.0000   1.0000   1.0000   1.0000
     1.0000   1.0000   1.0000   1.0000   1.0000   1.0000   1.0000   1.0000
     1.0000   1.0000   1.0000   1.0000   1.0000   1.0000   1.0000   1.0000
     1.0000   1.0000   1.0000   1.0000   1.0000   1.0000   1.0000   1.0000
     1.0000   1.0000   1.0000   1.0000   1.0000   1.0000   1.0000   1.0000
     1.0000   1.0000   1.0000   1.0000   1.0000   1.0000   1.0000   1.0000
     1.0000   1.0000   1.0000   1.0000   1.0000   1.0000   1.0000   1.0000
     1.0000   1.0000   1.0000   1.0000   1.0000   1.0000   1.0000   1.0000
     1.0000   1.0000   1.0000   1.0000   1.0000   1.0000   1.0000   1.0000
     1.0000   1.0000   1.0000   1.0000   1.0000   1.0000   1.0000   1.0000
     1.0000   1.0000   1.0000   1.0000   1.0000   1.0000   1.0000   1.0000
     1.0000   1.0000   1.0000   1.0000   1.0000   1.0000   1.0000   1.0000
     1.0000   1.0000   1.0000   1.0000   1.0000   1.0000   1.0000   1.0000

          k = 0.0000 0.0000-0.2065 ( 23576 PWs)   bands (ev):

   -10.9553 -10.9553 -10.6676 -10.6676 -10.3663 -10.3662 -10.3336 -10.3336
   -10.3336 -10.3336 -10.3336 -10.3336 -10.2373 -10.2373 -10.2373 -10.2373
   -10.2373 -10.2373 -10.1528 -10.1528 -10.1528 -10.1528 -10.1528 -10.1528
     0.9526   0.9526   0.9526   0.9526   0.9526   0.9526   1.0697   1.0697
     1.0697   1.0697   1.0697   1.0697   1.1297   1.1297   1.2254   1.2254
     1.2254   1.2254   1.2254   1.2254   1.3101   1.3102   1.3168   1.3168
     1.3225   1.3225   1.3225   1.3225   1.3852   1.3852   1.3852   1.3852
     1.4826   1.4826   1.4826   1.4826   1.5871   1.5871   1.5871   1.5871
     1.5871   1.5871   1.7820   1.7820   1.7821   1.7821   1.7821   1.7821
     1.8586   1.8586   1.8586   1.8586   1.8586   1.8586   1.9132   1.9132
     1.9132   1.9133   1.9133   1.9133   1.9195   1.9195   1.9195   1.9195
     1.9195   1.9195   2.0308   2.0308   2.0308   2.0308   2.0308   2.0308
     2.4460   2.4460   2.4461   2.4461   2.5267   2.5267   2.5267   2.5267
     2.5267   2.5267   2.5469   2.5469   2.5469   2.5469   2.5930   2.5930
     2.5930   2.5931   2.5931   2.5931   2.6133   2.6133   2.6133   2.6133
     2.6133   2.6133   2.6172   2.6172   2.6172   2.6172   2.6574   2.6574
     2.6574   2.6574   2.6574   2.6574   2.6978   2.6978   2.6978   2.6978
     2.6978   2.6978   2.7411   2.7411   2.7411   2.7411   2.7411   2.7411
     3.1660   3.1660   3.1660   3.1660   3.1660   3.1660   3.1878   3.1878
     3.1878   3.1878   3.1878   3.1878   3.2007   3.2007   3.3761   3.3761
     3.3761   3.3761   3.3761   3.3761   4.4236   4.4236   4.4236   4.4236
     4.4236   4.4236   4.6600   4.6600   4.8199   4.8199   4.8199   4.8199
     4.8199   4.8199   5.4384   5.4384   5.4384   5.4384   5.4384   5.4384
     5.5538   5.5538   5.5538   5.5538   5.5538   5.5538   5.7266   5.7266
     5.7266   5.7266   5.7266   5.7266   5.9986   5.9986   5.9986   5.9986
     5.9986   5.9986   6.1771   6.1771   6.1771   6.1771   6.2429   6.2429
     6.5107   6.5107   6.5107   6.5107   6.8373   6.8373   6.8373   6.8373

     occupation numbers 
     1.0000   1.0000   1.0000   1.0000   1.0000   1.0000   1.0000   1.0000
     1.0000   1.0000   1.0000   1.0000   1.0000   1.0000   1.0000   1.0000
     1.0000   1.0000   1.0000   1.0000   1.0000   1.0000   1.0000   1.0000
     1.0000   1.0000   1.0000   1.0000   1.0000   1.0000   1.0000   1.0000
     1.0000   1.0000   1.0000   1.0000   1.0000   1.0000   1.0000   1.0000
     1.0000   1.0000   1.0000   1.0000   1.0000   1.0000   1.0000   1.0000
     1.0000   1.0000   1.0000   1.0000   1.0000   1.0000   1.0000   1.0000
     1.0000   1.0000   1.0000   1.0000   1.0000   1.0000   1.0000   1.0000
     1.0000   1.0000   1.0000   1.0000   1.0000   1.0000   1.0000   1.0000
     1.0000   1.0000   1.0000   1.0000   1.0000   1.0000   1.0000   1.0000
     1.0000   1.0000   1.0000   1.0000   1.0000   1.0000   1.0000   1.0000
     1.0000   1.0000   1.0000   1.0000   1.0000   1.0000   1.0000   1.0000
     1.0000   1.0000   1.0000   1.0000   1.0000   1.0000   1.0000   1.0000
     1.0000   1.0000   1.0000   1.0000   1.0000   1.0000   1.0000   1.0000
     1.0000   1.0000   1.0000   1.0000   1.0000   1.0000   1.0000   1.0000
     1.0000   1.0000   1.0000   1.0000   1.0000   1.0000   1.0000   1.0000
     1.0000   1.0000   1.0000   1.0000   1.0000   1.0000   1.0000   1.0000
     1.0000   1.0000   1.0000   1.0000   1.0000   1.0000   1.0000   1.0000
     1.0000   1.0000   1.0000   1.0000   1.0000   1.0000   1.0000   1.0000
     1.0000   1.0000   1.0000   1.0000   1.0000   1.0000   1.0000   1.0000
     1.0000   1.0000   1.0000   1.0000   1.0000   1.0000   1.0000   1.0000
     1.0000   1.0000   1.0000   1.0000   1.0000   1.0000   1.0000   1.0000
     1.0000   1.0000   1.0000   1.0000   1.0000   1.0000   1.0000   1.0000
     1.0000   1.0000   1.0000   1.0000   1.0000   1.0000   1.0000   1.0000
     1.0000   1.0000   1.0000   1.0000   1.0000   1.0000   1.0000   1.0000
     1.0000   1.0000   1.0000   1.0000   1.0000   1.0000   1.0000   1.0000
     1.0000   1.0000   1.0000   1.0000   1.0000   1.0000   1.0000   1.0000

          k = 0.0000 0.3849 0.0000 ( 23652 PWs)   bands (ev):

   -10.8595 -10.7129 -10.7129 -10.5471 -10.4473 -10.4473 -10.4122 -10.4122
   -10.3569 -10.3568 -10.2963 -10.2963 -10.2963 -10.2963 -10.2583 -10.2521
   -10.2521 -10.1860 -10.1860 -10.1860 -10.1860 -10.1576 -10.1369 -10.1369
     0.9558   0.9558   1.0419   1.0820   1.0820   1.0906   1.0906   1.1038
     1.1038   1.1038   1.1038   1.1442   1.1442   1.1787   1.1967   1.1967
     1.1967   1.1967   1.2098   1.2098   1.3780   1.3939   1.4175   1.4331
     1.4331   1.4425   1.4425   1.4529   1.4529   1.4978   1.5195   1.5220
     1.5220   1.5437   1.5437   1.5839   1.5839   1.5839   1.5839   1.5839
     1.5839   1.5967   1.5967   1.6182   1.6646   1.6673   1.6673   1.7197
     1.7338   1.7338   1.7338   1.7338   1.7583   1.7583   1.7846   1.7846
     1.7926   1.7926   1.8904   1.8904   1.8904   1.8904   1.9005   1.9133
     1.9133   1.9133   1.9133   2.0312   2.0460   2.0460   2.1149   2.1149
     2.3484   2.3719   2.4055   2.4055   2.4270   2.4696   2.4696   2.4731
     2.4731   2.4787   2.4787   2.4885   2.4885   2.4958   2.4958   2.4958
     2.4958   2.4988   2.5339   2.5339   2.5677   2.5677   2.5677   2.5677
     2.5935   2.5935   2.6097   2.6097   2.6172   2.6172   2.6359   2.6552
     2.6820   2.6820   2.6836   2.6836   2.6913   2.6913   2.6913   2.6913
     2.7480   2.8117   2.8117   2.8117   2.8117   2.8131   2.8614   2.8732
     2.8732   3.0747   3.0747   3.0837   3.2568   3.2568   3.2568   3.2568
     3.5916   3.5916   3.5916   3.5916   3.6415   3.6415   3.6813   3.6813
     3.7941   3.9342   3.9342   4.0473   4.0473   4.1030   4.1030   4.4220
     4.4220   4.5349   4.5349   4.5349   4.5349   4.6506   4.9083   4.9083
     5.0816   5.0816   5.0816   5.0816   5.0971   5.1228   5.1228   5.2256
     5.3812   5.3812   5.3812   5.3812   5.4184   5.4184   5.5973   5.5973
     5.6134   5.6134   5.7793   5.7884   5.7974   5.7974   5.8446   5.8446
     5.8446   5.8446   5.9792   5.9792   6.0153   6.0153   6.0233   6.0233
     6.0930   6.2836   6.2836   6.3015   6.4799   6.4799   6.6255   6.7029

     occupation numbers 
     1.0000   1.0000   1.0000   1.0000   1.0000   1.0000   1.0000   1.0000
     1.0000   1.0000   1.0000   1.0000   1.0000   1.0000   1.0000   1.0000
     1.0000   1.0000   1.0000   1.0000   1.0000   1.0000   1.0000   1.0000
     1.0000   1.0000   1.0000   1.0000   1.0000   1.0000   1.0000   1.0000
     1.0000   1.0000   1.0000   1.0000   1.0000   1.0000   1.0000   1.0000
     1.0000   1.0000   1.0000   1.0000   1.0000   1.0000   1.0000   1.0000
     1.0000   1.0000   1.0000   1.0000   1.0000   1.0000   1.0000   1.0000
     1.0000   1.0000   1.0000   1.0000   1.0000   1.0000   1.0000   1.0000
     1.0000   1.0000   1.0000   1.0000   1.0000   1.0000   1.0000   1.0000
     1.0000   1.0000   1.0000   1.0000   1.0000   1.0000   1.0000   1.0000
     1.0000   1.0000   1.0000   1.0000   1.0000   1.0000   1.0000   1.0000
     1.0000   1.0000   1.0000   1.0000   1.0000   1.0000   1.0000   1.0000
     1.0000   1.0000   1.0000   1.0000   1.0000   1.0000   1.0000   1.0000
     1.0000   1.0000   1.0000   1.0000   1.0000   1.0000   1.0000   1.0000
     1.0000   1.0000   1.0000   1.0000   1.0000   1.0000   1.0000   1.0000
     1.0000   1.0000   1.0000   1.0000   1.0000   1.0000   1.0000   1.0000
     1.0000   1.0000   1.0000   1.0000   1.0000   1.0000   1.0000   1.0000
     1.0000   1.0000   1.0000   1.0000   1.0000   1.0000   1.0000   1.0000
     1.0000   1.0000   1.0000   1.0000   1.0000   1.0000   1.0000   1.0000
     1.0000   1.0000   1.0000   1.0000   1.0000   1.0000   1.0000   1.0000
     1.0000   1.0000   1.0000   1.0000   1.0000   1.0000   1.0000   1.0000
     1.0000   1.0000   1.0000   1.0000   1.0000   1.0000   1.0000   1.0000
     1.0000   1.0000   1.0000   1.0000   1.0000   1.0000   1.0000   1.0000
     1.0000   1.0000   1.0000   1.0000   1.0000   1.0000   1.0000   1.0000
     1.0000   1.0000   1.0000   1.0000   1.0000   1.0000   1.0000   1.0000
     1.0000   1.0000   1.0000   1.0000   1.0000   1.0000   1.0000   1.0000
     1.0000   1.0000   1.0000   1.0000   1.0000   1.0000   1.0000   1.0000

          k = 0.0000 0.3849-0.2065 ( 23632 PWs)   bands (ev):

   -10.8205 -10.8205 -10.5638 -10.5638 -10.5203 -10.5202 -10.3488 -10.3488
   -10.3403 -10.3403 -10.3403 -10.3403 -10.2997 -10.2997 -10.2393 -10.2393
   -10.2393 -10.2393 -10.1827 -10.1827 -10.1497 -10.1496 -10.1496 -10.1496
     0.9620   0.9620   1.0113   1.0113   1.0549   1.0549   1.0856   1.0856
     1.0856   1.0856   1.1496   1.1496   1.1780   1.1780   1.1780   1.1780
     1.2878   1.2878   1.3367   1.3367   1.3762   1.3762   1.3762   1.3762
     1.4034   1.4035   1.4548   1.4548   1.4697   1.4697   1.4827   1.4827
     1.5395   1.5395   1.5636   1.5636   1.5636   1.5636   1.5904   1.5904
     1.5968   1.5969   1.6623   1.6623   1.6623   1.6623   1.6841   1.6841
     1.6874   1.6874   1.6945   1.6945   1.7730   1.7730   1.7730   1.7730
     1.8597   1.8597   1.8597   1.8597   1.8679   1.8679   1.8969   1.8969
     1.9824   1.9824   1.9824   1.9824   2.0290   2.0290   2.0290   2.0290
     2.3853   2.3853   2.4014   2.4014   2.4172   2.4172   2.4172   2.4172
     2.4441   2.4441   2.5083   2.5084   2.5393   2.5393   2.5393   2.5393
     2.5441   2.5441   2.5486   2.5486   2.5532   2.5532   2.5532   2.5532
     2.5702   2.5702   2.5851   2.5851   2.6256   2.6256   2.6425   2.6425
     2.6725   2.6725   2.6804   2.6804   2.6804   2.6804   2.7390   2.7390
     2.7390   2.7390   2.7607   2.7607   2.8697   2.8697   2.8697   2.8697
     3.1154   3.1154   3.1154   3.1154   3.2560   3.2560   3.3424   3.3424
     3.4275   3.4275   3.4275   3.4275   3.6971   3.6971   3.6971   3.6971
     3.8757   3.8757   3.9351   3.9351   4.2091   4.2091   4.2091   4.2091
     4.6007   4.6007   4.6167   4.6167   4.6167   4.6167   4.6228   4.6229
     4.9298   4.9298   4.9298   4.9298   5.1855   5.1855   5.2750   5.2750
     5.5302   5.5302   5.5971   5.5971   5.5971   5.5971   5.6314   5.6314
     5.6422   5.6422   5.6422   5.6422   5.7223   5.7223   5.7985   5.7985
     5.7985   5.7985   5.8519   5.8519   5.9119   5.9119   6.1084   6.1084
     6.2253   6.2254   6.2536   6.2536   6.5471   6.5471   6.6435   6.6435

     occupation numbers 
     1.0000   1.0000   1.0000   1.0000   1.0000   1.0000   1.0000   1.0000
     1.0000   1.0000   1.0000   1.0000   1.0000   1.0000   1.0000   1.0000
     1.0000   1.0000   1.0000   1.0000   1.0000   1.0000   1.0000   1.0000
     1.0000   1.0000   1.0000   1.0000   1.0000   1.0000   1.0000   1.0000
     1.0000   1.0000   1.0000   1.0000   1.0000   1.0000   1.0000   1.0000
     1.0000   1.0000   1.0000   1.0000   1.0000   1.0000   1.0000   1.0000
     1.0000   1.0000   1.0000   1.0000   1.0000   1.0000   1.0000   1.0000
     1.0000   1.0000   1.0000   1.0000   1.0000   1.0000   1.0000   1.0000
     1.0000   1.0000   1.0000   1.0000   1.0000   1.0000   1.0000   1.0000
     1.0000   1.0000   1.0000   1.0000   1.0000   1.0000   1.0000   1.0000
     1.0000   1.0000   1.0000   1.0000   1.0000   1.0000   1.0000   1.0000
     1.0000   1.0000   1.0000   1.0000   1.0000   1.0000   1.0000   1.0000
     1.0000   1.0000   1.0000   1.0000   1.0000   1.0000   1.0000   1.0000
     1.0000   1.0000   1.0000   1.0000   1.0000   1.0000   1.0000   1.0000
     1.0000   1.0000   1.0000   1.0000   1.0000   1.0000   1.0000   1.0000
     1.0000   1.0000   1.0000   1.0000   1.0000   1.0000   1.0000   1.0000
     1.0000   1.0000   1.0000   1.0000   1.0000   1.0000   1.0000   1.0000
     1.0000   1.0000   1.0000   1.0000   1.0000   1.0000   1.0000   1.0000
     1.0000   1.0000   1.0000   1.0000   1.0000   1.0000   1.0000   1.0000
     1.0000   1.0000   1.0000   1.0000   1.0000   1.0000   1.0000   1.0000
     1.0000   1.0000   1.0000   1.0000   1.0000   1.0000   1.0000   1.0000
     1.0000   1.0000   1.0000   1.0000   1.0000   1.0000   1.0000   1.0000
     1.0000   1.0000   1.0000   1.0000   1.0000   1.0000   1.0000   1.0000
     1.0000   1.0000   1.0000   1.0000   1.0000   1.0000   1.0000   1.0000
     1.0000   1.0000   1.0000   1.0000   1.0000   1.0000   1.0000   1.0000
     1.0000   1.0000   1.0000   1.0000   1.0000   1.0000   1.0000   1.0000
     1.0000   1.0000   1.0000   1.0000   1.0000   1.0000   1.0000   1.0000

          k = 0.3333 0.5774 0.0000 ( 23616 PWs)   bands (ev):

   -10.6324 -10.6324 -10.6323 -10.5180 -10.5180 -10.5180 -10.5180 -10.5180
   -10.5180 -10.2906 -10.2906 -10.2906 -10.2906 -10.2906 -10.2906 -10.1944
   -10.1944 -10.1874 -10.1874 -10.1874 -10.1874 -10.1783 -10.1783 -10.1783
     1.0367   1.0367   1.0367   1.0367   1.0367   1.0367   1.1267   1.1267
     1.1267   1.1267   1.1267   1.1267   1.1448   1.1448   1.1448   1.2800
     1.3347   1.3347   1.3347   1.3917   1.3917   1.4031   1.4031   1.4031
     1.4031   1.5169   1.5169   1.5169   1.5169   1.5169   1.5169   1.5272
     1.5272   1.5272   1.5381   1.5381   1.5381   1.5381   1.5381   1.5381
     1.5845   1.5845   1.5845   1.6688   1.6688   1.6853   1.6853   1.6853
     1.6853   1.6853   1.6853   1.7170   1.7170   1.7417   1.7417   1.7417
     1.7417   1.7417   1.7417   1.8373   1.8373   1.8373   1.9688   1.9688
     1.9688   2.0258   2.0771   2.0771   2.0771   2.0771   2.2690   2.2690
     2.3226   2.3226   2.3226   2.3628   2.4065   2.4065   2.4473   2.4473
     2.4473   2.4608   2.4608   2.4609   2.4609   2.4609   2.4609   2.4609
     2.4609   2.4858   2.5184   2.5184   2.5184   2.5184   2.5184   2.5184
     2.5316   2.5316   2.6056   2.6056   2.6056   2.6056   2.6056   2.6056
     2.6485   2.6485   2.6485   2.6725   2.6725   2.6725   2.6725   2.6725
     2.6725   2.8199   2.8199   2.8199   2.8530   2.8530   2.8530   2.8530
     3.0203   3.0203   3.0203   3.2410   3.2872   3.2872   3.2872   3.2872
     3.4119   3.4119   3.8035   3.8035   3.8659   3.8659   3.8659   3.8659
     3.8659   3.8659   4.4226   4.4226   4.4226   4.4657   4.4657   4.4657
     4.4657   4.4657   4.4657   4.6353   4.6353   4.6353   4.7451   4.7452
     4.9824   4.9824   4.9824   4.9824   4.9824   4.9824   5.0282   5.0282
     5.2181   5.2289   5.2289   5.2289   5.3663   5.3663   5.3663   5.3663
     5.3663   5.3663   5.5233   5.5233   5.5233   5.5233   5.9569   5.9569
     5.9569   5.9569   5.9569   5.9569   6.0903   6.0903   6.0903   6.0903
     6.0903   6.0903   6.2535   6.2535   6.2535   6.2862   6.2862   6.2862

     occupation numbers 
     1.0000   1.0000   1.0000   1.0000   1.0000   1.0000   1.0000   1.0000
     1.0000   1.0000   1.0000   1.0000   1.0000   1.0000   1.0000   1.0000
     1.0000   1.0000   1.0000   1.0000   1.0000   1.0000   1.0000   1.0000
     1.0000   1.0000   1.0000   1.0000   1.0000   1.0000   1.0000   1.0000
     1.0000   1.0000   1.0000   1.0000   1.0000   1.0000   1.0000   1.0000
     1.0000   1.0000   1.0000   1.0000   1.0000   1.0000   1.0000   1.0000
     1.0000   1.0000   1.0000   1.0000   1.0000   1.0000   1.0000   1.0000
     1.0000   1.0000   1.0000   1.0000   1.0000   1.0000   1.0000   1.0000
     1.0000   1.0000   1.0000   1.0000   1.0000   1.0000   1.0000   1.0000
     1.0000   1.0000   1.0000   1.0000   1.0000   1.0000   1.0000   1.0000
     1.0000   1.0000   1.0000   1.0000   1.0000   1.0000   1.0000   1.0000
     1.0000   1.0000   1.0000   1.0000   1.0000   1.0000   1.0000   1.0000
     1.0000   1.0000   1.0000   1.0000   1.0000   1.0000   1.0000   1.0000
     1.0000   1.0000   1.0000   1.0000   1.0000   1.0000   1.0000   1.0000
     1.0000   1.0000   1.0000   1.0000   1.0000   1.0000   1.0000   1.0000
     1.0000   1.0000   1.0000   1.0000   1.0000   1.0000   1.0000   1.0000
     1.0000   1.0000   1.0000   1.0000   1.0000   1.0000   1.0000   1.0000
     1.0000   1.0000   1.0000   1.0000   1.0000   1.0000   1.0000   1.0000
     1.0000   1.0000   1.0000   1.0000   1.0000   1.0000   1.0000   1.0000
     1.0000   1.0000   1.0000   1.0000   1.0000   1.0000   1.0000   1.0000
     1.0000   1.0000   1.0000   1.0000   1.0000   1.0000   1.0000   1.0000
     1.0000   1.0000   1.0000   1.0000   1.0000   1.0000   1.0000   1.0000
     1.0000   1.0000   1.0000   1.0000   1.0000   1.0000   1.0000   1.0000
     1.0000   1.0000   1.0000   1.0000   1.0000   1.0000   1.0000   1.0000
     1.0000   1.0000   1.0000   1.0000   1.0000   1.0000   1.0000   1.0000
     1.0000   1.0000   1.0000   1.0000   1.0000   1.0000   1.0000   1.0000
     1.0000   1.0000   1.0000   1.0000   1.0000   1.0000   1.0000   1.0000

          k = 0.3333 0.5774-0.2065 ( 23610 PWs)   bands (ev):

   -10.6017 -10.6017 -10.6017 -10.6017 -10.6017 -10.6017 -10.4040 -10.4040
   -10.4040 -10.4040 -10.4040 -10.4040 -10.2083 -10.2083 -10.2083 -10.2083
   -10.2083 -10.2083 -10.1921 -10.1921 -10.1921 -10.1921 -10.1850 -10.1850
     1.0208   1.0208   1.0208   1.0208   1.0208   1.0208   1.1085   1.1085
     1.1085   1.1086   1.1086   1.1086   1.2850   1.2850   1.2850   1.2850
     1.2850   1.2850   1.3081   1.3081   1.3211   1.3211   1.5188   1.5188
     1.5188   1.5188   1.5188   1.5188   1.5305   1.5305   1.5328   1.5328
     1.5328   1.5328   1.5328   1.5328   1.5573   1.5573   1.5573   1.5573
     1.5573   1.5573   1.5787   1.5787   1.5787   1.5787   1.6781   1.6781
     1.6781   1.6781   1.6781   1.6781   1.8092   1.8092   1.8092   1.8092
     1.8092   1.8092   1.8094   1.8094   1.8094   1.8094   1.8094   1.8094
     1.9186   1.9187   2.0556   2.0556   2.1585   2.1585   2.1585   2.1585
     2.3643   2.3643   2.3643   2.3643   2.3643   2.3643   2.3794   2.3794
     2.4346   2.4347   2.4790   2.4790   2.4790   2.4790   2.4790   2.4790
     2.4792   2.4792   2.5520   2.5520   2.5520   2.5520   2.5520   2.5520
     2.5835   2.5835   2.5835   2.5835   2.5835   2.5835   2.6364   2.6364
     2.6364   2.6364   2.6364   2.6364   2.6812   2.6812   2.6812   2.6812
     2.7501   2.7501   2.7501   2.7501   2.7501   2.7501   2.9255   2.9255
     3.2429   3.2429   3.3685   3.3685   3.3685   3.3685   3.3752   3.3752
     3.3752   3.3752   3.3752   3.3752   3.4090   3.4090   4.2134   4.2134
     4.2134   4.2134   4.2134   4.2134   4.2826   4.2826   4.5550   4.5550
     4.5550   4.5550   4.5550   4.5550   4.6100   4.6100   4.6100   4.6100
     4.6100   4.6100   5.0892   5.0892   5.1981   5.1981   5.1981   5.1981
     5.2327   5.2327   5.2327   5.2327   5.2327   5.2327   5.5300   5.5300
     5.5300   5.5300   5.5300   5.5300   5.6817   5.6817   5.7235   5.7235
     5.7235   5.7235   5.7235   5.7235   6.1731   6.1731   6.1731   6.1731
     6.1731   6.1731   6.2737   6.2737   6.2737   6.2738   6.2738   6.2738

     occupation numbers 
     1.0000   1.0000   1.0000   1.0000   1.0000   1.0000   1.0000   1.0000
     1.0000   1.0000   1.0000   1.0000   1.0000   1.0000   1.0000   1.0000
     1.0000   1.0000   1.0000   1.0000   1.0000   1.0000   1.0000   1.0000
     1.0000   1.0000   1.0000   1.0000   1.0000   1.0000   1.0000   1.0000
     1.0000   1.0000   1.0000   1.0000   1.0000   1.0000   1.0000   1.0000
     1.0000   1.0000   1.0000   1.0000   1.0000   1.0000   1.0000   1.0000
     1.0000   1.0000   1.0000   1.0000   1.0000   1.0000   1.0000   1.0000
     1.0000   1.0000   1.0000   1.0000   1.0000   1.0000   1.0000   1.0000
     1.0000   1.0000   1.0000   1.0000   1.0000   1.0000   1.0000   1.0000
     1.0000   1.0000   1.0000   1.0000   1.0000   1.0000   1.0000   1.0000
     1.0000   1.0000   1.0000   1.0000   1.0000   1.0000   1.0000   1.0000
     1.0000   1.0000   1.0000   1.0000   1.0000   1.0000   1.0000   1.0000
     1.0000   1.0000   1.0000   1.0000   1.0000   1.0000   1.0000   1.0000
     1.0000   1.0000   1.0000   1.0000   1.0000   1.0000   1.0000   1.0000
     1.0000   1.0000   1.0000   1.0000   1.0000   1.0000   1.0000   1.0000
     1.0000   1.0000   1.0000   1.0000   1.0000   1.0000   1.0000   1.0000
     1.0000   1.0000   1.0000   1.0000   1.0000   1.0000   1.0000   1.0000
     1.0000   1.0000   1.0000   1.0000   1.0000   1.0000   1.0000   1.0000
     1.0000   1.0000   1.0000   1.0000   1.0000   1.0000   1.0000   1.0000
     1.0000   1.0000   1.0000   1.0000   1.0000   1.0000   1.0000   1.0000
     1.0000   1.0000   1.0000   1.0000   1.0000   1.0000   1.0000   1.0000
     1.0000   1.0000   1.0000   1.0000   1.0000   1.0000   1.0000   1.0000
     1.0000   1.0000   1.0000   1.0000   1.0000   1.0000   1.0000   1.0000
     1.0000   1.0000   1.0000   1.0000   1.0000   1.0000   1.0000   1.0000
     1.0000   1.0000   1.0000   1.0000   1.0000   1.0000   1.0000   1.0000
     1.0000   1.0000   1.0000   1.0000   1.0000   1.0000   1.0000   1.0000
     1.0000   1.0000   1.0000   1.0000   1.0000   1.0000   1.0000   1.0000

     highest occupied level (ev):     6.8872

!    total energy              =   -4339.64265498 Ry
     estimated scf accuracy    <          6.3E-09 Ry

     The total energy is the sum of the following terms:
     one-electron contribution =   -1854.30201917 Ry
     hartree contribution      =    1419.46926009 Ry
     xc contribution           =   -1314.55311206 Ry
     ewald contribution        =   -2590.25678384 Ry

     convergence has been achieved in  33 iterations

     Forces acting on atoms (cartesian axes, Ry/au):

     atom    1 type  1   force =    -0.00000147   -0.00000085    0.00006092
     atom    2 type  1   force =     0.00000000   -0.00000137    0.00005741
     atom    3 type  2   force =    -0.00000053   -0.00000031   -0.00006258
     atom    4 type  2   force =     0.00000000   -0.00000053   -0.00006026
     atom    5 type  1   force =    -0.00000317   -0.00000183    0.00005993
     atom    6 type  1   force =     0.00000000   -0.00000334    0.00005643
     atom    7 type  2   force =    -0.00000098   -0.00000056   -0.00005874
     atom    8 type  2   force =     0.00000000   -0.00000128   -0.00006108
     atom    9 type  1   force =    -0.00000210   -0.00000121    0.00006186
     atom   10 type  1   force =    -0.00000000   -0.00000369    0.00006993
     atom   11 type  2   force =    -0.00000040   -0.00000023   -0.00006270
     atom   12 type  2   force =     0.00000000   -0.00000068   -0.00006065
     atom   13 type  1   force =     0.00000000   -0.00000000    0.00006064
     atom   14 type  1   force =    -0.00000119    0.00000069    0.00005741
     atom   15 type  2   force =     0.00000000   -0.00000000   -0.00006270
     atom   16 type  2   force =    -0.00000046    0.00000026   -0.00006026
     atom   17 type  1   force =     0.00000000   -0.00000000    0.00005716
     atom   18 type  1   force =    -0.00000289    0.00000167    0.00005643
     atom   19 type  2   force =     0.00000000    0.00000000   -0.00005940
     atom   20 type  2   force =    -0.00000111    0.00000064   -0.00006108
     atom   21 type  1   force =     0.00000000   -0.00000000    0.00006237
     atom   22 type  1   force =    -0.00000320    0.00000185    0.00006993
     atom   23 type  2   force =     0.00000000   -0.00000000   -0.00006305
     atom   24 type  2   force =    -0.00000059    0.00000034   -0.00006065
     atom   25 type  1   force =     0.00000147   -0.00000085    0.00006092
     atom   26 type  1   force =     0.00000000    0.00000000    0.00005670
     atom   27 type  2   force =     0.00000053   -0.00000031   -0.00006258
     atom   28 type  2   force =     0.00000000    0.00000000   -0.00006122
     atom   29 type  1   force =     0.00000317   -0.00000183    0.00005993
     atom   30 type  1   force =     0.00000000    0.00000000    0.00005855
     atom   31 type  2   force =     0.00000098   -0.00000056   -0.00005874
     atom   32 type  2   force =     0.00000000   -0.00000000   -0.00006152
     atom   33 type  1   force =     0.00000210   -0.00000121    0.00006186
     atom   34 type  1   force =     0.00000000    0.00000000    0.00007092
     atom   35 type  2   force =     0.00000040   -0.00000023   -0.00006270
     atom   36 type  2   force =     0.00000000    0.00000000   -0.00005989
     atom   37 type  1   force =     0.00000000    0.00000170    0.00006092
     atom   38 type  1   force =     0.00000119    0.00000069    0.00005741
     atom   39 type  2   force =     0.00000000    0.00000062   -0.00006258
     atom   40 type  2   force =     0.00000046    0.00000026   -0.00006026
     atom   41 type  1   force =     0.00000000    0.00000366    0.00005993
     atom   42 type  1   force =     0.00000289    0.00000167    0.00005643
     atom   43 type  2   force =    -0.00000000    0.00000113   -0.00005874
     atom   44 type  2   force =     0.00000111    0.00000064   -0.00006108
     atom   45 type  1   force =     0.00000000    0.00000243    0.00006186
     atom   46 type  1   force =     0.00000320    0.00000185    0.00006993
     atom   47 type  2   force =    -0.00000000    0.00000047   -0.00006270
     atom   48 type  2   force =     0.00000059    0.00000034   -0.00006065
     The non-local contrib.  to forces
     atom    1 type  1   force =    -0.00000103   -0.00000059   -0.00483439
     atom    2 type  1   force =     0.00000000   -0.00000066   -0.00483538
     atom    3 type  2   force =     0.00000074    0.00000043    0.00575301
     atom    4 type  2   force =     0.00000000   -0.00000033    0.00575562
     atom    5 type  1   force =    -0.00000079   -0.00000046   -0.00483422
     atom    6 type  1   force =     0.00000000   -0.00000131   -0.00483427
     atom    7 type  2   force =    -0.00000056   -0.00000032    0.00575427
     atom    8 type  2   force =     0.00000000   -0.00000155    0.00575423
     atom    9 type  1   force =    -0.00000049   -0.00000028   -0.00483585
     atom   10 type  1   force =     0.00000000   -0.00000103   -0.00483078
     atom   11 type  2   force =    -0.00000035   -0.00000020    0.00575511
     atom   12 type  2   force =    -0.00000000   -0.00000027    0.00575505
     atom   13 type  1   force =     0.00000000   -0.00000000   -0.00483425
     atom   14 type  1   force =    -0.00000057    0.00000033   -0.00483538
     atom   15 type  2   force =     0.00000000   -0.00000000    0.00575513
     atom   16 type  2   force =    -0.00000029    0.00000017    0.00575562
     atom   17 type  1   force =     0.00000000   -0.00000000   -0.00483508
     atom   18 type  1   force =    -0.00000113    0.00000065   -0.00483427
     atom   19 type  2   force =     0.00000000   -0.00000000    0.00575529
     atom   20 type  2   force =    -0.00000134    0.00000078    0.00575423
     atom   21 type  1   force =     0.00000000   -0.00000000   -0.00483533
     atom   22 type  1   force =    -0.00000089    0.00000052   -0.00483078
     atom   23 type  2   force =     0.00000000    0.00000000    0.00575581
     atom   24 type  2   force =    -0.00000024    0.00000014    0.00575505
     atom   25 type  1   force =     0.00000103   -0.00000059   -0.00483439
     atom   26 type  1   force =     0.00000000   -0.00000000   -0.00483664
     atom   27 type  2   force =    -0.00000074    0.00000043    0.00575301
     atom   28 type  2   force =     0.00000000    0.00000000    0.00575495
     atom   29 type  1   force =     0.00000079   -0.00000046   -0.00483422
     atom   30 type  1   force =     0.00000000    0.00000000   -0.00483200
     atom   31 type  2   force =     0.00000056   -0.00000032    0.00575427
     atom   32 type  2   force =     0.00000000   -0.00000000    0.00575286
     atom   33 type  1   force =     0.00000049   -0.00000028   -0.00483585
     atom   34 type  1   force =     0.00000000    0.00000000   -0.00482879
     atom   35 type  2   force =     0.00000035   -0.00000020    0.00575511
     atom   36 type  2   force =     0.00000000   -0.00000000    0.00575669
     atom   37 type  1   force =    -0.00000000    0.00000119   -0.00483439
     atom   38 type  1   force =     0.00000057    0.00000033   -0.00483538
     atom   39 type  2   force =     0.00000000   -0.00000085    0.00575301
     atom   40 type  2   force =     0.00000029    0.00000017    0.00575562
     atom   41 type  1   force =     0.00000000    0.00000092   -0.00483422
     atom   42 type  1   force =     0.00000113    0.00000065   -0.00483427
     atom   43 type  2   force =     0.00000000    0.00000064    0.00575427
     atom   44 type  2   force =     0.00000134    0.00000078    0.00575423
     atom   45 type  1   force =     0.00000000    0.00000057   -0.00483585
     atom   46 type  1   force =     0.00000089    0.00000052   -0.00483078
     atom   47 type  2   force =     0.00000000    0.00000040    0.00575511
     atom   48 type  2   force =     0.00000024    0.00000014    0.00575505
     The ionic contribution  to forces
     atom    1 type  1   force =    -0.00000000    0.00000001    0.06271746
     atom    2 type  1   force =     0.00000000    0.00000001    0.06271750
     atom    3 type  2   force =    -0.00000000    0.00000001   -0.06271747
     atom    4 type  2   force =     0.00000000    0.00000000   -0.06271748
     atom    5 type  1   force =    -0.00000000    0.00000001    0.06271750
     atom    6 type  1   force =     0.00000000    0.00000001    0.06271746
     atom    7 type  2   force =    -0.00000000    0.00000001   -0.06271748
     atom    8 type  2   force =     0.00000000    0.00000000   -0.06271746
     atom    9 type  1   force =    -0.00000000    0.00000001    0.06271746
     atom   10 type  1   force =     0.00000000    0.00000001    0.06271746
     atom   11 type  2   force =    -0.00000000    0.00000001   -0.06271746
     atom   12 type  2   force =     0.00000000    0.00000000   -0.06271747
     atom   13 type  1   force =     0.00000000   -0.00000000    0.06271746
     atom   14 type  1   force =    -0.00000000   -0.00000002    0.06271750
     atom   15 type  2   force =     0.00000000   -0.00000000   -0.06271747
     atom   16 type  2   force =    -0.00000000   -0.00000001   -0.06271748
     atom   17 type  1   force =     0.00000000   -0.00000000    0.06271749
     atom   18 type  1   force =    -0.00000000   -0.00000002    0.06271746
     atom   19 type  2   force =     0.00000000   -0.00000000   -0.06271748
     atom   20 type  2   force =    -0.00000000   -0.00000001   -0.06271746
     atom   21 type  1   force =     0.00000000   -0.00000000    0.06271745
     atom   22 type  1   force =    -0.00000000   -0.00000002    0.06271746
     atom   23 type  2   force =     0.00000000   -0.00000000   -0.06271746
     atom   24 type  2   force =    -0.00000000   -0.00000001   -0.06271747
     atom   25 type  1   force =    -0.00000000    0.00000001    0.06271746
     atom   26 type  1   force =     0.00000000    0.00000001    0.06271750
     atom   27 type  2   force =    -0.00000000    0.00000001   -0.06271747
     atom   28 type  2   force =     0.00000000    0.00000000   -0.06271748
     atom   29 type  1   force =    -0.00000000    0.00000001    0.06271750
     atom   30 type  1   force =     0.00000000    0.00000001    0.06271746
     atom   31 type  2   force =    -0.00000000    0.00000001   -0.06271748
     atom   32 type  2   force =     0.00000000    0.00000000   -0.06271746
     atom   33 type  1   force =    -0.00000000    0.00000001    0.06271746
     atom   34 type  1   force =     0.00000000    0.00000001    0.06271746
     atom   35 type  2   force =    -0.00000000    0.00000001   -0.06271746
     atom   36 type  2   force =     0.00000000    0.00000000   -0.06271747
     atom   37 type  1   force =     0.00000000   -0.00000000    0.06271746
     atom   38 type  1   force =    -0.00000000   -0.00000002    0.06271750
     atom   39 type  2   force =     0.00000000   -0.00000000   -0.06271747
     atom   40 type  2   force =    -0.00000000   -0.00000001   -0.06271748
     atom   41 type  1   force =     0.00000000   -0.00000000    0.06271749
     atom   42 type  1   force =    -0.00000000   -0.00000002    0.06271746
     atom   43 type  2   force =     0.00000000   -0.00000000   -0.06271748
     atom   44 type  2   force =    -0.00000000   -0.00000001   -0.06271746
     atom   45 type  1   force =     0.00000000   -0.00000000    0.06271745
     atom   46 type  1   force =    -0.00000000   -0.00000002    0.06271746
     atom   47 type  2   force =     0.00000000   -0.00000000   -0.06271746
     atom   48 type  2   force =    -0.00000000   -0.00000001   -0.06271747
     The local contribution  to forces
     atom    1 type  1   force =     0.00000228    0.00000141   -0.05828656
     atom    2 type  1   force =     0.00000009    0.00000141   -0.05828239
     atom    3 type  2   force =     0.00000058    0.00000036    0.05696776
     atom    4 type  2   force =     0.00000002    0.00000098    0.05696684
     atom    5 type  1   force =     0.00000323    0.00000196   -0.05828705
     atom    6 type  1   force =     0.00000009    0.00000293   -0.05828449
     atom    7 type  2   force =     0.00000208    0.00000123    0.05695993
     atom    8 type  2   force =     0.00000002    0.00000252    0.05696812
     atom    9 type  1   force =     0.00000234    0.00000145   -0.05828545
     atom   10 type  1   force =     0.00000009    0.00000366   -0.05829810
     atom   11 type  2   force =     0.00000217    0.00000128    0.05696688
     atom   12 type  2   force =     0.00000002   -0.00000071    0.05696498
     atom   13 type  1   force =     0.00000000    0.00000010   -0.05828688
     atom   14 type  1   force =     0.00000118   -0.00000078   -0.05828239
     atom   15 type  2   force =     0.00000000    0.00000003    0.05696566
     atom   16 type  2   force =     0.00000084   -0.00000051    0.05696684
     atom   17 type  1   force =     0.00000000    0.00000010   -0.05828362
     atom   18 type  1   force =     0.00000249   -0.00000154   -0.05828449
     atom   19 type  2   force =     0.00000000    0.00000003    0.05695772
     atom   20 type  2   force =     0.00000217   -0.00000128    0.05696812
     atom   21 type  1   force =     0.00000000    0.00000010   -0.05828581
     atom   22 type  1   force =     0.00000312   -0.00000190   -0.05829810
     atom   23 type  2   force =     0.00000000    0.00000003    0.05696795
     atom   24 type  2   force =    -0.00000062    0.00000033    0.05696498
     atom   25 type  1   force =    -0.00000228    0.00000141   -0.05828656
     atom   26 type  1   force =     0.00000009    0.00000005   -0.05828019
     atom   27 type  2   force =    -0.00000058    0.00000036    0.05696776
     atom   28 type  2   force =     0.00000002    0.00000001    0.05696673
     atom   29 type  1   force =    -0.00000323    0.00000196   -0.05828705
     atom   30 type  1   force =     0.00000009    0.00000005   -0.05828678
     atom   31 type  2   force =    -0.00000208    0.00000123    0.05695993
     atom   32 type  2   force =     0.00000002    0.00000001    0.05696857
     atom   33 type  1   force =    -0.00000234    0.00000145   -0.05828545
     atom   34 type  1   force =     0.00000009    0.00000005   -0.05829901
     atom   35 type  2   force =    -0.00000217    0.00000128    0.05696688
     atom   36 type  2   force =     0.00000002    0.00000001    0.05696449
     atom   37 type  1   force =     0.00000000   -0.00000253   -0.05828656
     atom   38 type  1   force =    -0.00000118   -0.00000078   -0.05828239
     atom   39 type  2   force =     0.00000000   -0.00000064    0.05696776
     atom   40 type  2   force =    -0.00000084   -0.00000051    0.05696684
     atom   41 type  1   force =     0.00000000   -0.00000363   -0.05828705
     atom   42 type  1   force =    -0.00000249   -0.00000154   -0.05828449
     atom   43 type  2   force =     0.00000000   -0.00000238    0.05695993
     atom   44 type  2   force =    -0.00000217   -0.00000128    0.05696812
     atom   45 type  1   force =     0.00000000   -0.00000260   -0.05828545
     atom   46 type  1   force =    -0.00000312   -0.00000190   -0.05829810
     atom   47 type  2   force =     0.00000000   -0.00000248    0.05696688
     atom   48 type  2   force =     0.00000062    0.00000033    0.05696498
     The core correction contribution to forces
     atom    1 type  1   force =    -0.00000001    0.00000000    0.00046404
     atom    2 type  1   force =     0.00000001    0.00000003    0.00046394
     atom    3 type  2   force =    -0.00000001   -0.00000001   -0.00006501
     atom    4 type  2   force =    -0.00000000    0.00000000   -0.00006504
     atom    5 type  1   force =    -0.00000003   -0.00000000    0.00046407
     atom    6 type  1   force =     0.00000001    0.00000003    0.00046404
     atom    7 type  2   force =     0.00000001    0.00000001   -0.00006503
     atom    8 type  2   force =    -0.00000000    0.00000002   -0.00006502
     atom    9 type  1   force =    -0.00000003   -0.00000000    0.00046401
     atom   10 type  1   force =     0.00000001   -0.00000003    0.00046411
     atom   11 type  2   force =     0.00000001    0.00000001   -0.00006504
     atom   12 type  2   force =    -0.00000000    0.00000000   -0.00006504
     atom   13 type  1   force =    -0.00000000    0.00000001    0.00046407
     atom   14 type  1   force =     0.00000002   -0.00000002    0.00046394
     atom   15 type  2   force =     0.00000000   -0.00000000   -0.00006504
     atom   16 type  2   force =     0.00000000   -0.00000000   -0.00006504
     atom   17 type  1   force =    -0.00000000    0.00000001    0.00046408
     atom   18 type  1   force =     0.00000002   -0.00000002    0.00046404
     atom   19 type  2   force =     0.00000000   -0.00000000   -0.00006505
     atom   20 type  2   force =     0.00000002   -0.00000001   -0.00006502
     atom   21 type  1   force =    -0.00000000    0.00000001    0.00046398
     atom   22 type  1   force =    -0.00000003    0.00000000    0.00046411
     atom   23 type  2   force =     0.00000000   -0.00000000   -0.00006505
     atom   24 type  2   force =     0.00000000   -0.00000000   -0.00006504
     atom   25 type  1   force =     0.00000001    0.00000000    0.00046404
     atom   26 type  1   force =     0.00000001    0.00000001    0.00046399
     atom   27 type  2   force =     0.00000001   -0.00000001   -0.00006501
     atom   28 type  2   force =    -0.00000000   -0.00000000   -0.00006503
     atom   29 type  1   force =     0.00000003   -0.00000000    0.00046407
     atom   30 type  1   force =     0.00000001    0.00000001    0.00046389
     atom   31 type  2   force =    -0.00000001    0.00000001   -0.00006503
     atom   32 type  2   force =    -0.00000000   -0.00000000   -0.00006501
     atom   33 type  1   force =     0.00000003   -0.00000000    0.00046401
     atom   34 type  1   force =     0.00000001    0.00000001    0.00046393
     atom   35 type  2   force =    -0.00000001    0.00000001   -0.00006504
     atom   36 type  2   force =    -0.00000000   -0.00000000   -0.00006506
     atom   37 type  1   force =    -0.00000000    0.00000003    0.00046404
     atom   38 type  1   force =    -0.00000002   -0.00000002    0.00046394
     atom   39 type  2   force =     0.00000000    0.00000001   -0.00006501
     atom   40 type  2   force =    -0.00000000   -0.00000000   -0.00006504
     atom   41 type  1   force =    -0.00000000    0.00000005    0.00046407
     atom   42 type  1   force =    -0.00000002   -0.00000002    0.00046404
     atom   43 type  2   force =     0.00000000   -0.00000001   -0.00006503
     atom   44 type  2   force =    -0.00000002   -0.00000001   -0.00006502
     atom   45 type  1   force =    -0.00000000    0.00000004    0.00046401
     atom   46 type  1   force =     0.00000003    0.00000000    0.00046411
     atom   47 type  2   force =     0.00000000   -0.00000002   -0.00006504
     atom   48 type  2   force =    -0.00000000   -0.00000000   -0.00006504
     The Hubbard contrib.    to forces
     atom    1 type  1   force =     0.00000000    0.00000000    0.00000000
     atom    2 type  1   force =     0.00000000    0.00000000    0.00000000
     atom    3 type  2   force =     0.00000000    0.00000000    0.00000000
     atom    4 type  2   force =     0.00000000    0.00000000    0.00000000
     atom    5 type  1   force =     0.00000000    0.00000000    0.00000000
     atom    6 type  1   force =     0.00000000    0.00000000    0.00000000
     atom    7 type  2   force =     0.00000000    0.00000000    0.00000000
     atom    8 type  2   force =     0.00000000    0.00000000    0.00000000
     atom    9 type  1   force =     0.00000000    0.00000000    0.00000000
     atom   10 type  1   force =     0.00000000    0.00000000    0.00000000
     atom   11 type  2   force =     0.00000000    0.00000000    0.00000000
     atom   12 type  2   force =     0.00000000    0.00000000    0.00000000
     atom   13 type  1   force =     0.00000000    0.00000000    0.00000000
     atom   14 type  1   force =     0.00000000    0.00000000    0.00000000
     atom   15 type  2   force =     0.00000000    0.00000000    0.00000000
     atom   16 type  2   force =     0.00000000    0.00000000    0.00000000
     atom   17 type  1   force =     0.00000000    0.00000000    0.00000000
     atom   18 type  1   force =     0.00000000    0.00000000    0.00000000
     atom   19 type  2   force =     0.00000000    0.00000000    0.00000000
     atom   20 type  2   force =     0.00000000    0.00000000    0.00000000
     atom   21 type  1   force =     0.00000000    0.00000000    0.00000000
     atom   22 type  1   force =     0.00000000    0.00000000    0.00000000
     atom   23 type  2   force =     0.00000000    0.00000000    0.00000000
     atom   24 type  2   force =     0.00000000    0.00000000    0.00000000
     atom   25 type  1   force =     0.00000000    0.00000000    0.00000000
     atom   26 type  1   force =     0.00000000    0.00000000    0.00000000
     atom   27 type  2   force =     0.00000000    0.00000000    0.00000000
     atom   28 type  2   force =     0.00000000    0.00000000    0.00000000
     atom   29 type  1   force =     0.00000000    0.00000000    0.00000000
     atom   30 type  1   force =     0.00000000    0.00000000    0.00000000
     atom   31 type  2   force =     0.00000000    0.00000000    0.00000000
     atom   32 type  2   force =     0.00000000    0.00000000    0.00000000
     atom   33 type  1   force =     0.00000000    0.00000000    0.00000000
     atom   34 type  1   force =     0.00000000    0.00000000    0.00000000
     atom   35 type  2   force =     0.00000000    0.00000000    0.00000000
     atom   36 type  2   force =     0.00000000    0.00000000    0.00000000
     atom   37 type  1   force =     0.00000000    0.00000000    0.00000000
     atom   38 type  1   force =     0.00000000    0.00000000    0.00000000
     atom   39 type  2   force =     0.00000000    0.00000000    0.00000000
     atom   40 type  2   force =     0.00000000    0.00000000    0.00000000
     atom   41 type  1   force =     0.00000000    0.00000000    0.00000000
     atom   42 type  1   force =     0.00000000    0.00000000    0.00000000
     atom   43 type  2   force =     0.00000000    0.00000000    0.00000000
     atom   44 type  2   force =     0.00000000    0.00000000    0.00000000
     atom   45 type  1   force =     0.00000000    0.00000000    0.00000000
     atom   46 type  1   force =     0.00000000    0.00000000    0.00000000
     atom   47 type  2   force =     0.00000000    0.00000000    0.00000000
     atom   48 type  2   force =     0.00000000    0.00000000    0.00000000
     The SCF correction term to forces
     atom    1 type  1   force =    -0.00000271   -0.00000157   -0.00000099
     atom    2 type  1   force =     0.00000000   -0.00000215   -0.00000761
     atom    3 type  2   force =    -0.00000184   -0.00000106   -0.00000221
     atom    4 type  2   force =     0.00000000   -0.00000118   -0.00000156
     atom    5 type  1   force =    -0.00000558   -0.00000322   -0.00000173
     atom    6 type  1   force =     0.00000000   -0.00000499   -0.00000766
     atom    7 type  2   force =    -0.00000252   -0.00000145    0.00000822
     atom    8 type  2   force =     0.00000000   -0.00000228   -0.00000230
     atom    9 type  1   force =    -0.00000393   -0.00000227    0.00000033
     atom   10 type  1   force =     0.00000000   -0.00000630    0.00001590
     atom   11 type  2   force =    -0.00000224   -0.00000130   -0.00000355
     atom   12 type  2   force =     0.00000000    0.00000029    0.00000048
     atom   13 type  1   force =     0.00000000    0.00000000   -0.00000110
     atom   14 type  1   force =    -0.00000186    0.00000108   -0.00000761
     atom   15 type  2   force =     0.00000000    0.00000000   -0.00000233
     atom   16 type  2   force =    -0.00000103    0.00000059   -0.00000156
     atom   17 type  1   force =     0.00000000    0.00000000   -0.00000706
     atom   18 type  1   force =    -0.00000432    0.00000250   -0.00000766
     atom   19 type  2   force =     0.00000000    0.00000000    0.00000877
     atom   20 type  2   force =    -0.00000197    0.00000114   -0.00000230
     atom   21 type  1   force =     0.00000000    0.00000000    0.00000072
     atom   22 type  1   force =    -0.00000546    0.00000315    0.00001590
     atom   23 type  2   force =     0.00000000    0.00000000   -0.00000566
     atom   24 type  2   force =     0.00000025   -0.00000015    0.00000048
     atom   25 type  1   force =     0.00000271   -0.00000157   -0.00000099
     atom   26 type  1   force =     0.00000000    0.00000000   -0.00000932
     atom   27 type  2   force =     0.00000184   -0.00000106   -0.00000221
     atom   28 type  2   force =     0.00000000    0.00000000   -0.00000174
     atom   29 type  1   force =     0.00000558   -0.00000322   -0.00000173
     atom   30 type  1   force =     0.00000000    0.00000000   -0.00000537
     atom   31 type  2   force =     0.00000252   -0.00000145    0.00000822
     atom   32 type  2   force =     0.00000000    0.00000000   -0.00000183
     atom   33 type  1   force =     0.00000393   -0.00000227    0.00000033
     atom   34 type  1   force =     0.00000000    0.00000000    0.00001598
     atom   35 type  2   force =     0.00000224   -0.00000130   -0.00000355
     atom   36 type  2   force =     0.00000000    0.00000000    0.00000010
     atom   37 type  1   force =     0.00000000    0.00000313   -0.00000099
     atom   38 type  1   force =     0.00000186    0.00000108   -0.00000761
     atom   39 type  2   force =     0.00000000    0.00000212   -0.00000221
     atom   40 type  2   force =     0.00000103    0.00000059   -0.00000156
     atom   41 type  1   force =     0.00000000    0.00000645   -0.00000173
     atom   42 type  1   force =     0.00000432    0.00000250   -0.00000766
     atom   43 type  2   force =     0.00000000    0.00000290    0.00000822
     atom   44 type  2   force =     0.00000197    0.00000114   -0.00000230
     atom   45 type  1   force =     0.00000000    0.00000453    0.00000033
     atom   46 type  1   force =     0.00000546    0.00000315    0.00001590
     atom   47 type  2   force =     0.00000000    0.00000259   -0.00000355
     atom   48 type  2   force =    -0.00000025   -0.00000015    0.00000048

     Total force =     0.000424     Total SCF correction =     0.000049
     SCF correction compared to forces is large: reduce conv_thr to get better values

     init_run     :     19.21s CPU     17.22s WALL (       1 calls)
     electrons    :   1123.81s CPU    812.58s WALL (       1 calls)
     forces       :     12.09s CPU     10.53s WALL (       1 calls)

     Called by init_run:
     wfcinit      :      7.77s CPU      5.59s WALL (       1 calls)
     wfcinit:atom :      0.04s CPU      0.06s WALL (       1 calls)
     wfcinit:wfcr :      7.51s CPU      5.24s WALL (       1 calls)
     potinit      :      5.41s CPU      5.54s WALL (       1 calls)
     hinit0       :      5.09s CPU      5.13s WALL (       1 calls)

     Called by electrons:
     c_bands      :   1018.53s CPU    717.57s WALL (      33 calls)
     sum_band     :     76.94s CPU     66.07s WALL (      33 calls)
     v_of_rho     :     15.35s CPU     16.02s WALL (      34 calls)
     v_h          :      1.09s CPU      1.17s WALL (      34 calls)
     v_xc         :     14.68s CPU     15.29s WALL (      35 calls)
     newd         :      9.89s CPU      9.75s WALL (      34 calls)
     mix_rho      :      2.17s CPU      2.25s WALL (      33 calls)

     Called by c_bands:
     init_us_2    :      2.44s CPU      2.36s WALL (      67 calls)
     init_us_2:cp :      2.44s CPU      2.36s WALL (      67 calls)
     cegterg      :    933.16s CPU    632.86s WALL (      33 calls)

     Called by sum_band:
     sum_band:wei :      0.02s CPU      0.02s WALL (      33 calls)
     sum_band:loo :     62.57s CPU     52.66s WALL (      33 calls)
     sum_band:buf :      0.00s CPU      0.00s WALL (      33 calls)
     sum_band:ini :      1.08s CPU      1.06s WALL (      33 calls)
     sum_band:cal :     24.74s CPU     13.38s WALL (      33 calls)
     sum_band:bec :      0.11s CPU      0.09s WALL (      33 calls)
     addusdens    :      8.91s CPU      8.10s WALL (      33 calls)
                                        0.00s GPU  (      33 calls)
     addusd:skk   :      0.32s CPU      0.29s WALL (      66 calls)
                                        0.00s GPU  (      66 calls)

     Called by *egterg:
     cdiaghg      :     74.75s CPU     62.49s WALL (     263 calls)
     cegterg:over :     95.82s CPU     51.53s WALL (     230 calls)
     cegterg:upda :     63.86s CPU     34.34s WALL (     230 calls)
     cegterg:last :    161.22s CPU     85.86s WALL (     128 calls)
     cdiaghg:chol :      1.82s CPU      1.56s WALL (     263 calls)
     cdiaghg:inve :      0.97s CPU      0.67s WALL (     263 calls)
     cdiaghg:para :     12.13s CPU      8.12s WALL (     526 calls)
     h_psi        :    421.89s CPU    334.41s WALL (     264 calls)
     s_psi        :    100.45s CPU     52.65s WALL (     264 calls)
     g_psi        :      1.57s CPU      1.31s WALL (     230 calls)

     Called by h_psi:
     h_psi:calbec :    101.20s CPU     53.95s WALL (     264 calls)
     vloc_psi     :    218.34s CPU    225.42s WALL (     264 calls)
     add_vuspsi   :    100.94s CPU     52.81s WALL (     264 calls)

     General routines
     calbec       :    129.09s CPU     68.96s WALL (     301 calls)
     fft          :     10.29s CPU     11.01s WALL (     451 calls)
     ffts         :      0.69s CPU      0.69s WALL (      67 calls)
     fftw         :    200.27s CPU    207.79s WALL (   62118 calls)
     interpolate  :      1.29s CPU      1.37s WALL (      34 calls)

     Parallel routines

     PWSCF        :  19m16.82s CPU  14m 2.08s WALL


   This run was terminated on:  11:24:40   1Aug2025            

=------------------------------------------------------------------------------=
   JOB DONE.
=------------------------------------------------------------------------------=
Note: The following floating-point exceptions are signalling: IEEE_INVALID_FLAG
Note: The following floating-point exceptions are signalling: IEEE_INVALID_FLAG
Note: The following floating-point exceptions are signalling: IEEE_INVALID_FLAG
Note: The following floating-point exceptions are signalling: IEEE_INVALID_FLAG
Note: The following floating-point exceptions are signalling: IEEE_INVALID_FLAG
Note: The following floating-point exceptions are signalling: IEEE_INVALID_FLAG
Note: The following floating-point exceptions are signalling: IEEE_INVALID_FLAG
Note: The following floating-point exceptions are signalling: IEEE_INVALID_FLAG
