
     Program PWSCF v.7.2 starts on  2Aug2025 at  8:29:50 

     This program is part of the open-source Quantum ESPRESSO suite
     for quantum simulation of materials; please cite
         "P. Giannozzi et al., J. Phys.:Condens. Matter 21 395502 (2009);
         "P. Giannozzi et al., J. Phys.:Condens. Matter 29 465901 (2017);
         "P. Giannozzi et al., J. Chem. Phys. 152 154105 (2020);
          URL http://www.quantum-espresso.org", 
     in publications or presentations arising from this work. More details at
     http://www.quantum-espresso.org/quote

     Parallel version (MPI), running on    32 processors

     MPI processes distributed on     1 nodes
     125293 MiB available memory on the printing compute node when the environment starts

     Reading input from /home/jvc/QEspresso7.2/ZnO_database/scripts/cell223.in/ZnO-3.47-1.49-223.in
Warning: card &CELL ignored
Warning: card / ignored
Warning: card &FCP ignored
Warning: card / ignored
Warning: card &RISM ignored
Warning: card / ignored

     Current dimensions of program PWSCF are:
     Max number of different atomic species (ntypx) = 10
     Max number of k-points (npk) =  40000
     Max angular momentum in pseudopotentials (lmaxx) =  4
     file Zn.upf: wavefunction(s)  3D renormalized
     Found identity + (  0.0000  0.0000  0.3333) symmetry
     This is a supercell, fractional translations are disabled
     Message from routine setup:
     using ibrav=0 with symmetry is DISCOURAGED, use correct ibrav instead

     K-points division:     npool     =       8
     R & G space division:  proc/nbgrp/npool/nimage =       4
     Subspace diagonalization in iterative solution of the eigenvalue problem:
     one sub-group per band group will be used
     custom distributed-memory algorithm (size of sub-group:  2*  2 procs)

     Message from routine divide_et_impera:
     suboptimal parallelization: some nodes have no k-points

     Parallelization info
     --------------------
     sticks:   dense  smooth     PW     G-vecs:    dense   smooth      PW
     Min        1054     526    145               133630    47266    6863
     Max        1055     527    146               133635    47273    6872
     Sum        4219    2107    583               534533   189081   27473

     Using Slab Decomposition



     bravais-lattice index     =            0
     lattice parameter (alat)  =      12.3576  a.u.
     unit-cell volume          =    3957.5722 (a.u.)^3
     number of atoms/cell      =           48
     number of atomic types    =            2
     number of electrons       =       432.00
     number of Kohn-Sham states=          216
     kinetic-energy cutoff     =      50.0000  Ry
     charge density cutoff     =     400.0000  Ry
     scf convergence threshold =      1.0E-08
     mixing beta               =       0.3000
     number of iterations used =            8  plain     mixing
     Exchange-correlation= PBE
                           (   1   4   3   4   0   0   0)

     celldm(1)=  12.357644  celldm(2)=   0.000000  celldm(3)=   0.000000
     celldm(4)=   0.000000  celldm(5)=   0.000000  celldm(6)=   0.000000

     crystal axes: (cart. coord. in units of alat)
               a(1) = (   1.000000   0.000000   0.000000 )  
               a(2) = (  -0.500000   0.866025   0.000000 )  
               a(3) = (   0.000000   0.000000   2.421538 )  

     reciprocal axes: (cart. coord. in units 2 pi/alat)
               b(1) = (  1.000000  0.577350 -0.000000 )  
               b(2) = (  0.000000  1.154701  0.000000 )  
               b(3) = (  0.000000 -0.000000  0.412961 )  


     PseudoPot. # 1 for Zn read from file:
     /home/jvc/QEspresso7.2/ZnO_database/pseudos/Zn.upf
     MD5 check sum: 7f56cabf9682ed8c977c2f7d0c5985c5
     Pseudo is Ultrasoft + core correction, Zval = 12.0
     Generated using &quot;atomic&quot; code by A. Dal Corso  v.6.2.2
     Using radial grid of 1201 points,  6 beta functions with: 
                l(1) =   0
                l(2) =   0
                l(3) =   1
                l(4) =   1
                l(5) =   2
                l(6) =   2
     Q(r) pseudized with 0 coefficients 


     PseudoPot. # 2 for O  read from file:
     /home/jvc/QEspresso7.2/ZnO_database/pseudos/O.upf
     MD5 check sum: 91400c9766925bcf19f520983a725ff0
     Pseudo is Ultrasoft + core correction, Zval =  6.0
     Generated using &quot;atomic&quot; code by A. Dal Corso  v.6.3MaX
     Using radial grid of 1095 points,  4 beta functions with: 
                l(1) =   0
                l(2) =   0
                l(3) =   1
                l(4) =   1
     Q(r) pseudized with 0 coefficients 


     atomic species   valence    mass     pseudopotential
        Zn            12.00    65.38000     Zn( 1.00)
        O              6.00    15.99900     O ( 1.00)

      6 Sym. Ops. (no inversion) found


                                    s                        frac. trans.

      isym =  1     identity                                     

 cryst.   s( 1) = (     1          0          0      )
                  (     0          1          0      )
                  (     0          0          1      )

 cart.    s( 1) = (  1.0000000  0.0000000  0.0000000 )
                  (  0.0000000  1.0000000  0.0000000 )
                  (  0.0000000  0.0000000  1.0000000 )


      isym =  2     120 deg rotation - cryst. axis [0,0,1]       

 cryst.   s( 2) = (     0          1          0      )
                  (    -1         -1          0      )
                  (     0          0          1      )

 cart.    s( 2) = ( -0.5000000 -0.8660254  0.0000000 )
                  (  0.8660254 -0.5000000  0.0000000 )
                  (  0.0000000  0.0000000  1.0000000 )


      isym =  3     120 deg rotation - cryst. axis [0,0,-1]      

 cryst.   s( 3) = (    -1         -1          0      )
                  (     1          0          0      )
                  (     0          0          1      )

 cart.    s( 3) = ( -0.5000000  0.8660254  0.0000000 )
                  ( -0.8660254 -0.5000000  0.0000000 )
                  (  0.0000000  0.0000000  1.0000000 )


      isym =  4     inv. 180 deg rotation - cart. axis [1,0,0]   

 cryst.   s( 4) = (    -1          0          0      )
                  (     1          1          0      )
                  (     0          0          1      )

 cart.    s( 4) = ( -1.0000000  0.0000000  0.0000000 )
                  (  0.0000000  1.0000000  0.0000000 )
                  (  0.0000000  0.0000000  1.0000000 )


      isym =  5     inv. 180 deg rotation - cryst. axis [0,1,0]  

 cryst.   s( 5) = (     1          1          0      )
                  (     0         -1          0      )
                  (     0          0          1      )

 cart.    s( 5) = (  0.5000000  0.8660254  0.0000000 )
                  (  0.8660254 -0.5000000  0.0000000 )
                  (  0.0000000  0.0000000  1.0000000 )


      isym =  6     inv. 180 deg rotation - cryst. axis [1,1,0]  

 cryst.   s( 6) = (     0         -1          0      )
                  (    -1          0          0      )
                  (     0          0          1      )

 cart.    s( 6) = (  0.5000000 -0.8660254  0.0000000 )
                  ( -0.8660254 -0.5000000  0.0000000 )
                  (  0.0000000  0.0000000  1.0000000 )


   Cartesian axes

     site n.     atom                  positions (alat units)
         1           Zn  tau(   1) = (   0.2500000   0.1443376   0.4041010  )
         2           Zn  tau(   2) = (   0.0000000   0.2886751   0.0005114  )
         3           O   tau(   3) = (   0.2500000   0.1443376   0.7100565  )
         4           O   tau(   4) = (   0.0000000   0.2886751   0.3064669  )
         5           Zn  tau(   5) = (   0.2500000   0.1443376   1.2112802  )
         6           Zn  tau(   6) = (   0.0000000   0.2886751   0.8076906  )
         7           O   tau(   7) = (   0.2500000   0.1443376   1.5172357  )
         8           O   tau(   8) = (   0.0000000   0.2886751   1.1136461  )
         9           Zn  tau(   9) = (   0.2500000   0.1443376   2.0184594  )
        10           Zn  tau(  10) = (   0.0000000   0.2886751   1.6148698  )
        11           O   tau(  11) = (   0.2500000   0.1443376   2.3244148  )
        12           O   tau(  12) = (   0.0000000   0.2886751   1.9208253  )
        13           Zn  tau(  13) = (   0.0000000   0.5773503   0.4041010  )
        14           Zn  tau(  14) = (  -0.2500000   0.7216878   0.0005114  )
        15           O   tau(  15) = (   0.0000000   0.5773503   0.7100565  )
        16           O   tau(  16) = (  -0.2500000   0.7216878   0.3064669  )
        17           Zn  tau(  17) = (   0.0000000   0.5773503   1.2112802  )
        18           Zn  tau(  18) = (  -0.2500000   0.7216878   0.8076906  )
        19           O   tau(  19) = (   0.0000000   0.5773503   1.5172357  )
        20           O   tau(  20) = (  -0.2500000   0.7216878   1.1136461  )
        21           Zn  tau(  21) = (   0.0000000   0.5773503   2.0184594  )
        22           Zn  tau(  22) = (  -0.2500000   0.7216878   1.6148698  )
        23           O   tau(  23) = (   0.0000000   0.5773503   2.3244148  )
        24           O   tau(  24) = (  -0.2500000   0.7216878   1.9208253  )
        25           Zn  tau(  25) = (   0.7500000   0.1443376   0.4041010  )
        26           Zn  tau(  26) = (   0.5000000   0.2886751   0.0005114  )
        27           O   tau(  27) = (   0.7500000   0.1443376   0.7100565  )
        28           O   tau(  28) = (   0.5000000   0.2886751   0.3064669  )
        29           Zn  tau(  29) = (   0.7500000   0.1443376   1.2112802  )
        30           Zn  tau(  30) = (   0.5000000   0.2886751   0.8076906  )
        31           O   tau(  31) = (   0.7500000   0.1443376   1.5172357  )
        32           O   tau(  32) = (   0.5000000   0.2886751   1.1136461  )
        33           Zn  tau(  33) = (   0.7500000   0.1443376   2.0184594  )
        34           Zn  tau(  34) = (   0.5000000   0.2886751   1.6148698  )
        35           O   tau(  35) = (   0.7500000   0.1443376   2.3244148  )
        36           O   tau(  36) = (   0.5000000   0.2886751   1.9208253  )
        37           Zn  tau(  37) = (   0.5000000   0.5773503   0.4041010  )
        38           Zn  tau(  38) = (   0.2500000   0.7216878   0.0005114  )
        39           O   tau(  39) = (   0.5000000   0.5773503   0.7100565  )
        40           O   tau(  40) = (   0.2500000   0.7216878   0.3064669  )
        41           Zn  tau(  41) = (   0.5000000   0.5773503   1.2112802  )
        42           Zn  tau(  42) = (   0.2500000   0.7216878   0.8076906  )
        43           O   tau(  43) = (   0.5000000   0.5773503   1.5172357  )
        44           O   tau(  44) = (   0.2500000   0.7216878   1.1136461  )
        45           Zn  tau(  45) = (   0.5000000   0.5773503   2.0184594  )
        46           Zn  tau(  46) = (   0.2500000   0.7216878   1.6148698  )
        47           O   tau(  47) = (   0.5000000   0.5773503   2.3244148  )
        48           O   tau(  48) = (   0.2500000   0.7216878   1.9208253  )

   Crystallographic axes

     site n.     atom                  positions (cryst. coord.)
         1           Zn  tau(   1) = (  0.3333333  0.1666667  0.1668779  )
         2           Zn  tau(   2) = (  0.1666667  0.3333333  0.0002112  )
         3           O   tau(   3) = (  0.3333333  0.1666667  0.2932255  )
         4           O   tau(   4) = (  0.1666667  0.3333333  0.1265588  )
         5           Zn  tau(   5) = (  0.3333333  0.1666667  0.5002112  )
         6           Zn  tau(   6) = (  0.1666667  0.3333333  0.3335445  )
         7           O   tau(   7) = (  0.3333333  0.1666667  0.6265588  )
         8           O   tau(   8) = (  0.1666667  0.3333333  0.4598921  )
         9           Zn  tau(   9) = (  0.3333333  0.1666667  0.8335445  )
        10           Zn  tau(  10) = (  0.1666667  0.3333333  0.6668779  )
        11           O   tau(  11) = (  0.3333333  0.1666667  0.9598921  )
        12           O   tau(  12) = (  0.1666667  0.3333333  0.7932255  )
        13           Zn  tau(  13) = (  0.3333333  0.6666667  0.1668779  )
        14           Zn  tau(  14) = (  0.1666667  0.8333333  0.0002112  )
        15           O   tau(  15) = (  0.3333333  0.6666667  0.2932255  )
        16           O   tau(  16) = (  0.1666667  0.8333333  0.1265588  )
        17           Zn  tau(  17) = (  0.3333333  0.6666667  0.5002112  )
        18           Zn  tau(  18) = (  0.1666667  0.8333333  0.3335445  )
        19           O   tau(  19) = (  0.3333333  0.6666667  0.6265588  )
        20           O   tau(  20) = (  0.1666667  0.8333333  0.4598921  )
        21           Zn  tau(  21) = (  0.3333333  0.6666667  0.8335445  )
        22           Zn  tau(  22) = (  0.1666667  0.8333333  0.6668779  )
        23           O   tau(  23) = (  0.3333333  0.6666667  0.9598921  )
        24           O   tau(  24) = (  0.1666667  0.8333333  0.7932255  )
        25           Zn  tau(  25) = (  0.8333333  0.1666667  0.1668779  )
        26           Zn  tau(  26) = (  0.6666667  0.3333333  0.0002112  )
        27           O   tau(  27) = (  0.8333333  0.1666667  0.2932255  )
        28           O   tau(  28) = (  0.6666667  0.3333333  0.1265588  )
        29           Zn  tau(  29) = (  0.8333333  0.1666667  0.5002112  )
        30           Zn  tau(  30) = (  0.6666667  0.3333333  0.3335445  )
        31           O   tau(  31) = (  0.8333333  0.1666667  0.6265588  )
        32           O   tau(  32) = (  0.6666667  0.3333333  0.4598921  )
        33           Zn  tau(  33) = (  0.8333333  0.1666667  0.8335445  )
        34           Zn  tau(  34) = (  0.6666667  0.3333333  0.6668779  )
        35           O   tau(  35) = (  0.8333333  0.1666667  0.9598921  )
        36           O   tau(  36) = (  0.6666667  0.3333333  0.7932255  )
        37           Zn  tau(  37) = (  0.8333333  0.6666667  0.1668779  )
        38           Zn  tau(  38) = (  0.6666667  0.8333333  0.0002112  )
        39           O   tau(  39) = (  0.8333333  0.6666667  0.2932255  )
        40           O   tau(  40) = (  0.6666667  0.8333333  0.1265588  )
        41           Zn  tau(  41) = (  0.8333333  0.6666667  0.5002112  )
        42           Zn  tau(  42) = (  0.6666667  0.8333333  0.3335445  )
        43           O   tau(  43) = (  0.8333333  0.6666667  0.6265588  )
        44           O   tau(  44) = (  0.6666667  0.8333333  0.4598921  )
        45           Zn  tau(  45) = (  0.8333333  0.6666667  0.8335445  )
        46           Zn  tau(  46) = (  0.6666667  0.8333333  0.6668779  )
        47           O   tau(  47) = (  0.8333333  0.6666667  0.9598921  )
        48           O   tau(  48) = (  0.6666667  0.8333333  0.7932255  )

     number of k points=     6
                       cart. coord. in units 2pi/alat
        k(    1) = (   0.0000000   0.0000000   0.0000000), wk =   0.1111111
        k(    2) = (   0.0000000   0.0000000  -0.2064804), wk =   0.1111111
        k(    3) = (   0.0000000   0.3849002   0.0000000), wk =   0.6666667
        k(    4) = (   0.0000000   0.3849002  -0.2064804), wk =   0.6666667
        k(    5) = (   0.3333333   0.5773503   0.0000000), wk =   0.2222222
        k(    6) = (   0.3333333   0.5773503  -0.2064804), wk =   0.2222222

                       cryst. coord.
        k(    1) = (   0.0000000   0.0000000   0.0000000), wk =   0.1111111
        k(    2) = (   0.0000000   0.0000000  -0.5000000), wk =   0.1111111
        k(    3) = (   0.0000000   0.3333333   0.0000000), wk =   0.6666667
        k(    4) = (   0.0000000   0.3333333  -0.5000000), wk =   0.6666667
        k(    5) = (   0.3333333   0.3333333   0.0000000), wk =   0.2222222
        k(    6) = (   0.3333333   0.3333333  -0.5000000), wk =   0.2222222

     Dense  grid:   534533 G-vectors     FFT dimensions: (  80,  80, 192)

     Smooth grid:   189081 G-vectors     FFT dimensions: (  60,  60, 135)

     Dynamical RAM for                 wfc:      19.47 MB

     Dynamical RAM for     wfc (w. buffer):      19.47 MB

     Dynamical RAM for           str. fact:       4.08 MB

     Dynamical RAM for           local pot:       0.00 MB

     Dynamical RAM for          nlocal pot:      56.24 MB

     Dynamical RAM for                qrad:       3.21 MB

     Dynamical RAM for          rho,v,vnew:      13.15 MB

     Dynamical RAM for               rhoin:       4.38 MB

     Dynamical RAM for            rho*nmix:      32.63 MB

     Dynamical RAM for           G-vectors:       8.01 MB

     Dynamical RAM for          h,s,v(r/c):       2.14 MB

     Dynamical RAM for          <psi|beta>:       2.06 MB

     Dynamical RAM for                 psi:      38.94 MB

     Dynamical RAM for                hpsi:      38.94 MB

     Dynamical RAM for                spsi:      38.94 MB

     Dynamical RAM for      wfcinit/wfcrot:      58.47 MB

     Dynamical RAM for           addusdens:      55.31 MB

     Dynamical RAM for          addusforce:      66.36 MB

     Estimated static dynamical RAM per process >     126.38 MB

     Estimated max dynamical RAM per process >     280.01 MB

     Estimated total dynamical RAM >       7.86 GB

     Check: negative core charge=   -0.000002

     Initial potential from superposition of free atoms

     starting charge     431.9106, renormalised to     432.0000
     Starting wfcs are  312 randomized atomic wfcs

     total cpu time spent up to now is       17.7 secs

     Self-consistent Calculation

     iteration #  1     ecut=    50.00 Ry     beta= 0.30
     Davidson diagonalization with overlap

---- Real-time Memory Report at c_bands before calling an iterative solver
           221 MiB given to the printing process from OS
             0 MiB allocation reported by mallinfo(arena+hblkhd)
        119747 MiB available memory on the node where the printing process lives
------------------
     ethr =  1.00E-02,  avg # of iterations =  2.0

     total cpu time spent up to now is       30.2 secs

     total energy              =   -4337.75904974 Ry
     estimated scf accuracy    <       8.27959645 Ry

     iteration #  2     ecut=    50.00 Ry     beta= 0.30
     Davidson diagonalization with overlap

---- Real-time Memory Report at c_bands before calling an iterative solver
           292 MiB given to the printing process from OS
             0 MiB allocation reported by mallinfo(arena+hblkhd)
        119377 MiB available memory on the node where the printing process lives
------------------
     ethr =  1.92E-03,  avg # of iterations =  2.0

     total cpu time spent up to now is       45.8 secs

     total energy              =   -4338.96169921 Ry
     estimated scf accuracy    <       1.04971841 Ry

     iteration #  3     ecut=    50.00 Ry     beta= 0.30
     Davidson diagonalization with overlap

---- Real-time Memory Report at c_bands before calling an iterative solver
           328 MiB given to the printing process from OS
             0 MiB allocation reported by mallinfo(arena+hblkhd)
        119148 MiB available memory on the node where the printing process lives
------------------
     ethr =  2.43E-04,  avg # of iterations =  7.7

     total cpu time spent up to now is       75.7 secs

     total energy              =   -4339.32664205 Ry
     estimated scf accuracy    <       0.68812821 Ry

     iteration #  4     ecut=    50.00 Ry     beta= 0.30
     Davidson diagonalization with overlap

---- Real-time Memory Report at c_bands before calling an iterative solver
           330 MiB given to the printing process from OS
             0 MiB allocation reported by mallinfo(arena+hblkhd)
        119449 MiB available memory on the node where the printing process lives
------------------
     ethr =  1.59E-04,  avg # of iterations =  9.8

     total cpu time spent up to now is      109.9 secs

     total energy              =   -4339.76727039 Ry
     estimated scf accuracy    <       2.68630713 Ry

     iteration #  5     ecut=    50.00 Ry     beta= 0.30
     Davidson diagonalization with overlap

---- Real-time Memory Report at c_bands before calling an iterative solver
           331 MiB given to the printing process from OS
             0 MiB allocation reported by mallinfo(arena+hblkhd)
        119301 MiB available memory on the node where the printing process lives
------------------
     ethr =  1.59E-04,  avg # of iterations =  2.0

     total cpu time spent up to now is      122.5 secs

     total energy              =   -4338.59953132 Ry
     estimated scf accuracy    <       1.50161636 Ry

     iteration #  6     ecut=    50.00 Ry     beta= 0.30
     Davidson diagonalization with overlap

---- Real-time Memory Report at c_bands before calling an iterative solver
           332 MiB given to the printing process from OS
             0 MiB allocation reported by mallinfo(arena+hblkhd)
        119030 MiB available memory on the node where the printing process lives
------------------
     ethr =  1.59E-04,  avg # of iterations = 13.3

     total cpu time spent up to now is      166.1 secs

     total energy              =   -4338.31203938 Ry
     estimated scf accuracy    <      13.75287919 Ry

     iteration #  7     ecut=    50.00 Ry     beta= 0.30
     Davidson diagonalization with overlap

---- Real-time Memory Report at c_bands before calling an iterative solver
           334 MiB given to the printing process from OS
             0 MiB allocation reported by mallinfo(arena+hblkhd)
        119266 MiB available memory on the node where the printing process lives
------------------
     ethr =  1.59E-04,  avg # of iterations = 11.5

     total cpu time spent up to now is      203.1 secs

     total energy              =   -4339.62135684 Ry
     estimated scf accuracy    <       0.81394311 Ry

     iteration #  8     ecut=    50.00 Ry     beta= 0.30
     Davidson diagonalization with overlap

---- Real-time Memory Report at c_bands before calling an iterative solver
           336 MiB given to the printing process from OS
             0 MiB allocation reported by mallinfo(arena+hblkhd)
        119291 MiB available memory on the node where the printing process lives
------------------
     ethr =  1.59E-04,  avg # of iterations =  2.0

     total cpu time spent up to now is      215.3 secs

     total energy              =   -4339.61110938 Ry
     estimated scf accuracy    <       0.46621344 Ry

     iteration #  9     ecut=    50.00 Ry     beta= 0.30
     Davidson diagonalization with overlap

---- Real-time Memory Report at c_bands before calling an iterative solver
           337 MiB given to the printing process from OS
             0 MiB allocation reported by mallinfo(arena+hblkhd)
        119017 MiB available memory on the node where the printing process lives
------------------
     ethr =  1.08E-04,  avg # of iterations =  2.0

     total cpu time spent up to now is      228.0 secs

     total energy              =   -4339.53113763 Ry
     estimated scf accuracy    <       0.29781632 Ry

     iteration # 10     ecut=    50.00 Ry     beta= 0.30
     Davidson diagonalization with overlap

---- Real-time Memory Report at c_bands before calling an iterative solver
           338 MiB given to the printing process from OS
             0 MiB allocation reported by mallinfo(arena+hblkhd)
        118884 MiB available memory on the node where the printing process lives
------------------
     ethr =  6.89E-05,  avg # of iterations =  7.0

     total cpu time spent up to now is      248.4 secs

     total energy              =   -4339.63720144 Ry
     estimated scf accuracy    <       0.00080213 Ry

     iteration # 11     ecut=    50.00 Ry     beta= 0.30
     Davidson diagonalization with overlap

---- Real-time Memory Report at c_bands before calling an iterative solver
           339 MiB given to the printing process from OS
             0 MiB allocation reported by mallinfo(arena+hblkhd)
        119165 MiB available memory on the node where the printing process lives
------------------
     c_bands:  1 eigenvalues not converged
     ethr =  1.86E-07,  avg # of iterations = 16.7

     total cpu time spent up to now is      295.5 secs

     total energy              =   -4339.64206711 Ry
     estimated scf accuracy    <       0.00643889 Ry

     iteration # 12     ecut=    50.00 Ry     beta= 0.30
     Davidson diagonalization with overlap

---- Real-time Memory Report at c_bands before calling an iterative solver
           339 MiB given to the printing process from OS
             0 MiB allocation reported by mallinfo(arena+hblkhd)
        119155 MiB available memory on the node where the printing process lives
------------------
     ethr =  1.86E-07,  avg # of iterations =  6.8

     total cpu time spent up to now is      322.2 secs

     total energy              =   -4339.64234656 Ry
     estimated scf accuracy    <       0.00053379 Ry

     iteration # 13     ecut=    50.00 Ry     beta= 0.30
     Davidson diagonalization with overlap

---- Real-time Memory Report at c_bands before calling an iterative solver
           339 MiB given to the printing process from OS
             0 MiB allocation reported by mallinfo(arena+hblkhd)
        119146 MiB available memory on the node where the printing process lives
------------------
     ethr =  1.24E-07,  avg # of iterations = 12.0

     total cpu time spent up to now is      359.9 secs

     total energy              =   -4339.64214169 Ry
     estimated scf accuracy    <       0.00396194 Ry

     iteration # 14     ecut=    50.00 Ry     beta= 0.30
     Davidson diagonalization with overlap

---- Real-time Memory Report at c_bands before calling an iterative solver
           339 MiB given to the printing process from OS
             0 MiB allocation reported by mallinfo(arena+hblkhd)
        119162 MiB available memory on the node where the printing process lives
------------------
     ethr =  1.24E-07,  avg # of iterations = 10.0

     total cpu time spent up to now is      392.3 secs

     total energy              =   -4339.64272572 Ry
     estimated scf accuracy    <       0.00014665 Ry

     iteration # 15     ecut=    50.00 Ry     beta= 0.30
     Davidson diagonalization with overlap

---- Real-time Memory Report at c_bands before calling an iterative solver
           339 MiB given to the printing process from OS
             0 MiB allocation reported by mallinfo(arena+hblkhd)
        119139 MiB available memory on the node where the printing process lives
------------------
     ethr =  3.39E-08,  avg # of iterations =  2.2

     total cpu time spent up to now is      406.7 secs

     total energy              =   -4339.64265433 Ry
     estimated scf accuracy    <       0.00027426 Ry

     iteration # 16     ecut=    50.00 Ry     beta= 0.30
     Davidson diagonalization with overlap

---- Real-time Memory Report at c_bands before calling an iterative solver
           339 MiB given to the printing process from OS
             0 MiB allocation reported by mallinfo(arena+hblkhd)
        118953 MiB available memory on the node where the printing process lives
------------------
     ethr =  3.39E-08,  avg # of iterations =  2.0

     total cpu time spent up to now is      419.3 secs

     total energy              =   -4339.64261379 Ry
     estimated scf accuracy    <       0.00011985 Ry

     iteration # 17     ecut=    50.00 Ry     beta= 0.30
     Davidson diagonalization with overlap

---- Real-time Memory Report at c_bands before calling an iterative solver
           340 MiB given to the printing process from OS
             0 MiB allocation reported by mallinfo(arena+hblkhd)
        119075 MiB available memory on the node where the printing process lives
------------------
     ethr =  2.77E-08,  avg # of iterations =  6.0

     total cpu time spent up to now is      439.9 secs

     total energy              =   -4339.64271898 Ry
     estimated scf accuracy    <       0.00000491 Ry

     iteration # 18     ecut=    50.00 Ry     beta= 0.30
     Davidson diagonalization with overlap

---- Real-time Memory Report at c_bands before calling an iterative solver
           340 MiB given to the printing process from OS
             0 MiB allocation reported by mallinfo(arena+hblkhd)
        119088 MiB available memory on the node where the printing process lives
------------------
     c_bands:  1 eigenvalues not converged
     ethr =  1.14E-09,  avg # of iterations = 18.5

     total cpu time spent up to now is      498.5 secs

     total energy              =   -4339.64263977 Ry
     estimated scf accuracy    <       0.00092648 Ry

     iteration # 19     ecut=    50.00 Ry     beta= 0.30
     Davidson diagonalization with overlap

---- Real-time Memory Report at c_bands before calling an iterative solver
           340 MiB given to the printing process from OS
             0 MiB allocation reported by mallinfo(arena+hblkhd)
        119083 MiB available memory on the node where the printing process lives
------------------
     ethr =  1.14E-09,  avg # of iterations = 14.5

     total cpu time spent up to now is      547.7 secs

     total energy              =   -4339.64266695 Ry
     estimated scf accuracy    <       0.00016321 Ry

     iteration # 20     ecut=    50.00 Ry     beta= 0.30
     Davidson diagonalization with overlap

---- Real-time Memory Report at c_bands before calling an iterative solver
           340 MiB given to the printing process from OS
             0 MiB allocation reported by mallinfo(arena+hblkhd)
        119043 MiB available memory on the node where the printing process lives
------------------
     ethr =  1.14E-09,  avg # of iterations =  8.7

     total cpu time spent up to now is      577.3 secs

     total energy              =   -4339.64263497 Ry
     estimated scf accuracy    <       0.00006803 Ry

     iteration # 21     ecut=    50.00 Ry     beta= 0.30
     Davidson diagonalization with overlap

---- Real-time Memory Report at c_bands before calling an iterative solver
           340 MiB given to the printing process from OS
             0 MiB allocation reported by mallinfo(arena+hblkhd)
        119139 MiB available memory on the node where the printing process lives
------------------
     ethr =  1.14E-09,  avg # of iterations = 13.3

     total cpu time spent up to now is      619.0 secs

     total energy              =   -4339.64265964 Ry
     estimated scf accuracy    <       0.00000716 Ry

     iteration # 22     ecut=    50.00 Ry     beta= 0.30
     Davidson diagonalization with overlap

---- Real-time Memory Report at c_bands before calling an iterative solver
           340 MiB given to the printing process from OS
             0 MiB allocation reported by mallinfo(arena+hblkhd)
        119100 MiB available memory on the node where the printing process lives
------------------
     ethr =  1.14E-09,  avg # of iterations =  3.2

     total cpu time spent up to now is      632.9 secs

     total energy              =   -4339.64265719 Ry
     estimated scf accuracy    <       0.00001371 Ry

     iteration # 23     ecut=    50.00 Ry     beta= 0.30
     Davidson diagonalization with overlap

---- Real-time Memory Report at c_bands before calling an iterative solver
           340 MiB given to the printing process from OS
             0 MiB allocation reported by mallinfo(arena+hblkhd)
        118955 MiB available memory on the node where the printing process lives
------------------
     ethr =  1.14E-09,  avg # of iterations =  1.7

     total cpu time spent up to now is      644.9 secs

     total energy              =   -4339.64265540 Ry
     estimated scf accuracy    <       0.00000953 Ry

     iteration # 24     ecut=    50.00 Ry     beta= 0.30
     Davidson diagonalization with overlap

---- Real-time Memory Report at c_bands before calling an iterative solver
           340 MiB given to the printing process from OS
             0 MiB allocation reported by mallinfo(arena+hblkhd)
        118923 MiB available memory on the node where the printing process lives
------------------
     ethr =  1.14E-09,  avg # of iterations =  1.8

     total cpu time spent up to now is      657.4 secs

     total energy              =   -4339.64265277 Ry
     estimated scf accuracy    <       0.00000545 Ry

     iteration # 25     ecut=    50.00 Ry     beta= 0.30
     Davidson diagonalization with overlap

---- Real-time Memory Report at c_bands before calling an iterative solver
           340 MiB given to the printing process from OS
             0 MiB allocation reported by mallinfo(arena+hblkhd)
        118970 MiB available memory on the node where the printing process lives
------------------
     ethr =  1.14E-09,  avg # of iterations =  6.3

     total cpu time spent up to now is      679.8 secs

     total energy              =   -4339.64265496 Ry
     estimated scf accuracy    <       0.00000059 Ry

     iteration # 26     ecut=    50.00 Ry     beta= 0.30
     Davidson diagonalization with overlap

---- Real-time Memory Report at c_bands before calling an iterative solver
           340 MiB given to the printing process from OS
             0 MiB allocation reported by mallinfo(arena+hblkhd)
        119032 MiB available memory on the node where the printing process lives
------------------
     ethr =  1.36E-10,  avg # of iterations =  6.3

     total cpu time spent up to now is      697.8 secs

     total energy              =   -4339.64265469 Ry
     estimated scf accuracy    <       0.00000057 Ry

     iteration # 27     ecut=    50.00 Ry     beta= 0.30
     Davidson diagonalization with overlap

---- Real-time Memory Report at c_bands before calling an iterative solver
           340 MiB given to the printing process from OS
             0 MiB allocation reported by mallinfo(arena+hblkhd)
        118995 MiB available memory on the node where the printing process lives
------------------
     ethr =  1.32E-10,  avg # of iterations =  7.8

     total cpu time spent up to now is      726.4 secs

     total energy              =   -4339.64265536 Ry
     estimated scf accuracy    <       0.00000060 Ry

     iteration # 28     ecut=    50.00 Ry     beta= 0.30
     Davidson diagonalization with overlap

---- Real-time Memory Report at c_bands before calling an iterative solver
           340 MiB given to the printing process from OS
             0 MiB allocation reported by mallinfo(arena+hblkhd)
        119007 MiB available memory on the node where the printing process lives
------------------
     ethr =  1.32E-10,  avg # of iterations =  4.2

     total cpu time spent up to now is      741.1 secs

     total energy              =   -4339.64265606 Ry
     estimated scf accuracy    <       0.00000119 Ry

     iteration # 29     ecut=    50.00 Ry     beta= 0.30
     Davidson diagonalization with overlap

---- Real-time Memory Report at c_bands before calling an iterative solver
           340 MiB given to the printing process from OS
             0 MiB allocation reported by mallinfo(arena+hblkhd)
        118853 MiB available memory on the node where the printing process lives
------------------
     ethr =  1.32E-10,  avg # of iterations =  8.0

     total cpu time spent up to now is      767.2 secs

     total energy              =   -4339.64265493 Ry
     estimated scf accuracy    <       0.00000538 Ry

     iteration # 30     ecut=    50.00 Ry     beta= 0.30
     Davidson diagonalization with overlap

---- Real-time Memory Report at c_bands before calling an iterative solver
           340 MiB given to the printing process from OS
             0 MiB allocation reported by mallinfo(arena+hblkhd)
        119006 MiB available memory on the node where the printing process lives
------------------
     ethr =  1.32E-10,  avg # of iterations =  5.2

     total cpu time spent up to now is      790.0 secs

     total energy              =   -4339.64265491 Ry
     estimated scf accuracy    <       0.00000126 Ry

     iteration # 31     ecut=    50.00 Ry     beta= 0.30
     Davidson diagonalization with overlap

---- Real-time Memory Report at c_bands before calling an iterative solver
           340 MiB given to the printing process from OS
             0 MiB allocation reported by mallinfo(arena+hblkhd)
        118932 MiB available memory on the node where the printing process lives
------------------
     ethr =  1.32E-10,  avg # of iterations =  4.8

     total cpu time spent up to now is      805.0 secs

     total energy              =   -4339.64265483 Ry
     estimated scf accuracy    <       0.00000056 Ry

     iteration # 32     ecut=    50.00 Ry     beta= 0.30
     Davidson diagonalization with overlap

---- Real-time Memory Report at c_bands before calling an iterative solver
           340 MiB given to the printing process from OS
             0 MiB allocation reported by mallinfo(arena+hblkhd)
        118796 MiB available memory on the node where the printing process lives
------------------
     ethr =  1.29E-10,  avg # of iterations =  5.0

     total cpu time spent up to now is      822.4 secs

     total energy              =   -4339.64265490 Ry
     estimated scf accuracy    <       0.00000008 Ry

     iteration # 33     ecut=    50.00 Ry     beta= 0.30
     Davidson diagonalization with overlap

---- Real-time Memory Report at c_bands before calling an iterative solver
           340 MiB given to the printing process from OS
             0 MiB allocation reported by mallinfo(arena+hblkhd)
        119076 MiB available memory on the node where the printing process lives
------------------
     ethr =  1.77E-11,  avg # of iterations =  9.0

     total cpu time spent up to now is      853.3 secs

     total energy              =   -4339.64265499 Ry
     estimated scf accuracy    <       0.00000006 Ry

     iteration # 34     ecut=    50.00 Ry     beta= 0.30
     Davidson diagonalization with overlap

---- Real-time Memory Report at c_bands before calling an iterative solver
           340 MiB given to the printing process from OS
             0 MiB allocation reported by mallinfo(arena+hblkhd)
        119070 MiB available memory on the node where the printing process lives
------------------
     ethr =  1.33E-11,  avg # of iterations =  1.5

     total cpu time spent up to now is      865.3 secs

     total energy              =   -4339.64265497 Ry
     estimated scf accuracy    <       0.00000003 Ry

     iteration # 35     ecut=    50.00 Ry     beta= 0.30
     Davidson diagonalization with overlap

---- Real-time Memory Report at c_bands before calling an iterative solver
           340 MiB given to the printing process from OS
             0 MiB allocation reported by mallinfo(arena+hblkhd)
        118894 MiB available memory on the node where the printing process lives
------------------
     ethr =  7.33E-12,  avg # of iterations =  5.0

     total cpu time spent up to now is      887.0 secs

     End of self-consistent calculation

          k = 0.0000 0.0000 0.0000 ( 23563 PWs)   bands (ev):

   -10.9984 -10.8351 -10.8351 -10.4951 -10.4951 -10.3493 -10.3493 -10.3492
   -10.3182 -10.2914 -10.2914 -10.2914 -10.2914 -10.2914 -10.2914 -10.1868
   -10.1868 -10.1868 -10.1868 -10.1868 -10.1868 -10.1407 -10.1407 -10.1407
     0.9826   0.9826   0.9826   0.9826   0.9826   0.9826   1.0471   1.0471
     1.0471   1.0471   1.0471   1.0471   1.1141   1.1141   1.1141   1.1614
     1.1614   1.2062   1.2062   1.3159   1.3159   1.3230   1.3230   1.3230
     1.3451   1.3451   1.3451   1.3451   1.3565   1.4366   1.4366   1.4366
     1.4366   1.4392   1.5014   1.5014   1.5609   1.5609   1.5609   1.6641
     1.6641   1.6641   1.6641   1.6641   1.6641   1.8687   1.8687   1.8687
     1.8687   1.8687   1.8687   1.8803   1.8803   1.8803   1.8803   1.8803
     1.8803   1.9178   1.9178   1.9178   1.9178   1.9178   1.9178   1.9413
     1.9413   1.9413   1.9538   1.9538   1.9538   2.0753   2.0753   2.0753
     2.4282   2.4282   2.4642   2.4642   2.4642   2.4918   2.4918   2.4918
     2.4918   2.5909   2.5909   2.5909   2.5917   2.5917   2.5917   2.5917
     2.6003   2.6003   2.6003   2.6003   2.6003   2.6003   2.6248   2.6248
     2.6268   2.6268   2.6268   2.6268   2.6268   2.6268   2.6329   2.6329
     2.6329   2.6329   2.6329   2.6329   2.6705   2.6705   2.6705   2.7317
     2.7317   2.7317   2.7317   2.7317   2.7317   2.7417   2.7417   2.7417
     2.8918   3.1456   3.1456   3.1456   3.1456   3.1456   3.1456   3.2047
     3.2047   3.2047   3.2754   3.2754   3.2754   3.2754   3.2754   3.2754
     3.4268   3.4268   3.4268   3.8753   3.8753   4.1406   4.1406   4.1406
     4.7139   4.7140   4.7140   5.0141   5.0141   5.0141   5.0141   5.0141
     5.0141   5.0927   5.0927   5.0927   5.0927   5.0927   5.0927   5.4566
     5.4566   5.6403   5.6403   5.6403   5.7659   5.7659   5.7659   5.7659
     5.7659   5.7659   5.7927   5.7927   5.7927   5.7927   5.7927   5.7927
     6.0830   6.0830   6.0830   6.1251   6.1251   6.3190   6.3190   6.3190
     6.3190   6.7004   6.7004   6.7004   6.7004   6.8050   6.8874   6.8874

     occupation numbers 
     1.0000   1.0000   1.0000   1.0000   1.0000   1.0000   1.0000   1.0000
     1.0000   1.0000   1.0000   1.0000   1.0000   1.0000   1.0000   1.0000
     1.0000   1.0000   1.0000   1.0000   1.0000   1.0000   1.0000   1.0000
     1.0000   1.0000   1.0000   1.0000   1.0000   1.0000   1.0000   1.0000
     1.0000   1.0000   1.0000   1.0000   1.0000   1.0000   1.0000   1.0000
     1.0000   1.0000   1.0000   1.0000   1.0000   1.0000   1.0000   1.0000
     1.0000   1.0000   1.0000   1.0000   1.0000   1.0000   1.0000   1.0000
     1.0000   1.0000   1.0000   1.0000   1.0000   1.0000   1.0000   1.0000
     1.0000   1.0000   1.0000   1.0000   1.0000   1.0000   1.0000   1.0000
     1.0000   1.0000   1.0000   1.0000   1.0000   1.0000   1.0000   1.0000
     1.0000   1.0000   1.0000   1.0000   1.0000   1.0000   1.0000   1.0000
     1.0000   1.0000   1.0000   1.0000   1.0000   1.0000   1.0000   1.0000
     1.0000   1.0000   1.0000   1.0000   1.0000   1.0000   1.0000   1.0000
     1.0000   1.0000   1.0000   1.0000   1.0000   1.0000   1.0000   1.0000
     1.0000   1.0000   1.0000   1.0000   1.0000   1.0000   1.0000   1.0000
     1.0000   1.0000   1.0000   1.0000   1.0000   1.0000   1.0000   1.0000
     1.0000   1.0000   1.0000   1.0000   1.0000   1.0000   1.0000   1.0000
     1.0000   1.0000   1.0000   1.0000   1.0000   1.0000   1.0000   1.0000
     1.0000   1.0000   1.0000   1.0000   1.0000   1.0000   1.0000   1.0000
     1.0000   1.0000   1.0000   1.0000   1.0000   1.0000   1.0000   1.0000
     1.0000   1.0000   1.0000   1.0000   1.0000   1.0000   1.0000   1.0000
     1.0000   1.0000   1.0000   1.0000   1.0000   1.0000   1.0000   1.0000
     1.0000   1.0000   1.0000   1.0000   1.0000   1.0000   1.0000   1.0000
     1.0000   1.0000   1.0000   1.0000   1.0000   1.0000   1.0000   1.0000
     1.0000   1.0000   1.0000   1.0000   1.0000   1.0000   1.0000   1.0000
     1.0000   1.0000   1.0000   1.0000   1.0000   1.0000   1.0000   1.0000
     1.0000   1.0000   1.0000   1.0000   1.0000   1.0000   1.0000   1.0000

          k = 0.0000 0.0000-0.2065 ( 23576 PWs)   bands (ev):

   -10.9551 -10.9551 -10.6674 -10.6674 -10.3661 -10.3661 -10.3334 -10.3334
   -10.3334 -10.3334 -10.3334 -10.3334 -10.2371 -10.2371 -10.2371 -10.2371
   -10.2371 -10.2371 -10.1526 -10.1526 -10.1526 -10.1526 -10.1526 -10.1526
     0.9527   0.9527   0.9527   0.9527   0.9527   0.9527   1.0697   1.0697
     1.0697   1.0698   1.0698   1.0698   1.1297   1.1297   1.2255   1.2255
     1.2255   1.2255   1.2255   1.2255   1.3102   1.3102   1.3169   1.3169
     1.3225   1.3225   1.3225   1.3225   1.3852   1.3852   1.3852   1.3852
     1.4826   1.4826   1.4826   1.4826   1.5871   1.5871   1.5871   1.5871
     1.5872   1.5872   1.7821   1.7821   1.7821   1.7821   1.7821   1.7821
     1.8587   1.8587   1.8587   1.8587   1.8587   1.8587   1.9133   1.9133
     1.9133   1.9133   1.9133   1.9133   1.9195   1.9195   1.9195   1.9195
     1.9195   1.9195   2.0308   2.0308   2.0308   2.0308   2.0308   2.0308
     2.4460   2.4460   2.4460   2.4460   2.5266   2.5266   2.5266   2.5266
     2.5266   2.5266   2.5468   2.5468   2.5468   2.5468   2.5930   2.5930
     2.5930   2.5930   2.5930   2.5930   2.6133   2.6133   2.6133   2.6133
     2.6133   2.6133   2.6172   2.6172   2.6172   2.6172   2.6574   2.6574
     2.6574   2.6574   2.6574   2.6574   2.6978   2.6978   2.6978   2.6978
     2.6978   2.6978   2.7411   2.7411   2.7411   2.7411   2.7411   2.7411
     3.1660   3.1660   3.1660   3.1660   3.1660   3.1660   3.1878   3.1878
     3.1878   3.1878   3.1878   3.1878   3.2007   3.2007   3.3761   3.3762
     3.3762   3.3762   3.3762   3.3762   4.4237   4.4237   4.4237   4.4237
     4.4237   4.4237   4.6601   4.6601   4.8200   4.8200   4.8200   4.8201
     4.8201   4.8201   5.4385   5.4385   5.4385   5.4385   5.4385   5.4385
     5.5539   5.5539   5.5539   5.5539   5.5539   5.5540   5.7267   5.7267
     5.7267   5.7267   5.7267   5.7267   5.9987   5.9987   5.9987   5.9987
     5.9987   5.9987   6.1772   6.1772   6.1772   6.1772   6.2430   6.2430
     6.5108   6.5108   6.5109   6.5109   6.8375   6.8375   6.8375   6.8375

     occupation numbers 
     1.0000   1.0000   1.0000   1.0000   1.0000   1.0000   1.0000   1.0000
     1.0000   1.0000   1.0000   1.0000   1.0000   1.0000   1.0000   1.0000
     1.0000   1.0000   1.0000   1.0000   1.0000   1.0000   1.0000   1.0000
     1.0000   1.0000   1.0000   1.0000   1.0000   1.0000   1.0000   1.0000
     1.0000   1.0000   1.0000   1.0000   1.0000   1.0000   1.0000   1.0000
     1.0000   1.0000   1.0000   1.0000   1.0000   1.0000   1.0000   1.0000
     1.0000   1.0000   1.0000   1.0000   1.0000   1.0000   1.0000   1.0000
     1.0000   1.0000   1.0000   1.0000   1.0000   1.0000   1.0000   1.0000
     1.0000   1.0000   1.0000   1.0000   1.0000   1.0000   1.0000   1.0000
     1.0000   1.0000   1.0000   1.0000   1.0000   1.0000   1.0000   1.0000
     1.0000   1.0000   1.0000   1.0000   1.0000   1.0000   1.0000   1.0000
     1.0000   1.0000   1.0000   1.0000   1.0000   1.0000   1.0000   1.0000
     1.0000   1.0000   1.0000   1.0000   1.0000   1.0000   1.0000   1.0000
     1.0000   1.0000   1.0000   1.0000   1.0000   1.0000   1.0000   1.0000
     1.0000   1.0000   1.0000   1.0000   1.0000   1.0000   1.0000   1.0000
     1.0000   1.0000   1.0000   1.0000   1.0000   1.0000   1.0000   1.0000
     1.0000   1.0000   1.0000   1.0000   1.0000   1.0000   1.0000   1.0000
     1.0000   1.0000   1.0000   1.0000   1.0000   1.0000   1.0000   1.0000
     1.0000   1.0000   1.0000   1.0000   1.0000   1.0000   1.0000   1.0000
     1.0000   1.0000   1.0000   1.0000   1.0000   1.0000   1.0000   1.0000
     1.0000   1.0000   1.0000   1.0000   1.0000   1.0000   1.0000   1.0000
     1.0000   1.0000   1.0000   1.0000   1.0000   1.0000   1.0000   1.0000
     1.0000   1.0000   1.0000   1.0000   1.0000   1.0000   1.0000   1.0000
     1.0000   1.0000   1.0000   1.0000   1.0000   1.0000   1.0000   1.0000
     1.0000   1.0000   1.0000   1.0000   1.0000   1.0000   1.0000   1.0000
     1.0000   1.0000   1.0000   1.0000   1.0000   1.0000   1.0000   1.0000
     1.0000   1.0000   1.0000   1.0000   1.0000   1.0000   1.0000   1.0000

          k = 0.0000 0.3849 0.0000 ( 23652 PWs)   bands (ev):

   -10.8593 -10.7127 -10.7127 -10.5469 -10.4471 -10.4471 -10.4120 -10.4120
   -10.3567 -10.3567 -10.2961 -10.2961 -10.2961 -10.2961 -10.2581 -10.2519
   -10.2519 -10.1858 -10.1858 -10.1858 -10.1858 -10.1574 -10.1367 -10.1367
     0.9559   0.9559   1.0420   1.0820   1.0820   1.0906   1.0906   1.1038
     1.1038   1.1038   1.1038   1.1443   1.1443   1.1787   1.1968   1.1968
     1.1968   1.1968   1.2098   1.2098   1.3780   1.3939   1.4175   1.4331
     1.4332   1.4425   1.4425   1.4530   1.4530   1.4978   1.5196   1.5221
     1.5221   1.5437   1.5437   1.5839   1.5839   1.5839   1.5839   1.5839
     1.5839   1.5967   1.5967   1.6182   1.6647   1.6674   1.6674   1.7197
     1.7338   1.7338   1.7338   1.7338   1.7583   1.7583   1.7846   1.7846
     1.7926   1.7926   1.8904   1.8904   1.8904   1.8904   1.9005   1.9133
     1.9133   1.9133   1.9133   2.0312   2.0460   2.0460   2.1149   2.1149
     2.3484   2.3719   2.4055   2.4055   2.4269   2.4695   2.4695   2.4731
     2.4731   2.4787   2.4787   2.4884   2.4884   2.4958   2.4958   2.4958
     2.4958   2.4988   2.5339   2.5339   2.5677   2.5677   2.5677   2.5677
     2.5935   2.5935   2.6096   2.6096   2.6172   2.6172   2.6358   2.6552
     2.6819   2.6819   2.6836   2.6836   2.6913   2.6913   2.6913   2.6913
     2.7479   2.8116   2.8116   2.8116   2.8116   2.8131   2.8614   2.8732
     2.8732   3.0747   3.0747   3.0838   3.2568   3.2568   3.2568   3.2568
     3.5916   3.5916   3.5916   3.5916   3.6415   3.6415   3.6813   3.6813
     3.7941   3.9343   3.9343   4.0473   4.0473   4.1031   4.1031   4.4220
     4.4220   4.5350   4.5350   4.5350   4.5350   4.6507   4.9084   4.9084
     5.0817   5.0817   5.0817   5.0817   5.0973   5.1229   5.1229   5.2257
     5.3813   5.3814   5.3814   5.3814   5.4185   5.4186   5.5974   5.5974
     5.6135   5.6135   5.7794   5.7885   5.7976   5.7976   5.8448   5.8448
     5.8448   5.8448   5.9793   5.9793   6.0155   6.0155   6.0234   6.0235
     6.0931   6.2837   6.2837   6.3016   6.4801   6.4801   6.6256   6.7030

     occupation numbers 
     1.0000   1.0000   1.0000   1.0000   1.0000   1.0000   1.0000   1.0000
     1.0000   1.0000   1.0000   1.0000   1.0000   1.0000   1.0000   1.0000
     1.0000   1.0000   1.0000   1.0000   1.0000   1.0000   1.0000   1.0000
     1.0000   1.0000   1.0000   1.0000   1.0000   1.0000   1.0000   1.0000
     1.0000   1.0000   1.0000   1.0000   1.0000   1.0000   1.0000   1.0000
     1.0000   1.0000   1.0000   1.0000   1.0000   1.0000   1.0000   1.0000
     1.0000   1.0000   1.0000   1.0000   1.0000   1.0000   1.0000   1.0000
     1.0000   1.0000   1.0000   1.0000   1.0000   1.0000   1.0000   1.0000
     1.0000   1.0000   1.0000   1.0000   1.0000   1.0000   1.0000   1.0000
     1.0000   1.0000   1.0000   1.0000   1.0000   1.0000   1.0000   1.0000
     1.0000   1.0000   1.0000   1.0000   1.0000   1.0000   1.0000   1.0000
     1.0000   1.0000   1.0000   1.0000   1.0000   1.0000   1.0000   1.0000
     1.0000   1.0000   1.0000   1.0000   1.0000   1.0000   1.0000   1.0000
     1.0000   1.0000   1.0000   1.0000   1.0000   1.0000   1.0000   1.0000
     1.0000   1.0000   1.0000   1.0000   1.0000   1.0000   1.0000   1.0000
     1.0000   1.0000   1.0000   1.0000   1.0000   1.0000   1.0000   1.0000
     1.0000   1.0000   1.0000   1.0000   1.0000   1.0000   1.0000   1.0000
     1.0000   1.0000   1.0000   1.0000   1.0000   1.0000   1.0000   1.0000
     1.0000   1.0000   1.0000   1.0000   1.0000   1.0000   1.0000   1.0000
     1.0000   1.0000   1.0000   1.0000   1.0000   1.0000   1.0000   1.0000
     1.0000   1.0000   1.0000   1.0000   1.0000   1.0000   1.0000   1.0000
     1.0000   1.0000   1.0000   1.0000   1.0000   1.0000   1.0000   1.0000
     1.0000   1.0000   1.0000   1.0000   1.0000   1.0000   1.0000   1.0000
     1.0000   1.0000   1.0000   1.0000   1.0000   1.0000   1.0000   1.0000
     1.0000   1.0000   1.0000   1.0000   1.0000   1.0000   1.0000   1.0000
     1.0000   1.0000   1.0000   1.0000   1.0000   1.0000   1.0000   1.0000
     1.0000   1.0000   1.0000   1.0000   1.0000   1.0000   1.0000   1.0000

          k = 0.0000 0.3849-0.2065 ( 23632 PWs)   bands (ev):

   -10.8203 -10.8203 -10.5636 -10.5636 -10.5201 -10.5201 -10.3486 -10.3486
   -10.3401 -10.3401 -10.3401 -10.3401 -10.2996 -10.2995 -10.2391 -10.2391
   -10.2391 -10.2390 -10.1825 -10.1825 -10.1495 -10.1494 -10.1494 -10.1494
     0.9620   0.9620   1.0114   1.0114   1.0549   1.0549   1.0857   1.0857
     1.0857   1.0857   1.1496   1.1496   1.1780   1.1780   1.1780   1.1780
     1.2878   1.2878   1.3367   1.3367   1.3762   1.3762   1.3762   1.3762
     1.4035   1.4035   1.4548   1.4548   1.4698   1.4698   1.4827   1.4827
     1.5395   1.5395   1.5637   1.5637   1.5637   1.5637   1.5905   1.5905
     1.5969   1.5969   1.6623   1.6623   1.6623   1.6623   1.6841   1.6841
     1.6874   1.6874   1.6945   1.6945   1.7730   1.7730   1.7730   1.7730
     1.8597   1.8597   1.8597   1.8597   1.8679   1.8679   1.8969   1.8969
     1.9824   1.9824   1.9824   1.9824   2.0290   2.0290   2.0290   2.0291
     2.3853   2.3853   2.4013   2.4014   2.4172   2.4172   2.4172   2.4172
     2.4440   2.4440   2.5083   2.5083   2.5393   2.5393   2.5393   2.5393
     2.5440   2.5440   2.5485   2.5485   2.5532   2.5532   2.5532   2.5532
     2.5702   2.5702   2.5851   2.5851   2.6255   2.6255   2.6425   2.6425
     2.6724   2.6724   2.6804   2.6804   2.6804   2.6804   2.7390   2.7390
     2.7390   2.7390   2.7606   2.7606   2.8696   2.8696   2.8696   2.8696
     3.1154   3.1154   3.1154   3.1154   3.2560   3.2560   3.3424   3.3424
     3.4275   3.4275   3.4275   3.4275   3.6971   3.6971   3.6971   3.6971
     3.8758   3.8758   3.9351   3.9351   4.2092   4.2092   4.2092   4.2092
     4.6007   4.6007   4.6168   4.6168   4.6168   4.6168   4.6229   4.6229
     4.9299   4.9299   4.9299   4.9299   5.1856   5.1856   5.2750   5.2751
     5.5303   5.5303   5.5972   5.5972   5.5972   5.5973   5.6315   5.6315
     5.6423   5.6423   5.6423   5.6423   5.7224   5.7224   5.7986   5.7986
     5.7986   5.7986   5.8520   5.8520   5.9120   5.9120   6.1085   6.1085
     6.2255   6.2255   6.2537   6.2537   6.5473   6.5473   6.6436   6.6436

     occupation numbers 
     1.0000   1.0000   1.0000   1.0000   1.0000   1.0000   1.0000   1.0000
     1.0000   1.0000   1.0000   1.0000   1.0000   1.0000   1.0000   1.0000
     1.0000   1.0000   1.0000   1.0000   1.0000   1.0000   1.0000   1.0000
     1.0000   1.0000   1.0000   1.0000   1.0000   1.0000   1.0000   1.0000
     1.0000   1.0000   1.0000   1.0000   1.0000   1.0000   1.0000   1.0000
     1.0000   1.0000   1.0000   1.0000   1.0000   1.0000   1.0000   1.0000
     1.0000   1.0000   1.0000   1.0000   1.0000   1.0000   1.0000   1.0000
     1.0000   1.0000   1.0000   1.0000   1.0000   1.0000   1.0000   1.0000
     1.0000   1.0000   1.0000   1.0000   1.0000   1.0000   1.0000   1.0000
     1.0000   1.0000   1.0000   1.0000   1.0000   1.0000   1.0000   1.0000
     1.0000   1.0000   1.0000   1.0000   1.0000   1.0000   1.0000   1.0000
     1.0000   1.0000   1.0000   1.0000   1.0000   1.0000   1.0000   1.0000
     1.0000   1.0000   1.0000   1.0000   1.0000   1.0000   1.0000   1.0000
     1.0000   1.0000   1.0000   1.0000   1.0000   1.0000   1.0000   1.0000
     1.0000   1.0000   1.0000   1.0000   1.0000   1.0000   1.0000   1.0000
     1.0000   1.0000   1.0000   1.0000   1.0000   1.0000   1.0000   1.0000
     1.0000   1.0000   1.0000   1.0000   1.0000   1.0000   1.0000   1.0000
     1.0000   1.0000   1.0000   1.0000   1.0000   1.0000   1.0000   1.0000
     1.0000   1.0000   1.0000   1.0000   1.0000   1.0000   1.0000   1.0000
     1.0000   1.0000   1.0000   1.0000   1.0000   1.0000   1.0000   1.0000
     1.0000   1.0000   1.0000   1.0000   1.0000   1.0000   1.0000   1.0000
     1.0000   1.0000   1.0000   1.0000   1.0000   1.0000   1.0000   1.0000
     1.0000   1.0000   1.0000   1.0000   1.0000   1.0000   1.0000   1.0000
     1.0000   1.0000   1.0000   1.0000   1.0000   1.0000   1.0000   1.0000
     1.0000   1.0000   1.0000   1.0000   1.0000   1.0000   1.0000   1.0000
     1.0000   1.0000   1.0000   1.0000   1.0000   1.0000   1.0000   1.0000
     1.0000   1.0000   1.0000   1.0000   1.0000   1.0000   1.0000   1.0000

          k = 0.3333 0.5774 0.0000 ( 23616 PWs)   bands (ev):

   -10.6322 -10.6322 -10.6322 -10.5178 -10.5178 -10.5178 -10.5178 -10.5178
   -10.5178 -10.2904 -10.2904 -10.2904 -10.2904 -10.2904 -10.2904 -10.1943
   -10.1942 -10.1872 -10.1872 -10.1872 -10.1872 -10.1782 -10.1782 -10.1781
     1.0368   1.0368   1.0368   1.0368   1.0368   1.0368   1.1268   1.1268
     1.1268   1.1268   1.1268   1.1268   1.1448   1.1448   1.1448   1.2800
     1.3347   1.3347   1.3347   1.3917   1.3917   1.4031   1.4031   1.4031
     1.4031   1.5169   1.5169   1.5169   1.5169   1.5169   1.5169   1.5272
     1.5272   1.5272   1.5381   1.5381   1.5381   1.5381   1.5381   1.5381
     1.5845   1.5845   1.5845   1.6688   1.6688   1.6853   1.6853   1.6853
     1.6853   1.6853   1.6853   1.7170   1.7171   1.7417   1.7417   1.7417
     1.7417   1.7417   1.7417   1.8373   1.8373   1.8373   1.9688   1.9688
     1.9688   2.0258   2.0771   2.0771   2.0771   2.0771   2.2690   2.2690
     2.3226   2.3226   2.3226   2.3627   2.4064   2.4064   2.4473   2.4473
     2.4473   2.4607   2.4607   2.4609   2.4609   2.4609   2.4609   2.4609
     2.4609   2.4858   2.5183   2.5183   2.5183   2.5183   2.5183   2.5183
     2.5316   2.5316   2.6056   2.6056   2.6056   2.6056   2.6056   2.6056
     2.6485   2.6485   2.6485   2.6725   2.6725   2.6725   2.6725   2.6725
     2.6725   2.8198   2.8199   2.8199   2.8530   2.8530   2.8530   2.8530
     3.0203   3.0203   3.0203   3.2411   3.2873   3.2873   3.2873   3.2873
     3.4120   3.4120   3.8035   3.8035   3.8659   3.8659   3.8659   3.8659
     3.8659   3.8659   4.4227   4.4227   4.4227   4.4657   4.4657   4.4657
     4.4657   4.4657   4.4657   4.6354   4.6354   4.6354   4.7452   4.7452
     4.9825   4.9825   4.9825   4.9825   4.9825   4.9825   5.0283   5.0283
     5.2182   5.2290   5.2290   5.2290   5.3664   5.3664   5.3664   5.3664
     5.3664   5.3664   5.5234   5.5234   5.5234   5.5234   5.9570   5.9570
     5.9570   5.9570   5.9570   5.9570   6.0904   6.0904   6.0904   6.0904
     6.0904   6.0904   6.2537   6.2537   6.2537   6.2864   6.2864   6.2864

     occupation numbers 
     1.0000   1.0000   1.0000   1.0000   1.0000   1.0000   1.0000   1.0000
     1.0000   1.0000   1.0000   1.0000   1.0000   1.0000   1.0000   1.0000
     1.0000   1.0000   1.0000   1.0000   1.0000   1.0000   1.0000   1.0000
     1.0000   1.0000   1.0000   1.0000   1.0000   1.0000   1.0000   1.0000
     1.0000   1.0000   1.0000   1.0000   1.0000   1.0000   1.0000   1.0000
     1.0000   1.0000   1.0000   1.0000   1.0000   1.0000   1.0000   1.0000
     1.0000   1.0000   1.0000   1.0000   1.0000   1.0000   1.0000   1.0000
     1.0000   1.0000   1.0000   1.0000   1.0000   1.0000   1.0000   1.0000
     1.0000   1.0000   1.0000   1.0000   1.0000   1.0000   1.0000   1.0000
     1.0000   1.0000   1.0000   1.0000   1.0000   1.0000   1.0000   1.0000
     1.0000   1.0000   1.0000   1.0000   1.0000   1.0000   1.0000   1.0000
     1.0000   1.0000   1.0000   1.0000   1.0000   1.0000   1.0000   1.0000
     1.0000   1.0000   1.0000   1.0000   1.0000   1.0000   1.0000   1.0000
     1.0000   1.0000   1.0000   1.0000   1.0000   1.0000   1.0000   1.0000
     1.0000   1.0000   1.0000   1.0000   1.0000   1.0000   1.0000   1.0000
     1.0000   1.0000   1.0000   1.0000   1.0000   1.0000   1.0000   1.0000
     1.0000   1.0000   1.0000   1.0000   1.0000   1.0000   1.0000   1.0000
     1.0000   1.0000   1.0000   1.0000   1.0000   1.0000   1.0000   1.0000
     1.0000   1.0000   1.0000   1.0000   1.0000   1.0000   1.0000   1.0000
     1.0000   1.0000   1.0000   1.0000   1.0000   1.0000   1.0000   1.0000
     1.0000   1.0000   1.0000   1.0000   1.0000   1.0000   1.0000   1.0000
     1.0000   1.0000   1.0000   1.0000   1.0000   1.0000   1.0000   1.0000
     1.0000   1.0000   1.0000   1.0000   1.0000   1.0000   1.0000   1.0000
     1.0000   1.0000   1.0000   1.0000   1.0000   1.0000   1.0000   1.0000
     1.0000   1.0000   1.0000   1.0000   1.0000   1.0000   1.0000   1.0000
     1.0000   1.0000   1.0000   1.0000   1.0000   1.0000   1.0000   1.0000
     1.0000   1.0000   1.0000   1.0000   1.0000   1.0000   1.0000   1.0000

          k = 0.3333 0.5774-0.2065 ( 23610 PWs)   bands (ev):

   -10.6015 -10.6015 -10.6015 -10.6015 -10.6015 -10.6015 -10.4038 -10.4038
   -10.4038 -10.4038 -10.4038 -10.4038 -10.2081 -10.2081 -10.2081 -10.2081
   -10.2081 -10.2081 -10.1919 -10.1919 -10.1919 -10.1919 -10.1848 -10.1848
     1.0209   1.0209   1.0209   1.0209   1.0209   1.0209   1.1086   1.1086
     1.1086   1.1086   1.1086   1.1086   1.2850   1.2850   1.2850   1.2850
     1.2850   1.2850   1.3081   1.3081   1.3212   1.3212   1.5188   1.5188
     1.5188   1.5188   1.5188   1.5188   1.5305   1.5305   1.5328   1.5328
     1.5328   1.5328   1.5328   1.5328   1.5573   1.5573   1.5573   1.5573
     1.5573   1.5573   1.5787   1.5787   1.5787   1.5787   1.6781   1.6781
     1.6781   1.6781   1.6781   1.6781   1.8092   1.8092   1.8092   1.8092
     1.8092   1.8092   1.8094   1.8094   1.8094   1.8094   1.8094   1.8094
     1.9187   1.9187   2.0556   2.0556   2.1585   2.1585   2.1585   2.1585
     2.3642   2.3642   2.3642   2.3642   2.3642   2.3642   2.3793   2.3793
     2.4346   2.4346   2.4789   2.4789   2.4789   2.4789   2.4789   2.4789
     2.4792   2.4792   2.5519   2.5519   2.5519   2.5519   2.5519   2.5519
     2.5835   2.5835   2.5835   2.5835   2.5835   2.5835   2.6363   2.6363
     2.6363   2.6363   2.6363   2.6364   2.6812   2.6812   2.6812   2.6812
     2.7501   2.7501   2.7501   2.7501   2.7501   2.7501   2.9255   2.9255
     3.2429   3.2429   3.3685   3.3685   3.3685   3.3685   3.3752   3.3752
     3.3752   3.3752   3.3752   3.3752   3.4090   3.4090   4.2135   4.2135
     4.2135   4.2135   4.2135   4.2135   4.2827   4.2827   4.5551   4.5551
     4.5551   4.5551   4.5551   4.5551   4.6101   4.6101   4.6101   4.6101
     4.6101   4.6101   5.0893   5.0893   5.1982   5.1982   5.1982   5.1982
     5.2328   5.2328   5.2328   5.2328   5.2328   5.2328   5.5301   5.5301
     5.5301   5.5301   5.5301   5.5301   5.6818   5.6818   5.7236   5.7236
     5.7236   5.7237   5.7237   5.7237   6.1732   6.1732   6.1732   6.1732
     6.1732   6.1732   6.2739   6.2739   6.2739   6.2739   6.2739   6.2739

     occupation numbers 
     1.0000   1.0000   1.0000   1.0000   1.0000   1.0000   1.0000   1.0000
     1.0000   1.0000   1.0000   1.0000   1.0000   1.0000   1.0000   1.0000
     1.0000   1.0000   1.0000   1.0000   1.0000   1.0000   1.0000   1.0000
     1.0000   1.0000   1.0000   1.0000   1.0000   1.0000   1.0000   1.0000
     1.0000   1.0000   1.0000   1.0000   1.0000   1.0000   1.0000   1.0000
     1.0000   1.0000   1.0000   1.0000   1.0000   1.0000   1.0000   1.0000
     1.0000   1.0000   1.0000   1.0000   1.0000   1.0000   1.0000   1.0000
     1.0000   1.0000   1.0000   1.0000   1.0000   1.0000   1.0000   1.0000
     1.0000   1.0000   1.0000   1.0000   1.0000   1.0000   1.0000   1.0000
     1.0000   1.0000   1.0000   1.0000   1.0000   1.0000   1.0000   1.0000
     1.0000   1.0000   1.0000   1.0000   1.0000   1.0000   1.0000   1.0000
     1.0000   1.0000   1.0000   1.0000   1.0000   1.0000   1.0000   1.0000
     1.0000   1.0000   1.0000   1.0000   1.0000   1.0000   1.0000   1.0000
     1.0000   1.0000   1.0000   1.0000   1.0000   1.0000   1.0000   1.0000
     1.0000   1.0000   1.0000   1.0000   1.0000   1.0000   1.0000   1.0000
     1.0000   1.0000   1.0000   1.0000   1.0000   1.0000   1.0000   1.0000
     1.0000   1.0000   1.0000   1.0000   1.0000   1.0000   1.0000   1.0000
     1.0000   1.0000   1.0000   1.0000   1.0000   1.0000   1.0000   1.0000
     1.0000   1.0000   1.0000   1.0000   1.0000   1.0000   1.0000   1.0000
     1.0000   1.0000   1.0000   1.0000   1.0000   1.0000   1.0000   1.0000
     1.0000   1.0000   1.0000   1.0000   1.0000   1.0000   1.0000   1.0000
     1.0000   1.0000   1.0000   1.0000   1.0000   1.0000   1.0000   1.0000
     1.0000   1.0000   1.0000   1.0000   1.0000   1.0000   1.0000   1.0000
     1.0000   1.0000   1.0000   1.0000   1.0000   1.0000   1.0000   1.0000
     1.0000   1.0000   1.0000   1.0000   1.0000   1.0000   1.0000   1.0000
     1.0000   1.0000   1.0000   1.0000   1.0000   1.0000   1.0000   1.0000
     1.0000   1.0000   1.0000   1.0000   1.0000   1.0000   1.0000   1.0000

     highest occupied level (ev):     6.8874

!    total energy              =   -4339.64265498 Ry
     estimated scf accuracy    <          1.1E-09 Ry

     The total energy is the sum of the following terms:
     one-electron contribution =   -1854.30189138 Ry
     hartree contribution      =    1419.46907009 Ry
     xc contribution           =   -1314.55304985 Ry
     ewald contribution        =   -2590.25678384 Ry

     convergence has been achieved in  35 iterations

     Forces acting on atoms (cartesian axes, Ry/au):

     atom    1 type  1   force =     0.00000284    0.00000164    0.00006173
     atom    2 type  1   force =     0.00000000    0.00000025    0.00006637
     atom    3 type  2   force =     0.00000027    0.00000016   -0.00006135
     atom    4 type  2   force =     0.00000000    0.00000030   -0.00006208
     atom    5 type  1   force =     0.00000628    0.00000363    0.00006228
     atom    6 type  1   force =     0.00000000    0.00000217    0.00006481
     atom    7 type  2   force =     0.00000015    0.00000009   -0.00006258
     atom    8 type  2   force =    -0.00000000    0.00000046   -0.00006141
     atom    9 type  1   force =     0.00000392    0.00000227    0.00005698
     atom   10 type  1   force =     0.00000000    0.00000235    0.00005757
     atom   11 type  2   force =    -0.00000013   -0.00000008   -0.00006151
     atom   12 type  2   force =     0.00000000    0.00000028   -0.00006224
     atom   13 type  1   force =     0.00000000   -0.00000000    0.00006187
     atom   14 type  1   force =     0.00000022   -0.00000013    0.00006637
     atom   15 type  2   force =     0.00000000    0.00000000   -0.00006135
     atom   16 type  2   force =     0.00000026   -0.00000015   -0.00006208
     atom   17 type  1   force =     0.00000000   -0.00000000    0.00006290
     atom   18 type  1   force =     0.00000188   -0.00000108    0.00006481
     atom   19 type  2   force =     0.00000000    0.00000000   -0.00006269
     atom   20 type  2   force =     0.00000040   -0.00000023   -0.00006141
     atom   21 type  1   force =     0.00000000   -0.00000000    0.00005690
     atom   22 type  1   force =     0.00000204   -0.00000118    0.00005757
     atom   23 type  2   force =     0.00000000    0.00000000   -0.00006148
     atom   24 type  2   force =     0.00000025   -0.00000014   -0.00006224
     atom   25 type  1   force =    -0.00000284    0.00000164    0.00006173
     atom   26 type  1   force =    -0.00000000   -0.00000000    0.00006499
     atom   27 type  2   force =    -0.00000027    0.00000016   -0.00006135
     atom   28 type  2   force =     0.00000000    0.00000000   -0.00006171
     atom   29 type  1   force =    -0.00000628    0.00000363    0.00006228
     atom   30 type  1   force =     0.00000000    0.00000000    0.00006837
     atom   31 type  2   force =    -0.00000015    0.00000009   -0.00006258
     atom   32 type  2   force =     0.00000000    0.00000000   -0.00006110
     atom   33 type  1   force =    -0.00000392    0.00000227    0.00005698
     atom   34 type  1   force =     0.00000000    0.00000000    0.00005948
     atom   35 type  2   force =     0.00000013   -0.00000008   -0.00006151
     atom   36 type  2   force =     0.00000000    0.00000000   -0.00006192
     atom   37 type  1   force =     0.00000000   -0.00000328    0.00006173
     atom   38 type  1   force =    -0.00000022   -0.00000013    0.00006637
     atom   39 type  2   force =    -0.00000000   -0.00000031   -0.00006135
     atom   40 type  2   force =    -0.00000026   -0.00000015   -0.00006208
     atom   41 type  1   force =     0.00000000   -0.00000725    0.00006228
     atom   42 type  1   force =    -0.00000188   -0.00000108    0.00006481
     atom   43 type  2   force =     0.00000000   -0.00000018   -0.00006258
     atom   44 type  2   force =    -0.00000040   -0.00000023   -0.00006141
     atom   45 type  1   force =     0.00000000   -0.00000453    0.00005698
     atom   46 type  1   force =    -0.00000204   -0.00000118    0.00005757
     atom   47 type  2   force =     0.00000000    0.00000015   -0.00006151
     atom   48 type  2   force =    -0.00000025   -0.00000014   -0.00006224
     The non-local contrib.  to forces
     atom    1 type  1   force =     0.00000099    0.00000057   -0.00483200
     atom    2 type  1   force =     0.00000000    0.00000060   -0.00483191
     atom    3 type  2   force =    -0.00000079   -0.00000045    0.00575409
     atom    4 type  2   force =     0.00000000   -0.00000042    0.00575326
     atom    5 type  1   force =     0.00000185    0.00000107   -0.00483213
     atom    6 type  1   force =    -0.00000000    0.00000111   -0.00483206
     atom    7 type  2   force =    -0.00000090   -0.00000052    0.00575536
     atom    8 type  2   force =     0.00000000   -0.00000067    0.00575398
     atom    9 type  1   force =     0.00000105    0.00000061   -0.00483448
     atom   10 type  1   force =     0.00000000    0.00000096   -0.00483391
     atom   11 type  2   force =    -0.00000081   -0.00000047    0.00575404
     atom   12 type  2   force =     0.00000000   -0.00000048    0.00575465
     atom   13 type  1   force =     0.00000000    0.00000000   -0.00483236
     atom   14 type  1   force =     0.00000052   -0.00000030   -0.00483191
     atom   15 type  2   force =     0.00000000   -0.00000000    0.00575447
     atom   16 type  2   force =    -0.00000037    0.00000021    0.00575326
     atom   17 type  1   force =     0.00000000    0.00000000   -0.00483284
     atom   18 type  1   force =     0.00000096   -0.00000055   -0.00483206
     atom   19 type  2   force =     0.00000000    0.00000000    0.00575580
     atom   20 type  2   force =    -0.00000058    0.00000033    0.00575398
     atom   21 type  1   force =     0.00000000    0.00000000   -0.00483472
     atom   22 type  1   force =     0.00000083   -0.00000048   -0.00483391
     atom   23 type  2   force =     0.00000000   -0.00000000    0.00575419
     atom   24 type  2   force =    -0.00000042    0.00000024    0.00575465
     atom   25 type  1   force =    -0.00000099    0.00000057   -0.00483200
     atom   26 type  1   force =     0.00000000    0.00000000   -0.00483305
     atom   27 type  2   force =     0.00000079   -0.00000045    0.00575409
     atom   28 type  2   force =     0.00000000    0.00000000    0.00575340
     atom   29 type  1   force =    -0.00000185    0.00000107   -0.00483213
     atom   30 type  1   force =     0.00000000    0.00000000   -0.00483240
     atom   31 type  2   force =     0.00000090   -0.00000052    0.00575536
     atom   32 type  2   force =     0.00000000    0.00000000    0.00575521
     atom   33 type  1   force =    -0.00000105    0.00000061   -0.00483448
     atom   34 type  1   force =     0.00000000   -0.00000000   -0.00483441
     atom   35 type  2   force =     0.00000081   -0.00000047    0.00575404
     atom   36 type  2   force =     0.00000000    0.00000000    0.00575548
     atom   37 type  1   force =    -0.00000000   -0.00000115   -0.00483200
     atom   38 type  1   force =    -0.00000052   -0.00000030   -0.00483191
     atom   39 type  2   force =     0.00000000    0.00000091    0.00575409
     atom   40 type  2   force =     0.00000037    0.00000021    0.00575326
     atom   41 type  1   force =     0.00000000   -0.00000214   -0.00483213
     atom   42 type  1   force =    -0.00000096   -0.00000055   -0.00483206
     atom   43 type  2   force =     0.00000000    0.00000104    0.00575536
     atom   44 type  2   force =     0.00000058    0.00000033    0.00575398
     atom   45 type  1   force =    -0.00000000   -0.00000122   -0.00483448
     atom   46 type  1   force =    -0.00000083   -0.00000048   -0.00483391
     atom   47 type  2   force =     0.00000000    0.00000093    0.00575404
     atom   48 type  2   force =     0.00000042    0.00000024    0.00575465
     The ionic contribution  to forces
     atom    1 type  1   force =    -0.00000000    0.00000001    0.06271746
     atom    2 type  1   force =     0.00000000    0.00000001    0.06271750
     atom    3 type  2   force =    -0.00000000    0.00000001   -0.06271747
     atom    4 type  2   force =     0.00000000    0.00000000   -0.06271748
     atom    5 type  1   force =    -0.00000000    0.00000001    0.06271750
     atom    6 type  1   force =     0.00000000    0.00000001    0.06271746
     atom    7 type  2   force =    -0.00000000    0.00000001   -0.06271748
     atom    8 type  2   force =     0.00000000    0.00000000   -0.06271746
     atom    9 type  1   force =    -0.00000000    0.00000001    0.06271746
     atom   10 type  1   force =     0.00000000    0.00000001    0.06271746
     atom   11 type  2   force =    -0.00000000    0.00000001   -0.06271746
     atom   12 type  2   force =     0.00000000    0.00000000   -0.06271747
     atom   13 type  1   force =     0.00000000   -0.00000000    0.06271746
     atom   14 type  1   force =    -0.00000000   -0.00000002    0.06271750
     atom   15 type  2   force =     0.00000000   -0.00000000   -0.06271747
     atom   16 type  2   force =    -0.00000000   -0.00000001   -0.06271748
     atom   17 type  1   force =     0.00000000   -0.00000000    0.06271749
     atom   18 type  1   force =    -0.00000000   -0.00000002    0.06271746
     atom   19 type  2   force =     0.00000000   -0.00000000   -0.06271748
     atom   20 type  2   force =    -0.00000000   -0.00000001   -0.06271746
     atom   21 type  1   force =     0.00000000   -0.00000000    0.06271745
     atom   22 type  1   force =    -0.00000000   -0.00000002    0.06271746
     atom   23 type  2   force =     0.00000000   -0.00000000   -0.06271746
     atom   24 type  2   force =    -0.00000000   -0.00000001   -0.06271747
     atom   25 type  1   force =    -0.00000000    0.00000001    0.06271746
     atom   26 type  1   force =     0.00000000    0.00000001    0.06271750
     atom   27 type  2   force =    -0.00000000    0.00000001   -0.06271747
     atom   28 type  2   force =     0.00000000    0.00000000   -0.06271748
     atom   29 type  1   force =    -0.00000000    0.00000001    0.06271750
     atom   30 type  1   force =     0.00000000    0.00000001    0.06271746
     atom   31 type  2   force =    -0.00000000    0.00000001   -0.06271748
     atom   32 type  2   force =     0.00000000    0.00000000   -0.06271746
     atom   33 type  1   force =    -0.00000000    0.00000001    0.06271746
     atom   34 type  1   force =     0.00000000    0.00000001    0.06271746
     atom   35 type  2   force =    -0.00000000    0.00000001   -0.06271746
     atom   36 type  2   force =     0.00000000    0.00000000   -0.06271747
     atom   37 type  1   force =     0.00000000   -0.00000000    0.06271746
     atom   38 type  1   force =    -0.00000000   -0.00000002    0.06271750
     atom   39 type  2   force =     0.00000000   -0.00000000   -0.06271747
     atom   40 type  2   force =    -0.00000000   -0.00000001   -0.06271748
     atom   41 type  1   force =     0.00000000   -0.00000000    0.06271749
     atom   42 type  1   force =    -0.00000000   -0.00000002    0.06271746
     atom   43 type  2   force =     0.00000000   -0.00000000   -0.06271748
     atom   44 type  2   force =    -0.00000000   -0.00000001   -0.06271746
     atom   45 type  1   force =     0.00000000   -0.00000000    0.06271745
     atom   46 type  1   force =    -0.00000000   -0.00000002    0.06271746
     atom   47 type  2   force =     0.00000000   -0.00000000   -0.06271746
     atom   48 type  2   force =    -0.00000000   -0.00000001   -0.06271747
     The local contribution  to forces
     atom    1 type  1   force =    -0.00000344   -0.00000189   -0.05828883
     atom    2 type  1   force =     0.00000009   -0.00000085   -0.05829379
     atom    3 type  2   force =    -0.00000244   -0.00000138    0.05696319
     atom    4 type  2   force =     0.00000002   -0.00000238    0.05696456
     atom    5 type  1   force =    -0.00000826   -0.00000467   -0.05828861
     atom    6 type  1   force =     0.00000009   -0.00000324   -0.05829178
     atom    7 type  2   force =    -0.00000144   -0.00000081    0.05696824
     atom    8 type  2   force =     0.00000002   -0.00000254    0.05696321
     atom    9 type  1   force =    -0.00000552   -0.00000309   -0.05828203
     atom   10 type  1   force =     0.00000009   -0.00000375   -0.05828412
     atom   11 type  2   force =     0.00000052    0.00000033    0.05696338
     atom   12 type  2   force =     0.00000002   -0.00000242    0.05696700
     atom   13 type  1   force =     0.00000000    0.00000010   -0.05828909
     atom   14 type  1   force =    -0.00000078    0.00000035   -0.05829379
     atom   15 type  2   force =     0.00000000    0.00000003    0.05696431
     atom   16 type  2   force =    -0.00000207    0.00000117    0.05696456
     atom   17 type  1   force =     0.00000000    0.00000010   -0.05829017
     atom   18 type  1   force =    -0.00000285    0.00000155   -0.05829178
     atom   19 type  2   force =     0.00000000    0.00000003    0.05696849
     atom   20 type  2   force =    -0.00000222    0.00000125    0.05696321
     atom   21 type  1   force =     0.00000000    0.00000010   -0.05828226
     atom   22 type  1   force =    -0.00000329    0.00000180   -0.05828412
     atom   23 type  2   force =     0.00000000    0.00000003    0.05696476
     atom   24 type  2   force =    -0.00000210    0.00000119    0.05696700
     atom   25 type  1   force =     0.00000344   -0.00000189   -0.05828883
     atom   26 type  1   force =     0.00000009    0.00000005   -0.05829257
     atom   27 type  2   force =     0.00000244   -0.00000138    0.05696319
     atom   28 type  2   force =     0.00000002    0.00000001    0.05696430
     atom   29 type  1   force =     0.00000826   -0.00000467   -0.05828861
     atom   30 type  1   force =     0.00000009    0.00000005   -0.05829619
     atom   31 type  2   force =     0.00000144   -0.00000081    0.05696824
     atom   32 type  2   force =     0.00000002    0.00000001    0.05696186
     atom   33 type  1   force =     0.00000552   -0.00000309   -0.05828203
     atom   34 type  1   force =     0.00000009    0.00000005   -0.05828725
     atom   35 type  2   force =    -0.00000052    0.00000033    0.05696338
     atom   36 type  2   force =     0.00000002    0.00000001    0.05696834
     atom   37 type  1   force =     0.00000000    0.00000407   -0.05828883
     atom   38 type  1   force =     0.00000078    0.00000035   -0.05829379
     atom   39 type  2   force =     0.00000000    0.00000284    0.05696319
     atom   40 type  2   force =     0.00000207    0.00000117    0.05696456
     atom   41 type  1   force =     0.00000000    0.00000963   -0.05828861
     atom   42 type  1   force =     0.00000285    0.00000155   -0.05829178
     atom   43 type  2   force =     0.00000000    0.00000169    0.05696824
     atom   44 type  2   force =     0.00000221    0.00000125    0.05696321
     atom   45 type  1   force =     0.00000000    0.00000647   -0.05828203
     atom   46 type  1   force =     0.00000329    0.00000180   -0.05828412
     atom   47 type  2   force =     0.00000000   -0.00000058    0.05696338
     atom   48 type  2   force =     0.00000210    0.00000119    0.05696700
     The core correction contribution to forces
     atom    1 type  1   force =     0.00000002    0.00000002    0.00046397
     atom    2 type  1   force =     0.00000001   -0.00000001    0.00046410
     atom    3 type  2   force =     0.00000000    0.00000000   -0.00006503
     atom    4 type  2   force =    -0.00000000    0.00000000   -0.00006502
     atom    5 type  1   force =     0.00000013    0.00000009    0.00046392
     atom    6 type  1   force =     0.00000001    0.00000002    0.00046403
     atom    7 type  2   force =     0.00000001    0.00000001   -0.00006504
     atom    8 type  2   force =    -0.00000000    0.00000000   -0.00006504
     atom    9 type  1   force =     0.00000012    0.00000008    0.00046394
     atom   10 type  1   force =     0.00000001    0.00000006    0.00046400
     atom   11 type  2   force =     0.00000001    0.00000001   -0.00006503
     atom   12 type  2   force =    -0.00000000    0.00000000   -0.00006504
     atom   13 type  1   force =    -0.00000000    0.00000001    0.00046402
     atom   14 type  1   force =    -0.00000002   -0.00000000    0.00046410
     atom   15 type  2   force =     0.00000000   -0.00000000   -0.00006504
     atom   16 type  2   force =     0.00000000   -0.00000000   -0.00006502
     atom   17 type  1   force =    -0.00000000    0.00000001    0.00046407
     atom   18 type  1   force =     0.00000001   -0.00000002    0.00046403
     atom   19 type  2   force =     0.00000000   -0.00000000   -0.00006504
     atom   20 type  2   force =     0.00000000   -0.00000000   -0.00006504
     atom   21 type  1   force =    -0.00000000    0.00000001    0.00046397
     atom   22 type  1   force =     0.00000005   -0.00000004    0.00046400
     atom   23 type  2   force =     0.00000000   -0.00000000   -0.00006503
     atom   24 type  2   force =     0.00000000   -0.00000000   -0.00006504
     atom   25 type  1   force =    -0.00000002    0.00000002    0.00046397
     atom   26 type  1   force =     0.00000001    0.00000001    0.00046418
     atom   27 type  2   force =    -0.00000000    0.00000000   -0.00006503
     atom   28 type  2   force =    -0.00000000   -0.00000000   -0.00006502
     atom   29 type  1   force =    -0.00000013    0.00000009    0.00046392
     atom   30 type  1   force =     0.00000001    0.00000001    0.00046424
     atom   31 type  2   force =    -0.00000001    0.00000001   -0.00006504
     atom   32 type  2   force =    -0.00000000   -0.00000000   -0.00006505
     atom   33 type  1   force =    -0.00000012    0.00000008    0.00046394
     atom   34 type  1   force =     0.00000001    0.00000001    0.00046418
     atom   35 type  2   force =    -0.00000001    0.00000001   -0.00006503
     atom   36 type  2   force =    -0.00000000   -0.00000000   -0.00006504
     atom   37 type  1   force =    -0.00000000   -0.00000001    0.00046397
     atom   38 type  1   force =     0.00000002   -0.00000000    0.00046410
     atom   39 type  2   force =     0.00000000   -0.00000001   -0.00006503
     atom   40 type  2   force =    -0.00000000   -0.00000000   -0.00006502
     atom   41 type  1   force =    -0.00000000   -0.00000014    0.00046392
     atom   42 type  1   force =    -0.00000001   -0.00000002    0.00046403
     atom   43 type  2   force =     0.00000000   -0.00000001   -0.00006504
     atom   44 type  2   force =    -0.00000000   -0.00000000   -0.00006504
     atom   45 type  1   force =    -0.00000000   -0.00000012    0.00046394
     atom   46 type  1   force =    -0.00000005   -0.00000004    0.00046400
     atom   47 type  2   force =     0.00000000   -0.00000002   -0.00006503
     atom   48 type  2   force =    -0.00000000   -0.00000000   -0.00006504
     The Hubbard contrib.    to forces
     atom    1 type  1   force =     0.00000000    0.00000000    0.00000000
     atom    2 type  1   force =     0.00000000    0.00000000    0.00000000
     atom    3 type  2   force =     0.00000000    0.00000000    0.00000000
     atom    4 type  2   force =     0.00000000    0.00000000    0.00000000
     atom    5 type  1   force =     0.00000000    0.00000000    0.00000000
     atom    6 type  1   force =     0.00000000    0.00000000    0.00000000
     atom    7 type  2   force =     0.00000000    0.00000000    0.00000000
     atom    8 type  2   force =     0.00000000    0.00000000    0.00000000
     atom    9 type  1   force =     0.00000000    0.00000000    0.00000000
     atom   10 type  1   force =     0.00000000    0.00000000    0.00000000
     atom   11 type  2   force =     0.00000000    0.00000000    0.00000000
     atom   12 type  2   force =     0.00000000    0.00000000    0.00000000
     atom   13 type  1   force =     0.00000000    0.00000000    0.00000000
     atom   14 type  1   force =     0.00000000    0.00000000    0.00000000
     atom   15 type  2   force =     0.00000000    0.00000000    0.00000000
     atom   16 type  2   force =     0.00000000    0.00000000    0.00000000
     atom   17 type  1   force =     0.00000000    0.00000000    0.00000000
     atom   18 type  1   force =     0.00000000    0.00000000    0.00000000
     atom   19 type  2   force =     0.00000000    0.00000000    0.00000000
     atom   20 type  2   force =     0.00000000    0.00000000    0.00000000
     atom   21 type  1   force =     0.00000000    0.00000000    0.00000000
     atom   22 type  1   force =     0.00000000    0.00000000    0.00000000
     atom   23 type  2   force =     0.00000000    0.00000000    0.00000000
     atom   24 type  2   force =     0.00000000    0.00000000    0.00000000
     atom   25 type  1   force =     0.00000000    0.00000000    0.00000000
     atom   26 type  1   force =     0.00000000    0.00000000    0.00000000
     atom   27 type  2   force =     0.00000000    0.00000000    0.00000000
     atom   28 type  2   force =     0.00000000    0.00000000    0.00000000
     atom   29 type  1   force =     0.00000000    0.00000000    0.00000000
     atom   30 type  1   force =     0.00000000    0.00000000    0.00000000
     atom   31 type  2   force =     0.00000000    0.00000000    0.00000000
     atom   32 type  2   force =     0.00000000    0.00000000    0.00000000
     atom   33 type  1   force =     0.00000000    0.00000000    0.00000000
     atom   34 type  1   force =     0.00000000    0.00000000    0.00000000
     atom   35 type  2   force =     0.00000000    0.00000000    0.00000000
     atom   36 type  2   force =     0.00000000    0.00000000    0.00000000
     atom   37 type  1   force =     0.00000000    0.00000000    0.00000000
     atom   38 type  1   force =     0.00000000    0.00000000    0.00000000
     atom   39 type  2   force =     0.00000000    0.00000000    0.00000000
     atom   40 type  2   force =     0.00000000    0.00000000    0.00000000
     atom   41 type  1   force =     0.00000000    0.00000000    0.00000000
     atom   42 type  1   force =     0.00000000    0.00000000    0.00000000
     atom   43 type  2   force =     0.00000000    0.00000000    0.00000000
     atom   44 type  2   force =     0.00000000    0.00000000    0.00000000
     atom   45 type  1   force =     0.00000000    0.00000000    0.00000000
     atom   46 type  1   force =     0.00000000    0.00000000    0.00000000
     atom   47 type  2   force =     0.00000000    0.00000000    0.00000000
     atom   48 type  2   force =     0.00000000    0.00000000    0.00000000
     The SCF correction term to forces
     atom    1 type  1   force =     0.00000527    0.00000304   -0.00000019
     atom    2 type  1   force =     0.00000000    0.00000051    0.00000915
     atom    3 type  2   force =     0.00000349    0.00000201    0.00000256
     atom    4 type  2   force =     0.00000000    0.00000310    0.00000128
     atom    5 type  1   force =     0.00001255    0.00000724    0.00000029
     atom    6 type  1   force =     0.00000000    0.00000427    0.00000585
     atom    7 type  2   force =     0.00000249    0.00000144   -0.00000498
     atom    8 type  2   force =     0.00000000    0.00000366    0.00000257
     atom    9 type  1   force =     0.00000827    0.00000477   -0.00000923
     atom   10 type  1   force =     0.00000000    0.00000507   -0.00000718
     atom   11 type  2   force =     0.00000014    0.00000008    0.00000224
     atom   12 type  2   force =     0.00000000    0.00000318   -0.00000270
     atom   13 type  1   force =     0.00000000    0.00000000    0.00000052
     atom   14 type  1   force =     0.00000044   -0.00000025    0.00000915
     atom   15 type  2   force =     0.00000000    0.00000000    0.00000105
     atom   16 type  2   force =     0.00000268   -0.00000155    0.00000128
     atom   17 type  1   force =     0.00000000    0.00000000    0.00000302
     atom   18 type  1   force =     0.00000370   -0.00000214    0.00000585
     atom   19 type  2   force =     0.00000000    0.00000000   -0.00000579
     atom   20 type  2   force =     0.00000317   -0.00000183    0.00000257
     atom   21 type  1   force =     0.00000000    0.00000000   -0.00000887
     atom   22 type  1   force =     0.00000439   -0.00000254   -0.00000718
     atom   23 type  2   force =     0.00000000    0.00000000    0.00000073
     atom   24 type  2   force =     0.00000275   -0.00000159   -0.00000270
     atom   25 type  1   force =    -0.00000527    0.00000304   -0.00000019
     atom   26 type  1   force =     0.00000000    0.00000000    0.00000761
     atom   27 type  2   force =    -0.00000349    0.00000201    0.00000256
     atom   28 type  2   force =     0.00000000    0.00000000    0.00000177
     atom   29 type  1   force =    -0.00001255    0.00000724    0.00000029
     atom   30 type  1   force =     0.00000000    0.00000000    0.00001394
     atom   31 type  2   force =    -0.00000249    0.00000144   -0.00000498
     atom   32 type  2   force =     0.00000000    0.00000000    0.00000302
     atom   33 type  1   force =    -0.00000827    0.00000477   -0.00000923
     atom   34 type  1   force =     0.00000000    0.00000000   -0.00000181
     atom   35 type  2   force =    -0.00000014    0.00000008    0.00000224
     atom   36 type  2   force =     0.00000000    0.00000000   -0.00000455
     atom   37 type  1   force =     0.00000000   -0.00000608   -0.00000019
     atom   38 type  1   force =    -0.00000044   -0.00000025    0.00000915
     atom   39 type  2   force =     0.00000000   -0.00000403    0.00000256
     atom   40 type  2   force =    -0.00000268   -0.00000155    0.00000128
     atom   41 type  1   force =     0.00000000   -0.00001449    0.00000029
     atom   42 type  1   force =    -0.00000370   -0.00000214    0.00000585
     atom   43 type  2   force =     0.00000000   -0.00000287   -0.00000498
     atom   44 type  2   force =    -0.00000317   -0.00000183    0.00000257
     atom   45 type  1   force =     0.00000000   -0.00000955   -0.00000923
     atom   46 type  1   force =    -0.00000439   -0.00000254   -0.00000718
     atom   47 type  2   force =     0.00000000   -0.00000016    0.00000224
     atom   48 type  2   force =    -0.00000275   -0.00000159   -0.00000270

     Total force =     0.000429     Total SCF correction =     0.000051
     SCF correction compared to forces is large: reduce conv_thr to get better values

     init_run     :     18.44s CPU     17.19s WALL (       1 calls)
     electrons    :   1130.63s CPU    869.38s WALL (       1 calls)
     forces       :     11.94s CPU     10.79s WALL (       1 calls)

     Called by init_run:
     wfcinit      :      6.96s CPU      5.48s WALL (       1 calls)
     wfcinit:atom :      0.05s CPU      0.06s WALL (       1 calls)
     wfcinit:wfcr :      6.67s CPU      5.14s WALL (       1 calls)
     potinit      :      5.98s CPU      6.11s WALL (       1 calls)
     hinit0       :      5.01s CPU      5.05s WALL (       1 calls)

     Called by electrons:
     c_bands      :   1021.29s CPU    769.08s WALL (      35 calls)
     sum_band     :     79.63s CPU     69.90s WALL (      35 calls)
     v_of_rho     :     16.06s CPU     16.76s WALL (      36 calls)
     v_h          :      1.15s CPU      1.23s WALL (      36 calls)
     v_xc         :     15.32s CPU     15.98s WALL (      37 calls)
     newd         :      9.70s CPU      9.66s WALL (      36 calls)
     mix_rho      :      2.31s CPU      2.38s WALL (      35 calls)

     Called by c_bands:
     init_us_2    :      2.58s CPU      2.45s WALL (      71 calls)
     init_us_2:cp :      2.58s CPU      2.45s WALL (      71 calls)
     cegterg      :    927.50s CPU    676.15s WALL (      35 calls)

     Called by sum_band:
     sum_band:wei :      0.02s CPU      0.02s WALL (      35 calls)
     sum_band:loo :     65.59s CPU     56.99s WALL (      35 calls)
     sum_band:buf :      0.00s CPU      0.00s WALL (      35 calls)
     sum_band:ini :      1.15s CPU      1.15s WALL (      35 calls)
     sum_band:cal :     24.28s CPU     14.20s WALL (      35 calls)
     sum_band:bec :      0.10s CPU      0.08s WALL (      35 calls)
     addusdens    :      9.34s CPU      8.35s WALL (      35 calls)
                                        0.00s GPU  (      35 calls)
     addusd:skk   :      0.33s CPU      0.28s WALL (      70 calls)
                                        0.00s GPU  (      70 calls)

     Called by *egterg:
     cdiaghg      :     79.10s CPU     66.66s WALL (     271 calls)
     cegterg:over :     91.35s CPU     54.11s WALL (     236 calls)
     cegterg:upda :     60.70s CPU     36.05s WALL (     236 calls)
     cegterg:last :    151.55s CPU     90.26s WALL (     133 calls)
     cdiaghg:chol :      1.73s CPU      1.47s WALL (     271 calls)
     cdiaghg:inve :      0.93s CPU      0.62s WALL (     271 calls)
     cdiaghg:para :     11.82s CPU      8.57s WALL (     542 calls)
     h_psi        :    432.01s CPU    359.75s WALL (     272 calls)
     s_psi        :     96.54s CPU     56.49s WALL (     272 calls)
     g_psi        :      1.68s CPU      1.39s WALL (     236 calls)

     Called by h_psi:
     h_psi:calbec :     97.90s CPU     57.98s WALL (     272 calls)
     vloc_psi     :    235.36s CPU    242.50s WALL (     272 calls)
     add_vuspsi   :     97.33s CPU     56.96s WALL (     272 calls)

     General routines
     calbec       :    124.98s CPU     73.83s WALL (     311 calls)
     fft          :     10.68s CPU     11.36s WALL (     477 calls)
     ffts         :      0.68s CPU      0.69s WALL (      71 calls)
     fftw         :    216.76s CPU    224.59s WALL (   65366 calls)
     interpolate  :      1.33s CPU      1.43s WALL (      36 calls)

     Parallel routines

     PWSCF        :  19m21.50s CPU  14m57.89s WALL


   This run was terminated on:   8:44:47   2Aug2025            

=------------------------------------------------------------------------------=
   JOB DONE.
=------------------------------------------------------------------------------=
Note: The following floating-point exceptions are signalling: IEEE_INVALID_FLAG
Note: The following floating-point exceptions are signalling: IEEE_INVALID_FLAG
Note: The following floating-point exceptions are signalling: IEEE_INVALID_FLAG
Note: The following floating-point exceptions are signalling: IEEE_INVALID_FLAG
Note: The following floating-point exceptions are signalling: IEEE_INVALID_FLAG
Note: The following floating-point exceptions are signalling: IEEE_DENORMAL
Note: The following floating-point exceptions are signalling: IEEE_INVALID_FLAG
Note: The following floating-point exceptions are signalling: IEEE_DENORMAL
Note: The following floating-point exceptions are signalling: IEEE_DENORMAL
Note: The following floating-point exceptions are signalling: IEEE_INVALID_FLAG
Note: The following floating-point exceptions are signalling: IEEE_INVALID_FLAG
