
     Program PWSCF v.7.0 starts on 26Aug2025 at 14:11: 0 

     This program is part of the open-source Quantum ESPRESSO suite
     for quantum simulation of materials; please cite
         "P. Giannozzi et al., J. Phys.:Condens. Matter 21 395502 (2009);
         "P. Giannozzi et al., J. Phys.:Condens. Matter 29 465901 (2017);
         "P. Giannozzi et al., J. Chem. Phys. 152 154105 (2020);
          URL http://www.quantum-espresso.org", 
     in publications or presentations arising from this work. More details at
     http://www.quantum-espresso.org/quote

     Parallel version (MPI & OpenMP), running on      16 processor cores
     Number of MPI processes:                16
     Threads/MPI process:                     1

     MPI processes distributed on     1 nodes
     K-points division:     npool     =       4
     band groups division:  nbgrp     =       4
     107306 MiB available memory on the printing compute node when the environment starts

     Reading input from /home/jvc/QEspresso7.2/ZnO_database/scripts/cell211.in/ZnO-3.01-1.58-211.in
Warning: card &CELL ignored
Warning: card / ignored
Warning: card &FCP ignored
Warning: card / ignored
Warning: card &RISM ignored
Warning: card / ignored

     Current dimensions of program PWSCF are:
     Max number of different atomic species (ntypx) = 10
     Max number of k-points (npk) =  40000
     Max angular momentum in pseudopotentials (lmaxx) =  4
     file Zn.upf: wavefunction(s)  3D renormalized
     Found identity + ( -0.5000  0.0000  0.0000) symmetry
     This is a supercell, fractional translations are disabled
     Message from routine setup:
     using ibrav=0 with symmetry is DISCOURAGED, use correct ibrav instead

     Subspace diagonalization in iterative solution of the eigenvalue problem:
     a serial algorithm will be used


     G-vector sticks info
     --------------------
     sticks:   dense  smooth     PW     G-vecs:    dense   smooth      PW
     Sum        1783     889    291                67935    24017    4333

     Using Slab Decomposition



     bravais-lattice index     =            0
     lattice parameter (alat)  =      11.3691  a.u.
     unit-cell volume          =     503.3545 (a.u.)^3
     number of atoms/cell      =            8
     number of atomic types    =            2
     number of electrons       =        72.00
     number of Kohn-Sham states=           36
     kinetic-energy cutoff     =      50.0000  Ry
     charge density cutoff     =     400.0000  Ry
     scf convergence threshold =      1.0E-08
     mixing beta               =       0.3000
     number of iterations used =            8  plain     mixing
     Exchange-correlation= PBE
                           (   1   4   3   4   0   0   0)

     celldm(1)=  11.369091  celldm(2)=   0.000000  celldm(3)=   0.000000
     celldm(4)=   0.000000  celldm(5)=   0.000000  celldm(6)=   0.000000

     crystal axes: (cart. coord. in units of alat)
               a(1) = (   1.000000   0.000000   0.000000 )  
               a(2) = (  -0.250000   0.433013   0.000000 )  
               a(3) = (   0.000000   0.000000   0.791036 )  

     reciprocal axes: (cart. coord. in units 2 pi/alat)
               b(1) = (  1.000000  0.577350 -0.000000 )  
               b(2) = (  0.000000  2.309401  0.000000 )  
               b(3) = (  0.000000 -0.000000  1.264166 )  


     PseudoPot. # 1 for Zn read from file:
     /home/jvc/QEspresso7.2/ZnO_database/pseudos/Zn.upf
     MD5 check sum: 7f56cabf9682ed8c977c2f7d0c5985c5
     Pseudo is Ultrasoft + core correction, Zval = 12.0
     Generated using &quot;atomic&quot; code by A. Dal Corso  v.6.2.2
     Using radial grid of 1201 points,  6 beta functions with: 
                l(1) =   0
                l(2) =   0
                l(3) =   1
                l(4) =   1
                l(5) =   2
                l(6) =   2
     Q(r) pseudized with 0 coefficients 


     PseudoPot. # 2 for O  read from file:
     /home/jvc/QEspresso7.2/ZnO_database/pseudos/O.upf
     MD5 check sum: 91400c9766925bcf19f520983a725ff0
     Pseudo is Ultrasoft + core correction, Zval =  6.0
     Generated using &quot;atomic&quot; code by A. Dal Corso  v.6.3MaX
     Using radial grid of 1095 points,  4 beta functions with: 
                l(1) =   0
                l(2) =   0
                l(3) =   1
                l(4) =   1
     Q(r) pseudized with 0 coefficients 


     atomic species   valence    mass     pseudopotential
        Zn            12.00    65.38000     Zn( 1.00)
        O              6.00    15.99900     O ( 1.00)

      2 Sym. Ops. (no inversion) found


                                    s                        frac. trans.

      isym =  1     identity                                     

 cryst.   s( 1) = (     1          0          0      )
                  (     0          1          0      )
                  (     0          0          1      )

 cart.    s( 1) = (  1.0000000  0.0000000  0.0000000 )
                  (  0.0000000  1.0000000  0.0000000 )
                  (  0.0000000  0.0000000  1.0000000 )


      isym =  2     inv. 180 deg rotation - cryst. axis [0,1,0]  

 cryst.   s( 2) = (     1          2          0      )
                  (     0         -1          0      )
                  (     0          0          1      )

 cart.    s( 2) = (  0.5000000  0.8660254  0.0000000 )
                  (  0.8660254 -0.5000000  0.0000000 )
                  (  0.0000000  0.0000000  1.0000000 )


   Cartesian axes

     site n.     atom                  positions (alat units)
         1           Zn  tau(   1) = (   0.2500000   0.1443376   0.3960190  )
         2           Zn  tau(   2) = (  -0.0000000   0.2886751   0.0005012  )
         3           O   tau(   3) = (   0.2500000   0.1443376   0.6958554  )
         4           O   tau(   4) = (  -0.0000000   0.2886751   0.3003376  )
         5           Zn  tau(   5) = (   0.7500000   0.1443376   0.3960190  )
         6           Zn  tau(   6) = (   0.5000000   0.2886751   0.0005012  )
         7           O   tau(   7) = (   0.7500000   0.1443376   0.6958554  )
         8           O   tau(   8) = (   0.5000000   0.2886751   0.3003376  )

   Crystallographic axes

     site n.     atom                  positions (cryst. coord.)
         1           Zn  tau(   1) = (  0.3333333  0.3333333  0.5006336  )
         2           Zn  tau(   2) = (  0.1666667  0.6666667  0.0006336  )
         3           O   tau(   3) = (  0.3333333  0.3333333  0.8796764  )
         4           O   tau(   4) = (  0.1666667  0.6666667  0.3796764  )
         5           Zn  tau(   5) = (  0.8333333  0.3333333  0.5006336  )
         6           Zn  tau(   6) = (  0.6666667  0.6666667  0.0006336  )
         7           O   tau(   7) = (  0.8333333  0.3333333  0.8796764  )
         8           O   tau(   8) = (  0.6666667  0.6666667  0.3796764  )

     number of k points=    80
                       cart. coord. in units 2pi/alat
        k(    1) = (   0.0000000   0.0000000   0.0000000), wk =   0.0092593
        k(    2) = (   0.0000000   0.0000000   0.2106943), wk =   0.0185185
        k(    3) = (   0.0000000   0.0000000   0.4213885), wk =   0.0185185
        k(    4) = (   0.0000000   0.0000000  -0.6320828), wk =   0.0092593
        k(    5) = (   0.0000000   0.3849002   0.0000000), wk =   0.0370370
        k(    6) = (   0.0000000   0.3849002   0.2106943), wk =   0.0370370
        k(    7) = (   0.0000000   0.3849002   0.4213885), wk =   0.0370370
        k(    8) = (   0.0000000   0.3849002  -0.6320828), wk =   0.0370370
        k(    9) = (   0.0000000   0.7698004   0.0000000), wk =   0.0370370
        k(   10) = (   0.0000000   0.7698004   0.2106943), wk =   0.0370370
        k(   11) = (   0.0000000   0.7698004   0.4213885), wk =   0.0370370
        k(   12) = (   0.0000000   0.7698004  -0.6320828), wk =   0.0370370
        k(   13) = (   0.0000000  -1.1547005   0.0000000), wk =   0.0092593
        k(   14) = (   0.0000000  -1.1547005   0.2106943), wk =   0.0185185
        k(   15) = (   0.0000000  -1.1547005   0.4213885), wk =   0.0185185
        k(   16) = (   0.0000000  -1.1547005  -0.6320828), wk =   0.0092593
        k(   17) = (   0.1666667   0.0962250   0.0000000), wk =   0.0185185
        k(   18) = (   0.1666667   0.0962250   0.2106943), wk =   0.0185185
        k(   19) = (   0.1666667   0.0962250   0.4213885), wk =   0.0185185
        k(   20) = (   0.1666667   0.0962250  -0.6320828), wk =   0.0185185
        k(   21) = (   0.1666667   0.4811252   0.0000000), wk =   0.0370370
        k(   22) = (   0.1666667   0.4811252   0.2106943), wk =   0.0370370
        k(   23) = (   0.1666667   0.4811252   0.4213885), wk =   0.0370370
        k(   24) = (   0.1666667   0.4811252  -0.6320828), wk =   0.0370370
        k(   25) = (   0.1666667   0.8660254   0.0000000), wk =   0.0185185
        k(   26) = (   0.1666667   0.8660254   0.2106943), wk =   0.0370370
        k(   27) = (   0.1666667   0.8660254   0.4213885), wk =   0.0370370
        k(   28) = (   0.1666667   0.8660254  -0.6320828), wk =   0.0185185
        k(   29) = (   0.1666667  -1.0584755   0.0000000), wk =   0.0185185
        k(   30) = (   0.1666667  -1.0584755   0.2106943), wk =   0.0185185
        k(   31) = (   0.1666667  -1.0584755   0.4213885), wk =   0.0185185
        k(   32) = (   0.1666667  -1.0584755  -0.6320828), wk =   0.0185185
        k(   33) = (   0.1666667  -0.6735753   0.0000000), wk =   0.0370370
        k(   34) = (   0.1666667  -0.6735753   0.2106943), wk =   0.0370370
        k(   35) = (   0.1666667  -0.6735753   0.4213885), wk =   0.0370370
        k(   36) = (   0.1666667  -0.6735753  -0.6320828), wk =   0.0370370
        k(   37) = (   0.1666667  -0.2886751   0.0000000), wk =   0.0185185
        k(   38) = (   0.1666667  -0.2886751   0.2106943), wk =   0.0370370
        k(   39) = (   0.1666667  -0.2886751   0.4213885), wk =   0.0370370
        k(   40) = (   0.1666667  -0.2886751  -0.6320828), wk =   0.0185185
        k(   41) = (   0.3333333   0.1924501   0.0000000), wk =   0.0185185
        k(   42) = (   0.3333333   0.1924501   0.2106943), wk =   0.0185185
        k(   43) = (   0.3333333   0.1924501   0.4213885), wk =   0.0185185
        k(   44) = (   0.3333333   0.1924501  -0.6320828), wk =   0.0185185
        k(   45) = (   0.3333333   0.5773503   0.0000000), wk =   0.0185185
        k(   46) = (   0.3333333   0.5773503   0.2106943), wk =   0.0370370
        k(   47) = (   0.3333333   0.5773503   0.4213885), wk =   0.0370370
        k(   48) = (   0.3333333   0.5773503  -0.6320828), wk =   0.0185185
        k(   49) = (   0.3333333  -0.9622504   0.0000000), wk =   0.0185185
        k(   50) = (   0.3333333  -0.9622504   0.2106943), wk =   0.0185185
        k(   51) = (   0.3333333  -0.9622504   0.4213885), wk =   0.0185185
        k(   52) = (   0.3333333  -0.9622504  -0.6320828), wk =   0.0185185
        k(   53) = (   0.3333333  -0.5773503   0.0000000), wk =   0.0185185
        k(   54) = (   0.3333333  -0.5773503   0.2106943), wk =   0.0370370
        k(   55) = (   0.3333333  -0.5773503   0.4213885), wk =   0.0370370
        k(   56) = (   0.3333333  -0.5773503  -0.6320828), wk =   0.0185185
        k(   57) = (  -0.5000000  -0.2886751   0.0000000), wk =   0.0092593
        k(   58) = (  -0.5000000  -0.2886751   0.2106943), wk =   0.0185185
        k(   59) = (  -0.5000000  -0.2886751   0.4213885), wk =   0.0185185
        k(   60) = (  -0.5000000  -0.2886751  -0.6320828), wk =   0.0092593
        k(   61) = (  -0.5000000  -1.4433757   0.0000000), wk =   0.0092593
        k(   62) = (  -0.5000000  -1.4433757   0.2106943), wk =   0.0185185
        k(   63) = (  -0.5000000  -1.4433757   0.4213885), wk =   0.0185185
        k(   64) = (  -0.5000000  -1.4433757  -0.6320828), wk =   0.0092593
        k(   65) = (   0.3333333  -0.1924501  -0.2106943), wk =   0.0370370
        k(   66) = (   0.3333333  -0.1924501  -0.4213885), wk =   0.0370370
        k(   67) = (   0.6666667  -0.3849002  -0.2106943), wk =   0.0370370
        k(   68) = (   0.6666667  -0.3849002  -0.4213885), wk =   0.0370370
        k(   69) = (   0.1666667   0.0962250  -0.2106943), wk =   0.0185185
        k(   70) = (   0.1666667   0.0962250  -0.4213885), wk =   0.0185185
        k(   71) = (   0.5000000  -0.0962250  -0.2106943), wk =   0.0370370
        k(   72) = (   0.5000000  -0.0962250  -0.4213885), wk =   0.0370370
        k(   73) = (  -0.8333333   0.6735753  -0.2106943), wk =   0.0185185
        k(   74) = (  -0.8333333   0.6735753  -0.4213885), wk =   0.0185185
        k(   75) = (  -0.5000000   0.4811252  -0.2106943), wk =   0.0370370
        k(   76) = (  -0.5000000   0.4811252  -0.4213885), wk =   0.0370370
        k(   77) = (   0.3333333   0.1924501  -0.2106943), wk =   0.0185185
        k(   78) = (   0.3333333   0.1924501  -0.4213885), wk =   0.0185185
        k(   79) = (  -0.6666667   0.7698004  -0.2106943), wk =   0.0185185
        k(   80) = (  -0.6666667   0.7698004  -0.4213885), wk =   0.0185185

                       cryst. coord.
        k(    1) = (   0.0000000   0.0000000   0.0000000), wk =   0.0092593
        k(    2) = (   0.0000000   0.0000000   0.1666667), wk =   0.0185185
        k(    3) = (   0.0000000   0.0000000   0.3333333), wk =   0.0185185
        k(    4) = (   0.0000000   0.0000000  -0.5000000), wk =   0.0092593
        k(    5) = (   0.0000000   0.1666667   0.0000000), wk =   0.0370370
        k(    6) = (   0.0000000   0.1666667   0.1666667), wk =   0.0370370
        k(    7) = (   0.0000000   0.1666667   0.3333333), wk =   0.0370370
        k(    8) = (   0.0000000   0.1666667  -0.5000000), wk =   0.0370370
        k(    9) = (   0.0000000   0.3333333   0.0000000), wk =   0.0370370
        k(   10) = (   0.0000000   0.3333333   0.1666667), wk =   0.0370370
        k(   11) = (   0.0000000   0.3333333   0.3333333), wk =   0.0370370
        k(   12) = (   0.0000000   0.3333333  -0.5000000), wk =   0.0370370
        k(   13) = (   0.0000000  -0.5000000   0.0000000), wk =   0.0092593
        k(   14) = (   0.0000000  -0.5000000   0.1666667), wk =   0.0185185
        k(   15) = (   0.0000000  -0.5000000   0.3333333), wk =   0.0185185
        k(   16) = (   0.0000000  -0.5000000  -0.5000000), wk =   0.0092593
        k(   17) = (   0.1666667  -0.0000000   0.0000000), wk =   0.0185185
        k(   18) = (   0.1666667  -0.0000000   0.1666667), wk =   0.0185185
        k(   19) = (   0.1666667  -0.0000000   0.3333333), wk =   0.0185185
        k(   20) = (   0.1666667  -0.0000000  -0.5000000), wk =   0.0185185
        k(   21) = (   0.1666667   0.1666667   0.0000000), wk =   0.0370370
        k(   22) = (   0.1666667   0.1666667   0.1666667), wk =   0.0370370
        k(   23) = (   0.1666667   0.1666667   0.3333333), wk =   0.0370370
        k(   24) = (   0.1666667   0.1666667  -0.5000000), wk =   0.0370370
        k(   25) = (   0.1666667   0.3333333   0.0000000), wk =   0.0185185
        k(   26) = (   0.1666667   0.3333333   0.1666667), wk =   0.0370370
        k(   27) = (   0.1666667   0.3333333   0.3333333), wk =   0.0370370
        k(   28) = (   0.1666667   0.3333333  -0.5000000), wk =   0.0185185
        k(   29) = (   0.1666667  -0.5000000   0.0000000), wk =   0.0185185
        k(   30) = (   0.1666667  -0.5000000   0.1666667), wk =   0.0185185
        k(   31) = (   0.1666667  -0.5000000   0.3333333), wk =   0.0185185
        k(   32) = (   0.1666667  -0.5000000  -0.5000000), wk =   0.0185185
        k(   33) = (   0.1666667  -0.3333333   0.0000000), wk =   0.0370370
        k(   34) = (   0.1666667  -0.3333333   0.1666667), wk =   0.0370370
        k(   35) = (   0.1666667  -0.3333333   0.3333333), wk =   0.0370370
        k(   36) = (   0.1666667  -0.3333333  -0.5000000), wk =   0.0370370
        k(   37) = (   0.1666667  -0.1666667   0.0000000), wk =   0.0185185
        k(   38) = (   0.1666667  -0.1666667   0.1666667), wk =   0.0370370
        k(   39) = (   0.1666667  -0.1666667   0.3333333), wk =   0.0370370
        k(   40) = (   0.1666667  -0.1666667  -0.5000000), wk =   0.0185185
        k(   41) = (   0.3333333  -0.0000000   0.0000000), wk =   0.0185185
        k(   42) = (   0.3333333  -0.0000000   0.1666667), wk =   0.0185185
        k(   43) = (   0.3333333  -0.0000000   0.3333333), wk =   0.0185185
        k(   44) = (   0.3333333  -0.0000000  -0.5000000), wk =   0.0185185
        k(   45) = (   0.3333333   0.1666667   0.0000000), wk =   0.0185185
        k(   46) = (   0.3333333   0.1666667   0.1666667), wk =   0.0370370
        k(   47) = (   0.3333333   0.1666667   0.3333333), wk =   0.0370370
        k(   48) = (   0.3333333   0.1666667  -0.5000000), wk =   0.0185185
        k(   49) = (   0.3333333  -0.5000000   0.0000000), wk =   0.0185185
        k(   50) = (   0.3333333  -0.5000000   0.1666667), wk =   0.0185185
        k(   51) = (   0.3333333  -0.5000000   0.3333333), wk =   0.0185185
        k(   52) = (   0.3333333  -0.5000000  -0.5000000), wk =   0.0185185
        k(   53) = (   0.3333333  -0.3333333   0.0000000), wk =   0.0185185
        k(   54) = (   0.3333333  -0.3333333   0.1666667), wk =   0.0370370
        k(   55) = (   0.3333333  -0.3333333   0.3333333), wk =   0.0370370
        k(   56) = (   0.3333333  -0.3333333  -0.5000000), wk =   0.0185185
        k(   57) = (  -0.5000000   0.0000000   0.0000000), wk =   0.0092593
        k(   58) = (  -0.5000000   0.0000000   0.1666667), wk =   0.0185185
        k(   59) = (  -0.5000000   0.0000000   0.3333333), wk =   0.0185185
        k(   60) = (  -0.5000000   0.0000000  -0.5000000), wk =   0.0092593
        k(   61) = (  -0.5000000  -0.5000000   0.0000000), wk =   0.0092593
        k(   62) = (  -0.5000000  -0.5000000   0.1666667), wk =   0.0185185
        k(   63) = (  -0.5000000  -0.5000000   0.3333333), wk =   0.0185185
        k(   64) = (  -0.5000000  -0.5000000  -0.5000000), wk =   0.0092593
        k(   65) = (   0.3333333  -0.1666667  -0.1666667), wk =   0.0370370
        k(   66) = (   0.3333333  -0.1666667  -0.3333333), wk =   0.0370370
        k(   67) = (   0.6666667  -0.3333333  -0.1666667), wk =   0.0370370
        k(   68) = (   0.6666667  -0.3333333  -0.3333333), wk =   0.0370370
        k(   69) = (   0.1666667   0.0000000  -0.1666667), wk =   0.0185185
        k(   70) = (   0.1666667   0.0000000  -0.3333333), wk =   0.0185185
        k(   71) = (   0.5000000  -0.1666667  -0.1666667), wk =   0.0370370
        k(   72) = (   0.5000000  -0.1666667  -0.3333333), wk =   0.0370370
        k(   73) = (  -0.8333333   0.5000000  -0.1666667), wk =   0.0185185
        k(   74) = (  -0.8333333   0.5000000  -0.3333333), wk =   0.0185185
        k(   75) = (  -0.5000000   0.3333333  -0.1666667), wk =   0.0370370
        k(   76) = (  -0.5000000   0.3333333  -0.3333333), wk =   0.0370370
        k(   77) = (   0.3333333   0.0000000  -0.1666667), wk =   0.0185185
        k(   78) = (   0.3333333   0.0000000  -0.3333333), wk =   0.0185185
        k(   79) = (  -0.6666667   0.5000000  -0.1666667), wk =   0.0185185
        k(   80) = (  -0.6666667   0.5000000  -0.3333333), wk =   0.0185185

     Dense  grid:    67935 G-vectors     FFT dimensions: (  75,  40,  60)

     Smooth grid:    24017 G-vectors     FFT dimensions: (  54,  25,  45)

     Dynamical RAM for                 wfc:       1.65 MB

     Dynamical RAM for     wfc (w. buffer):      34.66 MB

     Dynamical RAM for           str. fact:       2.07 MB

     Dynamical RAM for           local pot:       0.00 MB

     Dynamical RAM for          nlocal pot:       4.77 MB

     Dynamical RAM for                qrad:       3.21 MB

     Dynamical RAM for          rho,v,vnew:       7.23 MB

     Dynamical RAM for               rhoin:       2.41 MB

     Dynamical RAM for            rho*nmix:      16.59 MB

     Dynamical RAM for           G-vectors:       4.07 MB

     Dynamical RAM for          h,s,v(r/c):       0.24 MB

     Dynamical RAM for          <psi|beta>:       0.06 MB

     Dynamical RAM for                 psi:       3.30 MB

     Dynamical RAM for                hpsi:       3.30 MB

     Dynamical RAM for                spsi:       3.30 MB

     Dynamical RAM for      wfcinit/wfcrot:       4.83 MB

     Dynamical RAM for           addusdens:      50.01 MB

     Dynamical RAM for          addusforce:      51.33 MB

     Estimated static dynamical RAM per process >      68.40 MB

     Estimated max dynamical RAM per process >     136.31 MB

     Estimated total dynamical RAM >       1.94 GB

     Check: negative core charge=   -0.000001

     Initial potential from superposition of free atoms

     starting charge      71.9851, renormalised to      72.0000
     Starting wfcs are   52 randomized atomic wfcs

     total cpu time spent up to now is        7.8 secs

     per-process dynamical memory:    86.2 Mb

     Self-consistent Calculation

     iteration #  1     ecut=    50.00 Ry     beta= 0.30
     Davidson diagonalization with overlap

---- Real-time Memory Report at c_bands before calling an iterative solver
           114 MiB given to the printing process from OS
            84 MiB allocation reported by mallinfo(arena+hblkhd)
        107119 MiB available memory on the node where the printing process lives
------------------
     ethr =  1.00E-02,  avg # of iterations =  2.1

     total cpu time spent up to now is       13.7 secs

     total energy              =    -722.71802396 Ry
     estimated scf accuracy    <       1.35913200 Ry

     iteration #  2     ecut=    50.00 Ry     beta= 0.30
     Davidson diagonalization with overlap

---- Real-time Memory Report at c_bands before calling an iterative solver
           181 MiB given to the printing process from OS
           109 MiB allocation reported by mallinfo(arena+hblkhd)
        105400 MiB available memory on the node where the printing process lives
------------------
     ethr =  1.89E-03,  avg # of iterations =  2.0

     total cpu time spent up to now is       20.8 secs

     total energy              =    -722.79080557 Ry
     estimated scf accuracy    <       0.27906547 Ry

     iteration #  3     ecut=    50.00 Ry     beta= 0.30
     Davidson diagonalization with overlap

---- Real-time Memory Report at c_bands before calling an iterative solver
           183 MiB given to the printing process from OS
           109 MiB allocation reported by mallinfo(arena+hblkhd)
        105037 MiB available memory on the node where the printing process lives
------------------
     ethr =  3.88E-04,  avg # of iterations =  6.5

     total cpu time spent up to now is       34.0 secs

     total energy              =    -722.96268518 Ry
     estimated scf accuracy    <       0.18724864 Ry

     iteration #  4     ecut=    50.00 Ry     beta= 0.30
     Davidson diagonalization with overlap

---- Real-time Memory Report at c_bands before calling an iterative solver
           183 MiB given to the printing process from OS
           110 MiB allocation reported by mallinfo(arena+hblkhd)
        105097 MiB available memory on the node where the printing process lives
------------------
     ethr =  2.60E-04,  avg # of iterations =  2.0

     total cpu time spent up to now is       40.3 secs

     total energy              =    -722.95388821 Ry
     estimated scf accuracy    <       0.05464162 Ry

     iteration #  5     ecut=    50.00 Ry     beta= 0.30
     Davidson diagonalization with overlap

---- Real-time Memory Report at c_bands before calling an iterative solver
           184 MiB given to the printing process from OS
           111 MiB allocation reported by mallinfo(arena+hblkhd)
        105012 MiB available memory on the node where the printing process lives
------------------
     ethr =  7.59E-05,  avg # of iterations =  9.5

     total cpu time spent up to now is       58.9 secs

     total energy              =    -723.06781083 Ry
     estimated scf accuracy    <       0.93152991 Ry

     iteration #  6     ecut=    50.00 Ry     beta= 0.30
     Davidson diagonalization with overlap

---- Real-time Memory Report at c_bands before calling an iterative solver
           185 MiB given to the printing process from OS
           112 MiB allocation reported by mallinfo(arena+hblkhd)
        104650 MiB available memory on the node where the printing process lives
------------------
     ethr =  7.59E-05,  avg # of iterations =  5.4

     total cpu time spent up to now is       69.1 secs

     total energy              =    -722.90009457 Ry
     estimated scf accuracy    <       0.42242617 Ry

     iteration #  7     ecut=    50.00 Ry     beta= 0.30
     Davidson diagonalization with overlap

---- Real-time Memory Report at c_bands before calling an iterative solver
           186 MiB given to the printing process from OS
           112 MiB allocation reported by mallinfo(arena+hblkhd)
        105260 MiB available memory on the node where the printing process lives
------------------
     ethr =  7.59E-05,  avg # of iterations =  7.3

     total cpu time spent up to now is       83.5 secs

     total energy              =    -722.97974149 Ry
     estimated scf accuracy    <       0.00141912 Ry

     iteration #  8     ecut=    50.00 Ry     beta= 0.30
     Davidson diagonalization with overlap

---- Real-time Memory Report at c_bands before calling an iterative solver
           186 MiB given to the printing process from OS
           113 MiB allocation reported by mallinfo(arena+hblkhd)
        105507 MiB available memory on the node where the printing process lives
------------------
     ethr =  1.97E-06,  avg # of iterations =  9.6

     total cpu time spent up to now is      103.0 secs

     total energy              =    -722.98245142 Ry
     estimated scf accuracy    <       0.00824160 Ry

     iteration #  9     ecut=    50.00 Ry     beta= 0.30
     Davidson diagonalization with overlap

---- Real-time Memory Report at c_bands before calling an iterative solver
           187 MiB given to the printing process from OS
           114 MiB allocation reported by mallinfo(arena+hblkhd)
        105258 MiB available memory on the node where the printing process lives
------------------
     ethr =  1.97E-06,  avg # of iterations =  2.0

     total cpu time spent up to now is      110.1 secs

     total energy              =    -722.97890482 Ry
     estimated scf accuracy    <       0.00500589 Ry

     iteration # 10     ecut=    50.00 Ry     beta= 0.30
     Davidson diagonalization with overlap

---- Real-time Memory Report at c_bands before calling an iterative solver
           188 MiB given to the printing process from OS
           115 MiB allocation reported by mallinfo(arena+hblkhd)
        105155 MiB available memory on the node where the printing process lives
------------------
     ethr =  1.97E-06,  avg # of iterations =  8.6

     total cpu time spent up to now is      128.7 secs

     total energy              =    -722.98151453 Ry
     estimated scf accuracy    <       0.00543049 Ry

     iteration # 11     ecut=    50.00 Ry     beta= 0.30
     Davidson diagonalization with overlap

---- Real-time Memory Report at c_bands before calling an iterative solver
           188 MiB given to the printing process from OS
           115 MiB allocation reported by mallinfo(arena+hblkhd)
        105211 MiB available memory on the node where the printing process lives
------------------
     ethr =  1.97E-06,  avg # of iterations =  3.2

     total cpu time spent up to now is      137.6 secs

     total energy              =    -722.98166434 Ry
     estimated scf accuracy    <       0.00180744 Ry

     iteration # 12     ecut=    50.00 Ry     beta= 0.30
     Davidson diagonalization with overlap

---- Real-time Memory Report at c_bands before calling an iterative solver
           188 MiB given to the printing process from OS
           115 MiB allocation reported by mallinfo(arena+hblkhd)
        105194 MiB available memory on the node where the printing process lives
------------------
     ethr =  1.97E-06,  avg # of iterations =  2.0

     total cpu time spent up to now is      144.8 secs

     total energy              =    -722.98189295 Ry
     estimated scf accuracy    <       0.00108792 Ry

     iteration # 13     ecut=    50.00 Ry     beta= 0.30
     Davidson diagonalization with overlap

---- Real-time Memory Report at c_bands before calling an iterative solver
           188 MiB given to the printing process from OS
           115 MiB allocation reported by mallinfo(arena+hblkhd)
        104819 MiB available memory on the node where the printing process lives
------------------
     ethr =  1.51E-06,  avg # of iterations =  1.5

     total cpu time spent up to now is      151.1 secs

     total energy              =    -722.98181268 Ry
     estimated scf accuracy    <       0.00104394 Ry

     iteration # 14     ecut=    50.00 Ry     beta= 0.30
     Davidson diagonalization with overlap

---- Real-time Memory Report at c_bands before calling an iterative solver
           188 MiB given to the printing process from OS
           115 MiB allocation reported by mallinfo(arena+hblkhd)
        105392 MiB available memory on the node where the printing process lives
------------------
     ethr =  1.45E-06,  avg # of iterations =  1.8

     total cpu time spent up to now is      157.7 secs

     total energy              =    -722.98150512 Ry
     estimated scf accuracy    <       0.00066081 Ry

     iteration # 15     ecut=    50.00 Ry     beta= 0.30
     Davidson diagonalization with overlap

---- Real-time Memory Report at c_bands before calling an iterative solver
           188 MiB given to the printing process from OS
           115 MiB allocation reported by mallinfo(arena+hblkhd)
        104825 MiB available memory on the node where the printing process lives
------------------
     ethr =  9.18E-07,  avg # of iterations =  4.7

     total cpu time spent up to now is      168.6 secs

     total energy              =    -722.98174488 Ry
     estimated scf accuracy    <       0.00001468 Ry

     iteration # 16     ecut=    50.00 Ry     beta= 0.30
     Davidson diagonalization with overlap

---- Real-time Memory Report at c_bands before calling an iterative solver
           188 MiB given to the printing process from OS
           115 MiB allocation reported by mallinfo(arena+hblkhd)
        105323 MiB available memory on the node where the printing process lives
------------------
     ethr =  2.04E-08,  avg # of iterations =  7.6

     total cpu time spent up to now is      186.6 secs

     total energy              =    -722.98175476 Ry
     estimated scf accuracy    <       0.00006287 Ry

     iteration # 17     ecut=    50.00 Ry     beta= 0.30
     Davidson diagonalization with overlap

---- Real-time Memory Report at c_bands before calling an iterative solver
           188 MiB given to the printing process from OS
           115 MiB allocation reported by mallinfo(arena+hblkhd)
        105693 MiB available memory on the node where the printing process lives
------------------
     ethr =  2.04E-08,  avg # of iterations =  5.0

     total cpu time spent up to now is      200.3 secs

     total energy              =    -722.98176317 Ry
     estimated scf accuracy    <       0.00000758 Ry

     iteration # 18     ecut=    50.00 Ry     beta= 0.30
     Davidson diagonalization with overlap

---- Real-time Memory Report at c_bands before calling an iterative solver
           188 MiB given to the printing process from OS
           115 MiB allocation reported by mallinfo(arena+hblkhd)
        105221 MiB available memory on the node where the printing process lives
------------------
     ethr =  1.05E-08,  avg # of iterations =  1.6

     total cpu time spent up to now is      209.4 secs

     total energy              =    -722.98176571 Ry
     estimated scf accuracy    <       0.00001138 Ry

     iteration # 19     ecut=    50.00 Ry     beta= 0.30
     Davidson diagonalization with overlap

---- Real-time Memory Report at c_bands before calling an iterative solver
           188 MiB given to the printing process from OS
           115 MiB allocation reported by mallinfo(arena+hblkhd)
        104639 MiB available memory on the node where the printing process lives
------------------
     ethr =  1.05E-08,  avg # of iterations =  1.6

     total cpu time spent up to now is      218.5 secs

     total energy              =    -722.98176404 Ry
     estimated scf accuracy    <       0.00001762 Ry

     iteration # 20     ecut=    50.00 Ry     beta= 0.30
     Davidson diagonalization with overlap

---- Real-time Memory Report at c_bands before calling an iterative solver
           188 MiB given to the printing process from OS
           115 MiB allocation reported by mallinfo(arena+hblkhd)
        105616 MiB available memory on the node where the printing process lives
------------------
     ethr =  1.05E-08,  avg # of iterations =  1.0

     total cpu time spent up to now is      226.6 secs

     total energy              =    -722.98176074 Ry
     estimated scf accuracy    <       0.00001372 Ry

     iteration # 21     ecut=    50.00 Ry     beta= 0.30
     Davidson diagonalization with overlap

---- Real-time Memory Report at c_bands before calling an iterative solver
           188 MiB given to the printing process from OS
           115 MiB allocation reported by mallinfo(arena+hblkhd)
        105083 MiB available memory on the node where the printing process lives
------------------
     ethr =  1.05E-08,  avg # of iterations =  1.7

     total cpu time spent up to now is      233.7 secs

     total energy              =    -722.98175649 Ry
     estimated scf accuracy    <       0.00000666 Ry

     iteration # 22     ecut=    50.00 Ry     beta= 0.30
     Davidson diagonalization with overlap

---- Real-time Memory Report at c_bands before calling an iterative solver
           188 MiB given to the printing process from OS
           115 MiB allocation reported by mallinfo(arena+hblkhd)
        106483 MiB available memory on the node where the printing process lives
------------------
     ethr =  9.26E-09,  avg # of iterations =  6.4

     total cpu time spent up to now is      247.4 secs

     total energy              =    -722.98176324 Ry
     estimated scf accuracy    <       0.00000561 Ry

     iteration # 23     ecut=    50.00 Ry     beta= 0.30
     Davidson diagonalization with overlap

---- Real-time Memory Report at c_bands before calling an iterative solver
           188 MiB given to the printing process from OS
           115 MiB allocation reported by mallinfo(arena+hblkhd)
        105113 MiB available memory on the node where the printing process lives
------------------
     ethr =  7.80E-09,  avg # of iterations =  1.4

     total cpu time spent up to now is      255.3 secs

     total energy              =    -722.98176199 Ry
     estimated scf accuracy    <       0.00000792 Ry

     iteration # 24     ecut=    50.00 Ry     beta= 0.30
     Davidson diagonalization with overlap

---- Real-time Memory Report at c_bands before calling an iterative solver
           188 MiB given to the printing process from OS
           115 MiB allocation reported by mallinfo(arena+hblkhd)
        105699 MiB available memory on the node where the printing process lives
------------------
     ethr =  7.80E-09,  avg # of iterations =  1.0

     total cpu time spent up to now is      263.5 secs

     total energy              =    -722.98175894 Ry
     estimated scf accuracy    <       0.00000568 Ry

     iteration # 25     ecut=    50.00 Ry     beta= 0.30
     Davidson diagonalization with overlap

---- Real-time Memory Report at c_bands before calling an iterative solver
           188 MiB given to the printing process from OS
           115 MiB allocation reported by mallinfo(arena+hblkhd)
        105501 MiB available memory on the node where the printing process lives
------------------
     ethr =  7.80E-09,  avg # of iterations =  2.1

     total cpu time spent up to now is      273.6 secs

     total energy              =    -722.98175940 Ry
     estimated scf accuracy    <       0.00000058 Ry

     iteration # 26     ecut=    50.00 Ry     beta= 0.30
     Davidson diagonalization with overlap

---- Real-time Memory Report at c_bands before calling an iterative solver
           188 MiB given to the printing process from OS
           115 MiB allocation reported by mallinfo(arena+hblkhd)
        105186 MiB available memory on the node where the printing process lives
------------------
     ethr =  8.07E-10,  avg # of iterations =  8.0

     total cpu time spent up to now is      292.8 secs

     total energy              =    -722.98176062 Ry
     estimated scf accuracy    <       0.00000161 Ry

     iteration # 27     ecut=    50.00 Ry     beta= 0.30
     Davidson diagonalization with overlap

---- Real-time Memory Report at c_bands before calling an iterative solver
           188 MiB given to the printing process from OS
           115 MiB allocation reported by mallinfo(arena+hblkhd)
        106963 MiB available memory on the node where the printing process lives
------------------
     ethr =  8.07E-10,  avg # of iterations =  2.0

     total cpu time spent up to now is      298.9 secs

     total energy              =    -722.98176048 Ry
     estimated scf accuracy    <       0.00000083 Ry

     iteration # 28     ecut=    50.00 Ry     beta= 0.30
     Davidson diagonalization with overlap

---- Real-time Memory Report at c_bands before calling an iterative solver
           188 MiB given to the printing process from OS
           115 MiB allocation reported by mallinfo(arena+hblkhd)
        105533 MiB available memory on the node where the printing process lives
------------------
     ethr =  8.07E-10,  avg # of iterations =  2.0

     total cpu time spent up to now is      306.1 secs

     total energy              =    -722.98176044 Ry
     estimated scf accuracy    <       0.00000028 Ry

     iteration # 29     ecut=    50.00 Ry     beta= 0.30
     Davidson diagonalization with overlap

---- Real-time Memory Report at c_bands before calling an iterative solver
           188 MiB given to the printing process from OS
           115 MiB allocation reported by mallinfo(arena+hblkhd)
        105701 MiB available memory on the node where the printing process lives
------------------
     ethr =  3.89E-10,  avg # of iterations =  4.8

     total cpu time spent up to now is      317.3 secs

     End of self-consistent calculation

          k = 0.0000 0.0000 0.0000 (  2991 PWs)   bands (ev):

    -8.9268  -7.8325  -7.7160  -7.4617   3.6858   3.6945   3.7268   4.2405
     4.2406   4.3157   4.5345   4.5346   4.5960   4.7980   5.1755   5.4003
     6.2607   6.2607   6.2928   6.5639   6.6438   6.6439   6.7291   6.8186
     7.0403   7.0498   7.4293   7.9530   8.2930   9.8496  10.3309  10.3311
    10.3405  11.3714  11.5043  11.5046

     occupation numbers 
     1.0000   1.0000   1.0000   1.0000   1.0000   1.0000   1.0000   1.0000
     1.0000   1.0000   1.0000   1.0000   1.0000   1.0000   1.0000   1.0000
     1.0000   1.0000   1.0000   1.0000   1.0000   1.0000   1.0000   1.0000
     1.0000   1.0000   1.0000   1.0000   1.0000   1.0000   1.0000   1.0000
     1.0000   1.0000   1.0000   1.0000

          k = 0.0000 0.0000 0.2107 (  3004 PWs)   bands (ev):

    -8.8516  -7.8034  -7.8021  -7.4801   3.5900   3.5969   3.6406   4.2100
     4.2489   4.2490   4.5020   4.5021   4.6342   4.7801   5.1041   5.3223
     6.2969   6.2969   6.3995   6.5692   6.6315   6.6315   6.6999   6.8228
     7.0812   7.3330   7.3745   8.3219   8.4692   9.9478  10.2208  10.4091
    10.4093  10.8711  11.4267  11.4270

     occupation numbers 
     1.0000   1.0000   1.0000   1.0000   1.0000   1.0000   1.0000   1.0000
     1.0000   1.0000   1.0000   1.0000   1.0000   1.0000   1.0000   1.0000
     1.0000   1.0000   1.0000   1.0000   1.0000   1.0000   1.0000   1.0000
     1.0000   1.0000   1.0000   1.0000   1.0000   1.0000   1.0000   1.0000
     1.0000   1.0000   1.0000   1.0000

          k = 0.0000 0.0000 0.4214 (  3010 PWs)   bands (ev):

    -8.6421  -8.0372  -7.7226  -7.5357   3.3723   3.3953   3.6042   3.9622
     4.2801   4.2803   4.4246   4.4247   4.7458   4.7886   4.9683   5.1339
     6.3896   6.3896   6.5783   6.5844   6.5857   6.5858   6.6492   6.7965
     7.1439   7.2464   8.1801   8.8971   9.0579   9.8880  10.0293  10.0513
    10.6243  10.6245  11.2134  11.2136

     occupation numbers 
     1.0000   1.0000   1.0000   1.0000   1.0000   1.0000   1.0000   1.0000
     1.0000   1.0000   1.0000   1.0000   1.0000   1.0000   1.0000   1.0000
     1.0000   1.0000   1.0000   1.0000   1.0000   1.0000   1.0000   1.0000
     1.0000   1.0000   1.0000   1.0000   1.0000   1.0000   1.0000   1.0000
     1.0000   1.0000   1.0000   1.0000

          k = 0.0000 0.0000-0.6321 (  3004 PWs)   bands (ev):

    -8.3457  -8.3457  -7.6232  -7.6232   3.2861   3.2861   3.7185   3.7185
     4.3411   4.3411   4.3412   4.3412   4.8543   4.8543   4.9219   4.9219
     6.4991   6.4991   6.4991   6.4991   6.6101   6.6101   6.7157   6.7157
     7.1963   7.1963   9.1362   9.1362   9.4132   9.4132   9.7358   9.7359
    10.9194  10.9194  10.9196  10.9196

     occupation numbers 
     1.0000   1.0000   1.0000   1.0000   1.0000   1.0000   1.0000   1.0000
     1.0000   1.0000   1.0000   1.0000   1.0000   1.0000   1.0000   1.0000
     1.0000   1.0000   1.0000   1.0000   1.0000   1.0000   1.0000   1.0000
     1.0000   1.0000   1.0000   1.0000   1.0000   1.0000   1.0000   1.0000
     1.0000   1.0000   1.0000   1.0000

          k = 0.0000 0.3849 0.0000 (  3005 PWs)   bands (ev):

    -8.6992  -7.8488  -7.6241  -7.4531   3.8039   3.8683   4.0577   4.0706
     4.3532   4.3904   4.5133   4.5382   4.7004   4.7231   5.2312   5.3729
     6.1473   6.1636   6.2569   6.2826   6.6684   6.6828   6.7367   6.7674
     7.0520   7.1083   7.5901   7.8528   8.3477   9.2999   9.7452   9.8602
    10.0334  10.3980  11.1188  11.2480

     occupation numbers 
     1.0000   1.0000   1.0000   1.0000   1.0000   1.0000   1.0000   1.0000
     1.0000   1.0000   1.0000   1.0000   1.0000   1.0000   1.0000   1.0000
     1.0000   1.0000   1.0000   1.0000   1.0000   1.0000   1.0000   1.0000
     1.0000   1.0000   1.0000   1.0000   1.0000   1.0000   1.0000   1.0000
     1.0000   1.0000   1.0000   1.0000

          k = 0.0000 0.3849 0.2107 (  3002 PWs)   bands (ev):

    -8.6305  -7.8170  -7.6991  -7.4735   3.7227   3.7627   3.9121   3.9489
     4.3657   4.3944   4.4958   4.5292   4.6644   4.6858   5.1434   5.2825
     6.2056   6.2061   6.2918   6.4547   6.6494   6.6841   6.7226   6.8878
     7.0583   7.3971   7.7237   7.9273   8.5177   9.3877   9.7256   9.9564
    10.0267  10.2035  11.0443  11.1582

     occupation numbers 
     1.0000   1.0000   1.0000   1.0000   1.0000   1.0000   1.0000   1.0000
     1.0000   1.0000   1.0000   1.0000   1.0000   1.0000   1.0000   1.0000
     1.0000   1.0000   1.0000   1.0000   1.0000   1.0000   1.0000   1.0000
     1.0000   1.0000   1.0000   1.0000   1.0000   1.0000   1.0000   1.0000
     1.0000   1.0000   1.0000   1.0000

          k = 0.0000 0.3849 0.4214 (  3015 PWs)   bands (ev):

    -8.4403  -7.9022  -7.7334  -7.5341   3.5560   3.5997   3.6330   3.7552
     4.3873   4.4068   4.4833   4.5134   4.5771   4.6311   5.0481   5.1304
     6.3415   6.3560   6.3819   6.5187   6.5899   6.6201   6.7298   6.9173
     7.2129   7.6822   8.2299   8.3252   9.0311   9.4735   9.5848   9.8397
    10.0690  10.2168  10.6875  10.9105

     occupation numbers 
     1.0000   1.0000   1.0000   1.0000   1.0000   1.0000   1.0000   1.0000
     1.0000   1.0000   1.0000   1.0000   1.0000   1.0000   1.0000   1.0000
     1.0000   1.0000   1.0000   1.0000   1.0000   1.0000   1.0000   1.0000
     1.0000   1.0000   1.0000   1.0000   1.0000   1.0000   1.0000   1.0000
     1.0000   1.0000   1.0000   1.0000

          k = 0.0000 0.3849-0.6321 (  3024 PWs)   bands (ev):

    -8.1745  -8.1745  -7.6280  -7.6280   3.4893   3.4893   3.5994   3.5994
     4.4212   4.4212   4.4807   4.4807   4.5735   4.5735   5.0367   5.0367
     6.4777   6.4777   6.4932   6.4932   6.4955   6.4955   6.7979   6.7979
     7.4824   7.4824   8.8400   8.8400   9.0924   9.0924   9.8014   9.8014
    10.1483  10.1483  10.5668  10.5668

     occupation numbers 
     1.0000   1.0000   1.0000   1.0000   1.0000   1.0000   1.0000   1.0000
     1.0000   1.0000   1.0000   1.0000   1.0000   1.0000   1.0000   1.0000
     1.0000   1.0000   1.0000   1.0000   1.0000   1.0000   1.0000   1.0000
     1.0000   1.0000   1.0000   1.0000   1.0000   1.0000   1.0000   1.0000
     1.0000   1.0000   1.0000   1.0000

          k = 0.0000 0.7698 0.0000 (  3005 PWs)   bands (ev):

    -8.1757  -7.8488  -7.4743  -7.4531   3.5803   3.8040   4.0577   4.0740
     4.5133   4.5366   4.6126   4.7231   5.0298   5.1178   5.2312   5.3728
     6.0418   6.1637   6.2826   6.3878   6.5889   6.7059   6.7367   6.7674
     7.1083   7.2775   7.5901   7.6910   7.8529   8.3476   8.8760   8.9624
     9.7451  10.0334  10.3947  10.6706

     occupation numbers 
     1.0000   1.0000   1.0000   1.0000   1.0000   1.0000   1.0000   1.0000
     1.0000   1.0000   1.0000   1.0000   1.0000   1.0000   1.0000   1.0000
     1.0000   1.0000   1.0000   1.0000   1.0000   1.0000   1.0000   1.0000
     1.0000   1.0000   1.0000   1.0000   1.0000   1.0000   1.0000   1.0000
     1.0000   1.0000   1.0000   1.0000

          k = 0.0000 0.7698 0.2107 (  3000 PWs)   bands (ev):

    -8.1264  -7.8170  -7.5179  -7.4735   3.5187   3.7228   3.8650   3.9122
     4.4957   4.5638   4.6134   4.6858   4.9369   5.0627   5.1434   5.2825
     6.1384   6.2062   6.4076   6.4547   6.6794   6.7226   6.7298   6.8879
     7.0584   7.4122   7.7237   7.8735   7.9273   8.5177   8.8741   9.0143
     9.7255  10.0267  10.4372  10.5604

     occupation numbers 
     1.0000   1.0000   1.0000   1.0000   1.0000   1.0000   1.0000   1.0000
     1.0000   1.0000   1.0000   1.0000   1.0000   1.0000   1.0000   1.0000
     1.0000   1.0000   1.0000   1.0000   1.0000   1.0000   1.0000   1.0000
     1.0000   1.0000   1.0000   1.0000   1.0000   1.0000   1.0000   1.0000
     1.0000   1.0000   1.0000   1.0000

          k = 0.0000 0.7698 0.4214 (  2994 PWs)   bands (ev):

    -7.9928  -7.7334  -7.6402  -7.5341   3.3971   3.5385   3.5560   3.6330
     4.5133   4.6241   4.6311   4.6449   4.7937   4.9282   5.0481   5.1303
     6.3331   6.3561   6.4617   6.5187   6.6148   6.7027   6.7298   6.9174
     7.2129   7.6823   7.7777   8.2279   8.3252   8.9731   9.0310   9.3712
     9.4734  10.0690  10.2552  10.2994

     occupation numbers 
     1.0000   1.0000   1.0000   1.0000   1.0000   1.0000   1.0000   1.0000
     1.0000   1.0000   1.0000   1.0000   1.0000   1.0000   1.0000   1.0000
     1.0000   1.0000   1.0000   1.0000   1.0000   1.0000   1.0000   1.0000
     1.0000   1.0000   1.0000   1.0000   1.0000   1.0000   1.0000   1.0000
     1.0000   1.0000   1.0000   1.0000

          k = 0.0000 0.7698-0.6321 (  3002 PWs)   bands (ev):

    -7.8138  -7.8138  -7.6280  -7.6280   3.3698   3.3698   3.4893   3.4893
     4.5735   4.5735   4.6824   4.6824   4.7735   4.7735   5.0367   5.0367
     6.4777   6.4777   6.5360   6.5360   6.5382   6.5382   6.7980   6.7980
     7.4825   7.4825   8.0828   8.0828   8.8399   8.8399   9.7196   9.7196
     9.8014   9.8014   9.8250   9.8250

     occupation numbers 
     1.0000   1.0000   1.0000   1.0000   1.0000   1.0000   1.0000   1.0000
     1.0000   1.0000   1.0000   1.0000   1.0000   1.0000   1.0000   1.0000
     1.0000   1.0000   1.0000   1.0000   1.0000   1.0000   1.0000   1.0000
     1.0000   1.0000   1.0000   1.0000   1.0000   1.0000   1.0000   1.0000
     1.0000   1.0000   1.0000   1.0000

          k = 0.0000-1.1547 0.0000 (  3036 PWs)   bands (ev):

    -7.8325  -7.8325  -7.4617  -7.4617   3.6858   3.6859   3.7269   3.7269
     4.5959   4.5959   4.7980   4.7980   5.1755   5.1755   5.4002   5.4002
     6.2928   6.2928   6.5639   6.5639   6.7292   6.7292   6.8187   6.8187
     7.0499   7.0499   7.4294   7.4294   7.9530   7.9531   8.2929   8.2929
     9.8495   9.8496  10.3404  10.3404

     occupation numbers 
     1.0000   1.0000   1.0000   1.0000   1.0000   1.0000   1.0000   1.0000
     1.0000   1.0000   1.0000   1.0000   1.0000   1.0000   1.0000   1.0000
     1.0000   1.0000   1.0000   1.0000   1.0000   1.0000   1.0000   1.0000
     1.0000   1.0000   1.0000   1.0000   1.0000   1.0000   1.0000   1.0000
     1.0000   1.0000   1.0000   1.0000

          k = 0.0000-1.1547 0.2107 (  3004 PWs)   bands (ev):

    -7.8021  -7.8021  -7.4801  -7.4801   3.5901   3.5901   3.5970   3.5970
     4.6341   4.6341   4.7802   4.7802   5.1041   5.1041   5.3221   5.3221
     6.3996   6.3996   6.5692   6.5692   6.6999   6.6999   6.8228   6.8228
     7.0813   7.0813   7.3331   7.3331   8.3220   8.3220   8.4690   8.4690
     9.9478   9.9478  10.2207  10.2207

     occupation numbers 
     1.0000   1.0000   1.0000   1.0000   1.0000   1.0000   1.0000   1.0000
     1.0000   1.0000   1.0000   1.0000   1.0000   1.0000   1.0000   1.0000
     1.0000   1.0000   1.0000   1.0000   1.0000   1.0000   1.0000   1.0000
     1.0000   1.0000   1.0000   1.0000   1.0000   1.0000   1.0000   1.0000
     1.0000   1.0000   1.0000   1.0000

          k = 0.0000-1.1547 0.4214 (  2992 PWs)   bands (ev):

    -7.7226  -7.7226  -7.5357  -7.5357   3.3723   3.3723   3.3953   3.3953
     4.7457   4.7457   4.7886   4.7886   4.9684   4.9684   5.1338   5.1338
     6.5784   6.5784   6.5844   6.5844   6.6492   6.6492   6.7966   6.7966
     7.1440   7.1440   7.2464   7.2465   8.8969   8.8969   9.0579   9.0579
     9.8878   9.8878  10.0293  10.0293

     occupation numbers 
     1.0000   1.0000   1.0000   1.0000   1.0000   1.0000   1.0000   1.0000
     1.0000   1.0000   1.0000   1.0000   1.0000   1.0000   1.0000   1.0000
     1.0000   1.0000   1.0000   1.0000   1.0000   1.0000   1.0000   1.0000
     1.0000   1.0000   1.0000   1.0000   1.0000   1.0000   1.0000   1.0000
     1.0000   1.0000   1.0000   1.0000

          k = 0.0000-1.1547-0.6321 (  2968 PWs)   bands (ev):

    -7.6232  -7.6232  -7.6232  -7.6232   3.2862   3.2862   3.2862   3.2862
     4.8543   4.8543   4.8543   4.8543   4.9218   4.9218   4.9218   4.9218
     6.6101   6.6101   6.6101   6.6101   6.7158   6.7158   6.7158   6.7158
     7.1964   7.1964   7.1964   7.1964   9.4130   9.4130   9.4130   9.4130
     9.7358   9.7359   9.7359   9.7359

     occupation numbers 
     1.0000   1.0000   1.0000   1.0000   1.0000   1.0000   1.0000   1.0000
     1.0000   1.0000   1.0000   1.0000   1.0000   1.0000   1.0000   1.0000
     1.0000   1.0000   1.0000   1.0000   1.0000   1.0000   1.0000   1.0000
     1.0000   1.0000   1.0000   1.0000   1.0000   1.0000   1.0000   1.0000
     1.0000   1.0000   1.0000   1.0000

          k = 0.1667 0.0962 0.0000 (  2990 PWs)   bands (ev):

    -8.8674  -7.9373  -7.6909  -7.4536   3.5774   3.7662   3.9003   4.1584
     4.2713   4.3554   4.5165   4.5772   4.5828   4.7469   5.1681   5.3177
     6.2298   6.2326   6.2557   6.5047   6.6513   6.6605   6.6701   6.7225
     7.0147   7.0360   7.5895   8.2540   8.4621  10.0155  10.0388  10.2045
    10.4327  11.0694  11.3094  11.4379

     occupation numbers 
     1.0000   1.0000   1.0000   1.0000   1.0000   1.0000   1.0000   1.0000
     1.0000   1.0000   1.0000   1.0000   1.0000   1.0000   1.0000   1.0000
     1.0000   1.0000   1.0000   1.0000   1.0000   1.0000   1.0000   1.0000
     1.0000   1.0000   1.0000   1.0000   1.0000   1.0000   1.0000   1.0000
     1.0000   1.0000   1.0000   1.0000

          k = 0.1667 0.0962 0.2107 (  3013 PWs)   bands (ev):

    -8.7938  -7.9003  -7.7751  -7.4804   3.5004   3.6877   3.7386   4.1019
     4.2808   4.3169   4.4950   4.5439   4.6174   4.7313   5.0783   5.2472
     6.2716   6.2921   6.2976   6.5140   6.6370   6.6476   6.6944   6.8051
     7.0321   7.3778   7.6750   8.3926   8.6251  10.1017  10.1190  10.2876
    10.3154  10.6972  11.2686  11.3569

     occupation numbers 
     1.0000   1.0000   1.0000   1.0000   1.0000   1.0000   1.0000   1.0000
     1.0000   1.0000   1.0000   1.0000   1.0000   1.0000   1.0000   1.0000
     1.0000   1.0000   1.0000   1.0000   1.0000   1.0000   1.0000   1.0000
     1.0000   1.0000   1.0000   1.0000   1.0000   1.0000   1.0000   1.0000
     1.0000   1.0000   1.0000   1.0000

          k = 0.1667 0.0962 0.4214 (  3017 PWs)   bands (ev):

    -8.5891  -8.0010  -7.8019  -7.5583   3.3513   3.4568   3.6096   3.9015
     4.3092   4.3143   4.4315   4.4644   4.7204   4.7387   4.9257   5.0765
     6.3756   6.3853   6.4552   6.5418   6.5870   6.5948   6.6385   6.7632
     7.2593   7.6479   8.1958   8.9989   9.0303   9.9901   9.9936  10.1198
    10.3564  10.5152  11.0223  11.1337

     occupation numbers 
     1.0000   1.0000   1.0000   1.0000   1.0000   1.0000   1.0000   1.0000
     1.0000   1.0000   1.0000   1.0000   1.0000   1.0000   1.0000   1.0000
     1.0000   1.0000   1.0000   1.0000   1.0000   1.0000   1.0000   1.0000
     1.0000   1.0000   1.0000   1.0000   1.0000   1.0000   1.0000   1.0000
     1.0000   1.0000   1.0000   1.0000

          k = 0.1667 0.0962-0.6321 (  3004 PWs)   bands (ev):

    -8.3004  -8.3004  -7.6750  -7.6750   3.3056   3.3056   3.6886   3.6886
     4.3575   4.3575   4.3781   4.3781   4.8049   4.8049   4.8824   4.8824
     6.4963   6.4963   6.4975   6.4975   6.5850   6.5850   6.6236   6.6236
     7.4841   7.4841   9.1415   9.1415   9.5279   9.5280   9.7289   9.7289
    10.6785  10.6786  10.8257  10.8257

     occupation numbers 
     1.0000   1.0000   1.0000   1.0000   1.0000   1.0000   1.0000   1.0000
     1.0000   1.0000   1.0000   1.0000   1.0000   1.0000   1.0000   1.0000
     1.0000   1.0000   1.0000   1.0000   1.0000   1.0000   1.0000   1.0000
     1.0000   1.0000   1.0000   1.0000   1.0000   1.0000   1.0000   1.0000
     1.0000   1.0000   1.0000   1.0000

          k = 0.1667 0.4811 0.0000 (  3018 PWs)   bands (ev):

    -8.5456  -8.0691  -7.5697  -7.4568   3.7482   3.8296   4.0461   4.0695
     4.4250   4.4722   4.5383   4.5838   4.6755   4.8295   5.0324   5.2044
     6.0389   6.0981   6.2574   6.3070   6.6753   6.6804   6.7133   6.7210
     7.1073   7.2873   7.8003   8.1794   8.7637   8.8194   9.3919  10.0161
    10.2173  10.3032  10.9369  11.0207

     occupation numbers 
     1.0000   1.0000   1.0000   1.0000   1.0000   1.0000   1.0000   1.0000
     1.0000   1.0000   1.0000   1.0000   1.0000   1.0000   1.0000   1.0000
     1.0000   1.0000   1.0000   1.0000   1.0000   1.0000   1.0000   1.0000
     1.0000   1.0000   1.0000   1.0000   1.0000   1.0000   1.0000   1.0000
     1.0000   1.0000   1.0000   1.0000

          k = 0.1667 0.4811 0.2107 (  3005 PWs)   bands (ev):

    -8.4819  -8.0248  -7.6360  -7.4935   3.6757   3.7575   3.8856   3.8988
     4.4161   4.4689   4.5118   4.5951   4.6204   4.7899   4.9545   5.1458
     6.1250   6.1666   6.2991   6.4312   6.6562   6.6948   6.7115   6.8158
     7.3534   7.4296   8.0252   8.3219   8.6901   8.9171   9.4690   9.8891
    10.1196  10.3325  10.8894  10.9237

     occupation numbers 
     1.0000   1.0000   1.0000   1.0000   1.0000   1.0000   1.0000   1.0000
     1.0000   1.0000   1.0000   1.0000   1.0000   1.0000   1.0000   1.0000
     1.0000   1.0000   1.0000   1.0000   1.0000   1.0000   1.0000   1.0000
     1.0000   1.0000   1.0000   1.0000   1.0000   1.0000   1.0000   1.0000
     1.0000   1.0000   1.0000   1.0000

          k = 0.1667 0.4811 0.4214 (  3012 PWs)   bands (ev):

    -8.3063  -7.9055  -7.8171  -7.5974   3.5270   3.5829   3.6106   3.6583
     4.4265   4.4613   4.5114   4.5648   4.5752   4.6960   4.8892   5.0162
     6.3185   6.3244   6.3889   6.5099   6.5925   6.6468   6.6540   6.7675
     7.6892   8.2369   8.2429   8.7526   8.8732   9.1915   9.4392   9.7986
     9.9095  10.2602  10.5535  10.6493

     occupation numbers 
     1.0000   1.0000   1.0000   1.0000   1.0000   1.0000   1.0000   1.0000
     1.0000   1.0000   1.0000   1.0000   1.0000   1.0000   1.0000   1.0000
     1.0000   1.0000   1.0000   1.0000   1.0000   1.0000   1.0000   1.0000
     1.0000   1.0000   1.0000   1.0000   1.0000   1.0000   1.0000   1.0000
     1.0000   1.0000   1.0000   1.0000

          k = 0.1667 0.4811-0.6321 (  3016 PWs)   bands (ev):

    -8.0631  -8.0631  -7.7477  -7.7477   3.4670   3.4670   3.5339   3.5339
     4.4500   4.4500   4.5382   4.5382   4.6016   4.6016   4.9079   4.9079
     6.4924   6.4924   6.5010   6.5010   6.5058   6.5059   6.6418   6.6418
     8.0133   8.0133   8.9386   8.9386   9.1774   9.1775   9.8102   9.8102
     9.8791   9.8791  10.2755  10.2755

     occupation numbers 
     1.0000   1.0000   1.0000   1.0000   1.0000   1.0000   1.0000   1.0000
     1.0000   1.0000   1.0000   1.0000   1.0000   1.0000   1.0000   1.0000
     1.0000   1.0000   1.0000   1.0000   1.0000   1.0000   1.0000   1.0000
     1.0000   1.0000   1.0000   1.0000   1.0000   1.0000   1.0000   1.0000
     1.0000   1.0000   1.0000   1.0000

          k = 0.1667 0.8660 0.0000 (  3010 PWs)   bands (ev):

    -8.0212  -8.0212  -7.4545  -7.4545   3.6168   3.6168   4.0242   4.0242
     4.5216   4.5216   4.7118   4.7118   5.1341   5.1341   5.2428   5.2428
     6.1158   6.1158   6.3766   6.3766   6.6766   6.6766   6.7192   6.7192
     7.1803   7.1803   7.6230   7.6230   8.4060   8.4060   8.5963   8.5963
    10.1403  10.1403  10.4171  10.4171

     occupation numbers 
     1.0000   1.0000   1.0000   1.0000   1.0000   1.0000   1.0000   1.0000
     1.0000   1.0000   1.0000   1.0000   1.0000   1.0000   1.0000   1.0000
     1.0000   1.0000   1.0000   1.0000   1.0000   1.0000   1.0000   1.0000
     1.0000   1.0000   1.0000   1.0000   1.0000   1.0000   1.0000   1.0000
     1.0000   1.0000   1.0000   1.0000

          k = 0.1667 0.8660 0.2107 (  3004 PWs)   bands (ev):

    -7.9794  -7.9794  -7.4876  -7.4876   3.5476   3.5476   3.8428   3.8428
     4.5444   4.5444   4.6926   4.6926   5.0329   5.0329   5.1784   5.1784
     6.1864   6.1864   6.4599   6.4599   6.6937   6.6937   6.7942   6.7942
     7.2080   7.2080   7.8257   7.8257   8.4823   8.4823   8.6623   8.6623
    10.1853  10.1853  10.3235  10.3235

     occupation numbers 
     1.0000   1.0000   1.0000   1.0000   1.0000   1.0000   1.0000   1.0000
     1.0000   1.0000   1.0000   1.0000   1.0000   1.0000   1.0000   1.0000
     1.0000   1.0000   1.0000   1.0000   1.0000   1.0000   1.0000   1.0000
     1.0000   1.0000   1.0000   1.0000   1.0000   1.0000   1.0000   1.0000
     1.0000   1.0000   1.0000   1.0000

          k = 0.1667 0.8660 0.4214 (  3002 PWs)   bands (ev):

    -7.8675  -7.8674  -7.5823  -7.5822   3.4114   3.4114   3.5345   3.5345
     4.6087   4.6087   4.6813   4.6813   4.9031   4.9031   5.0310   5.0310
     6.3626   6.3626   6.5191   6.5191   6.6437   6.6437   6.7566   6.7566
     7.4775   7.4775   7.9532   7.9532   8.8786   8.8786   9.0573   9.0573
     9.9353   9.9353  10.2117  10.2117

     occupation numbers 
     1.0000   1.0000   1.0000   1.0000   1.0000   1.0000   1.0000   1.0000
     1.0000   1.0000   1.0000   1.0000   1.0000   1.0000   1.0000   1.0000
     1.0000   1.0000   1.0000   1.0000   1.0000   1.0000   1.0000   1.0000
     1.0000   1.0000   1.0000   1.0000   1.0000   1.0000   1.0000   1.0000
     1.0000   1.0000   1.0000   1.0000

          k = 0.1667 0.8660-0.6321 (  2992 PWs)   bands (ev):

    -7.7206  -7.7205  -7.7205  -7.7205   3.3726   3.3726   3.3726   3.3726
     4.6718   4.6719   4.6719   4.6719   4.8960   4.8960   4.8960   4.8960
     6.5268   6.5268   6.5268   6.5268   6.6285   6.6285   6.6285   6.6285
     7.7581   7.7581   7.7581   7.7581   9.4211   9.4211   9.4211   9.4211
     9.7807   9.7807   9.7807   9.7807

     occupation numbers 
     1.0000   1.0000   1.0000   1.0000   1.0000   1.0000   1.0000   1.0000
     1.0000   1.0000   1.0000   1.0000   1.0000   1.0000   1.0000   1.0000
     1.0000   1.0000   1.0000   1.0000   1.0000   1.0000   1.0000   1.0000
     1.0000   1.0000   1.0000   1.0000   1.0000   1.0000   1.0000   1.0000
     1.0000   1.0000   1.0000   1.0000

          k = 0.1667-1.0585 0.0000 (  2994 PWs)   bands (ev):

    -7.8380  -7.8380  -7.4587  -7.4587   3.6883   3.6883   3.8697   3.8697
     4.5600   4.5600   4.7691   4.7691   5.1962   5.1962   5.3984   5.3984
     6.2731   6.2731   6.4526   6.4526   6.7331   6.7331   6.8074   6.8074
     7.0333   7.0333   7.5724   7.5724   7.8395   7.8395   8.3367   8.3367
     9.8021   9.8022  10.2438  10.2438

     occupation numbers 
     1.0000   1.0000   1.0000   1.0000   1.0000   1.0000   1.0000   1.0000
     1.0000   1.0000   1.0000   1.0000   1.0000   1.0000   1.0000   1.0000
     1.0000   1.0000   1.0000   1.0000   1.0000   1.0000   1.0000   1.0000
     1.0000   1.0000   1.0000   1.0000   1.0000   1.0000   1.0000   1.0000
     1.0000   1.0000   1.0000   1.0000

          k = 0.1667-1.0585 0.2107 (  3004 PWs)   bands (ev):

    -7.8072  -7.8071  -7.4778  -7.4778   3.5985   3.5985   3.7267   3.7267
     4.5852   4.5852   4.7517   4.7517   5.1225   5.1225   5.3128   5.3128
     6.3488   6.3488   6.5055   6.5055   6.7112   6.7112   6.8522   6.8522
     7.0357   7.0357   7.5082   7.5082   8.1270   8.1271   8.5467   8.5467
     9.8764   9.8764  10.1453  10.1453

     occupation numbers 
     1.0000   1.0000   1.0000   1.0000   1.0000   1.0000   1.0000   1.0000
     1.0000   1.0000   1.0000   1.0000   1.0000   1.0000   1.0000   1.0000
     1.0000   1.0000   1.0000   1.0000   1.0000   1.0000   1.0000   1.0000
     1.0000   1.0000   1.0000   1.0000   1.0000   1.0000   1.0000   1.0000
     1.0000   1.0000   1.0000   1.0000

          k = 0.1667-1.0585 0.4214 (  2996 PWs)   bands (ev):

    -7.7263  -7.7262  -7.5352  -7.5351   3.4198   3.4198   3.4747   3.4747
     4.6626   4.6626   4.7448   4.7449   5.0064   5.0064   5.1322   5.1322
     6.4785   6.4785   6.5526   6.5526   6.6986   6.6986   6.8398   6.8398
     7.1366   7.1366   7.4082   7.4082   8.6714   8.6714   9.1283   9.1283
     9.7031   9.7031  10.0623  10.0623

     occupation numbers 
     1.0000   1.0000   1.0000   1.0000   1.0000   1.0000   1.0000   1.0000
     1.0000   1.0000   1.0000   1.0000   1.0000   1.0000   1.0000   1.0000
     1.0000   1.0000   1.0000   1.0000   1.0000   1.0000   1.0000   1.0000
     1.0000   1.0000   1.0000   1.0000   1.0000   1.0000   1.0000   1.0000
     1.0000   1.0000   1.0000   1.0000

          k = 0.1667-1.0585-0.6321 (  2996 PWs)   bands (ev):

    -7.6248  -7.6248  -7.6248  -7.6248   3.3473   3.3473   3.3473   3.3473
     4.7405   4.7405   4.7405   4.7405   4.9867   4.9868   4.9868   4.9868
     6.5484   6.5484   6.5484   6.5484   6.7563   6.7563   6.7563   6.7563
     7.2827   7.2827   7.2827   7.2827   9.2180   9.2180   9.2180   9.2180
     9.7715   9.7715   9.7715   9.7715

     occupation numbers 
     1.0000   1.0000   1.0000   1.0000   1.0000   1.0000   1.0000   1.0000
     1.0000   1.0000   1.0000   1.0000   1.0000   1.0000   1.0000   1.0000
     1.0000   1.0000   1.0000   1.0000   1.0000   1.0000   1.0000   1.0000
     1.0000   1.0000   1.0000   1.0000   1.0000   1.0000   1.0000   1.0000
     1.0000   1.0000   1.0000   1.0000

          k = 0.1667-0.6736 0.0000 (  2993 PWs)   bands (ev):

    -8.2826  -7.6889  -7.4952  -7.4863   3.6711   4.0034   4.1140   4.2633
     4.4589   4.5287   4.6064   4.6717   4.8652   5.0378   5.3393   5.4606
     6.0315   6.1537   6.2205   6.3177   6.5200   6.5922   6.6363   6.6974
     7.0020   7.2488   7.4485   7.7904   8.0136   8.5465   8.8963   9.2948
     9.3186   9.5819  10.5716  10.7030

     occupation numbers 
     1.0000   1.0000   1.0000   1.0000   1.0000   1.0000   1.0000   1.0000
     1.0000   1.0000   1.0000   1.0000   1.0000   1.0000   1.0000   1.0000
     1.0000   1.0000   1.0000   1.0000   1.0000   1.0000   1.0000   1.0000
     1.0000   1.0000   1.0000   1.0000   1.0000   1.0000   1.0000   1.0000
     1.0000   1.0000   1.0000   1.0000

          k = 0.1667-0.6736 0.2107 (  2996 PWs)   bands (ev):

    -8.2287  -7.6689  -7.5457  -7.4930   3.6089   3.9034   3.9602   4.1133
     4.4072   4.4759   4.5925   4.6310   4.8116   4.9885   5.2711   5.3478
     6.1229   6.1865   6.3652   6.3959   6.6377   6.6628   6.6723   6.7364
     7.1696   7.3996   7.4766   7.7381   8.1471   8.7615   8.9904   9.2091
     9.2679   9.6535  10.5636  10.6143

     occupation numbers 
     1.0000   1.0000   1.0000   1.0000   1.0000   1.0000   1.0000   1.0000
     1.0000   1.0000   1.0000   1.0000   1.0000   1.0000   1.0000   1.0000
     1.0000   1.0000   1.0000   1.0000   1.0000   1.0000   1.0000   1.0000
     1.0000   1.0000   1.0000   1.0000   1.0000   1.0000   1.0000   1.0000
     1.0000   1.0000   1.0000   1.0000

          k = 0.1667-0.6736 0.4214 (  3002 PWs)   bands (ev):

    -8.0817  -7.6861  -7.6186  -7.5165   3.4790   3.5879   3.7929   3.8339
     4.3330   4.5140   4.5291   4.5800   4.7371   4.8730   5.2003   5.2292
     6.2766   6.3137   6.4033   6.4390   6.6097   6.6908   6.8267   6.9914
     7.2029   7.4736   7.8033   8.0294   8.5270   8.7873   9.0209   9.4031
     9.4108   9.8635  10.2711  10.3960

     occupation numbers 
     1.0000   1.0000   1.0000   1.0000   1.0000   1.0000   1.0000   1.0000
     1.0000   1.0000   1.0000   1.0000   1.0000   1.0000   1.0000   1.0000
     1.0000   1.0000   1.0000   1.0000   1.0000   1.0000   1.0000   1.0000
     1.0000   1.0000   1.0000   1.0000   1.0000   1.0000   1.0000   1.0000
     1.0000   1.0000   1.0000   1.0000

          k = 0.1667-0.6736-0.6321 (  3000 PWs)   bands (ev):

    -7.8823  -7.8823  -7.5608  -7.5608   3.4367   3.4367   3.6978   3.6978
     4.4079   4.4079   4.5578   4.5578   4.7586   4.7586   5.1838   5.1838
     6.3512   6.3512   6.5052   6.5052   6.5418   6.5418   7.0148   7.0148
     7.3047   7.3047   8.2936   8.2936   8.4017   8.4018   9.6669   9.6669
     9.8144   9.8144   9.9129   9.9129

     occupation numbers 
     1.0000   1.0000   1.0000   1.0000   1.0000   1.0000   1.0000   1.0000
     1.0000   1.0000   1.0000   1.0000   1.0000   1.0000   1.0000   1.0000
     1.0000   1.0000   1.0000   1.0000   1.0000   1.0000   1.0000   1.0000
     1.0000   1.0000   1.0000   1.0000   1.0000   1.0000   1.0000   1.0000
     1.0000   1.0000   1.0000   1.0000

          k = 0.1667-0.2887 0.0000 (  2981 PWs)   bands (ev):

    -8.7535  -7.7470  -7.6448  -7.4717   3.8609   3.8882   4.0329   4.0546
     4.3402   4.4075   4.4936   4.4965   4.6656   4.7270   5.2534   5.4654
     6.1800   6.2476   6.2500   6.3681   6.6621   6.6824   6.6839   6.7053
     7.0423   7.1399   7.4316   7.6021   8.4400   9.4720   9.5768   9.8909
     9.9325  10.6147  11.1849  11.2894

     occupation numbers 
     1.0000   1.0000   1.0000   1.0000   1.0000   1.0000   1.0000   1.0000
     1.0000   1.0000   1.0000   1.0000   1.0000   1.0000   1.0000   1.0000
     1.0000   1.0000   1.0000   1.0000   1.0000   1.0000   1.0000   1.0000
     1.0000   1.0000   1.0000   1.0000   1.0000   1.0000   1.0000   1.0000
     1.0000   1.0000   1.0000   1.0000

          k = 0.1667-0.2887 0.2107 (  3002 PWs)   bands (ev):

    -8.6832  -7.7229  -7.7225  -7.4834   3.7624   3.7804   3.8954   3.9721
     4.3442   4.3767   4.4841   4.4983   4.6303   4.7091   5.1917   5.3570
     6.2303   6.2855   6.3252   6.4251   6.6447   6.6753   6.7278   6.7284
     7.2466   7.3895   7.3929   7.7099   8.6919   9.4822   9.6638   9.9060
     9.9653  10.4038  11.1119  11.2009

     occupation numbers 
     1.0000   1.0000   1.0000   1.0000   1.0000   1.0000   1.0000   1.0000
     1.0000   1.0000   1.0000   1.0000   1.0000   1.0000   1.0000   1.0000
     1.0000   1.0000   1.0000   1.0000   1.0000   1.0000   1.0000   1.0000
     1.0000   1.0000   1.0000   1.0000   1.0000   1.0000   1.0000   1.0000
     1.0000   1.0000   1.0000   1.0000

          k = 0.1667-0.2887 0.4214 (  3016 PWs)   bands (ev):

    -8.4882  -7.9335  -7.6594  -7.5206   3.6001   3.6110   3.6241   3.7983
     4.3559   4.3741   4.4623   4.5058   4.5462   4.6609   5.1123   5.1890
     6.3536   6.3795   6.4092   6.4659   6.5877   6.6131   6.8452   6.8500
     7.2317   7.2989   8.1656   8.2216   9.2119   9.2730   9.8144   9.9162
     9.9684  10.3039  10.7848  10.9581

     occupation numbers 
     1.0000   1.0000   1.0000   1.0000   1.0000   1.0000   1.0000   1.0000
     1.0000   1.0000   1.0000   1.0000   1.0000   1.0000   1.0000   1.0000
     1.0000   1.0000   1.0000   1.0000   1.0000   1.0000   1.0000   1.0000
     1.0000   1.0000   1.0000   1.0000   1.0000   1.0000   1.0000   1.0000
     1.0000   1.0000   1.0000   1.0000

          k = 0.1667-0.2887-0.6321 (  3020 PWs)   bands (ev):

    -8.2148  -8.2148  -7.5836  -7.5836   3.5061   3.5061   3.6305   3.6305
     4.3841   4.3841   4.4598   4.4598   4.5817   4.5817   5.1010   5.1010
     6.4524   6.4524   6.4919   6.4919   6.4974   6.4974   6.9296   6.9296
     7.2111   7.2111   8.7156   8.7156   9.1237   9.1237   9.8019   9.8019
    10.3108  10.3108  10.6271  10.6271

     occupation numbers 
     1.0000   1.0000   1.0000   1.0000   1.0000   1.0000   1.0000   1.0000
     1.0000   1.0000   1.0000   1.0000   1.0000   1.0000   1.0000   1.0000
     1.0000   1.0000   1.0000   1.0000   1.0000   1.0000   1.0000   1.0000
     1.0000   1.0000   1.0000   1.0000   1.0000   1.0000   1.0000   1.0000
     1.0000   1.0000   1.0000   1.0000

          k = 0.3333 0.1925 0.0000 (  3010 PWs)   bands (ev):

    -8.6992  -8.1757  -7.6241  -7.4743   3.5802   3.8682   4.0705   4.0739
     4.3534   4.3904   4.5367   4.5381   4.6126   4.7005   5.0297   5.1179
     6.0418   6.1473   6.2569   6.3878   6.5890   6.6684   6.6828   6.7059
     7.0520   7.2774   7.6910   8.8762   8.9623   9.2998   9.8603  10.3947
    10.3979  10.6708  11.1188  11.2482

     occupation numbers 
     1.0000   1.0000   1.0000   1.0000   1.0000   1.0000   1.0000   1.0000
     1.0000   1.0000   1.0000   1.0000   1.0000   1.0000   1.0000   1.0000
     1.0000   1.0000   1.0000   1.0000   1.0000   1.0000   1.0000   1.0000
     1.0000   1.0000   1.0000   1.0000   1.0000   1.0000   1.0000   1.0000
     1.0000   1.0000   1.0000   1.0000

          k = 0.3333 0.1925 0.2107 (  3012 PWs)   bands (ev):

    -8.6305  -8.1264  -7.6991  -7.5179   3.5187   3.7627   3.8649   3.9488
     4.3659   4.3943   4.5291   4.5639   4.6134   4.6645   4.9369   5.0628
     6.1383   6.2056   6.2918   6.4076   6.6494   6.6794   6.6841   6.7298
     7.3971   7.4121   7.8734   8.8740   9.0145   9.3875   9.9565  10.2034
    10.4372  10.5605  11.0443  11.1584

     occupation numbers 
     1.0000   1.0000   1.0000   1.0000   1.0000   1.0000   1.0000   1.0000
     1.0000   1.0000   1.0000   1.0000   1.0000   1.0000   1.0000   1.0000
     1.0000   1.0000   1.0000   1.0000   1.0000   1.0000   1.0000   1.0000
     1.0000   1.0000   1.0000   1.0000   1.0000   1.0000   1.0000   1.0000
     1.0000   1.0000   1.0000   1.0000

          k = 0.3333 0.1925 0.4214 (  3019 PWs)   bands (ev):

    -8.4403  -7.9928  -7.9022  -7.6402   3.3970   3.5385   3.5997   3.7551
     4.3873   4.4070   4.4833   4.5772   4.6241   4.6451   4.7936   4.9283
     6.3331   6.3415   6.3819   6.4617   6.5899   6.6148   6.6200   6.7026
     7.7777   8.2278   8.2299   8.9730   9.3713   9.5846   9.8397  10.2169
    10.2553  10.2994  10.6874  10.9106

     occupation numbers 
     1.0000   1.0000   1.0000   1.0000   1.0000   1.0000   1.0000   1.0000
     1.0000   1.0000   1.0000   1.0000   1.0000   1.0000   1.0000   1.0000
     1.0000   1.0000   1.0000   1.0000   1.0000   1.0000   1.0000   1.0000
     1.0000   1.0000   1.0000   1.0000   1.0000   1.0000   1.0000   1.0000
     1.0000   1.0000   1.0000   1.0000

          k = 0.3333 0.1925-0.6321 (  3030 PWs)   bands (ev):

    -8.1745  -8.1745  -7.8138  -7.8138   3.3697   3.3697   3.5994   3.5994
     4.4212   4.4212   4.4808   4.4808   4.6824   4.6824   4.7736   4.7736
     6.4932   6.4932   6.4955   6.4955   6.5360   6.5360   6.5382   6.5382
     8.0828   8.0828   9.0924   9.0924   9.7196   9.7196   9.8252   9.8252
    10.1482  10.1482  10.5669  10.5669

     occupation numbers 
     1.0000   1.0000   1.0000   1.0000   1.0000   1.0000   1.0000   1.0000
     1.0000   1.0000   1.0000   1.0000   1.0000   1.0000   1.0000   1.0000
     1.0000   1.0000   1.0000   1.0000   1.0000   1.0000   1.0000   1.0000
     1.0000   1.0000   1.0000   1.0000   1.0000   1.0000   1.0000   1.0000
     1.0000   1.0000   1.0000   1.0000

          k = 0.3333 0.5774 0.0000 (  3002 PWs)   bands (ev):

    -8.3208  -8.3208  -7.5038  -7.5038   3.7705   3.7705   4.0449   4.0449
     4.5378   4.5378   4.5560   4.5560   4.7553   4.7553   5.0159   5.0159
     6.0542   6.0542   6.2778   6.2778   6.6630   6.6630   6.6921   6.6921
     7.2351   7.2351   8.2698   8.2698   8.7243   8.7243   9.4514   9.4514
    10.6493  10.6493  10.6505  10.6505

     occupation numbers 
     1.0000   1.0000   1.0000   1.0000   1.0000   1.0000   1.0000   1.0000
     1.0000   1.0000   1.0000   1.0000   1.0000   1.0000   1.0000   1.0000
     1.0000   1.0000   1.0000   1.0000   1.0000   1.0000   1.0000   1.0000
     1.0000   1.0000   1.0000   1.0000   1.0000   1.0000   1.0000   1.0000
     1.0000   1.0000   1.0000   1.0000

          k = 0.3333 0.5774 0.2107 (  3012 PWs)   bands (ev):

    -8.2653  -8.2653  -7.5568  -7.5568   3.7057   3.7057   3.8725   3.8725
     4.5068   4.5068   4.5106   4.5106   4.7505   4.7505   4.9693   4.9693
     6.1322   6.1322   6.3461   6.3461   6.6688   6.6688   6.7446   6.7446
     7.4868   7.4868   8.3994   8.3994   8.8167   8.8167   9.3514   9.3514
    10.5329  10.5329  10.6549  10.6549

     occupation numbers 
     1.0000   1.0000   1.0000   1.0000   1.0000   1.0000   1.0000   1.0000
     1.0000   1.0000   1.0000   1.0000   1.0000   1.0000   1.0000   1.0000
     1.0000   1.0000   1.0000   1.0000   1.0000   1.0000   1.0000   1.0000
     1.0000   1.0000   1.0000   1.0000   1.0000   1.0000   1.0000   1.0000
     1.0000   1.0000   1.0000   1.0000

          k = 0.3333 0.5774 0.4214 (  3002 PWs)   bands (ev):

    -8.1138  -8.1137  -7.7035  -7.7035   3.5617   3.5617   3.5894   3.5894
     4.4817   4.4817   4.4933   4.4933   4.7282   4.7282   4.8620   4.8620
     6.3136   6.3136   6.4328   6.4328   6.6085   6.6085   6.6908   6.6908
     8.1235   8.1235   8.8406   8.8406   8.8788   8.8788   9.3728   9.3728
    10.2210  10.2210  10.4279  10.4279

     occupation numbers 
     1.0000   1.0000   1.0000   1.0000   1.0000   1.0000   1.0000   1.0000
     1.0000   1.0000   1.0000   1.0000   1.0000   1.0000   1.0000   1.0000
     1.0000   1.0000   1.0000   1.0000   1.0000   1.0000   1.0000   1.0000
     1.0000   1.0000   1.0000   1.0000   1.0000   1.0000   1.0000   1.0000
     1.0000   1.0000   1.0000   1.0000

          k = 0.3333 0.5774-0.6321 (  3008 PWs)   bands (ev):

    -7.9075  -7.9075  -7.9074  -7.9074   3.4801   3.4801   3.4801   3.4801
     4.4869   4.4869   4.4869   4.4869   4.7608   4.7608   4.7608   4.7608
     6.4992   6.4992   6.4992   6.4992   6.5446   6.5446   6.5446   6.5446
     8.5613   8.5613   8.5613   8.5613   9.6112   9.6112   9.6112   9.6112
     9.9058   9.9058   9.9058   9.9058

     occupation numbers 
     1.0000   1.0000   1.0000   1.0000   1.0000   1.0000   1.0000   1.0000
     1.0000   1.0000   1.0000   1.0000   1.0000   1.0000   1.0000   1.0000
     1.0000   1.0000   1.0000   1.0000   1.0000   1.0000   1.0000   1.0000
     1.0000   1.0000   1.0000   1.0000   1.0000   1.0000   1.0000   1.0000
     1.0000   1.0000   1.0000   1.0000

          k = 0.3333-0.9623 0.0000 (  3000 PWs)   bands (ev):

    -7.8488  -7.8488  -7.4532  -7.4531   3.8040   3.8040   4.0578   4.0578
     4.5132   4.5132   4.7231   4.7231   5.2312   5.2312   5.3728   5.3728
     6.1637   6.1637   6.2826   6.2826   6.7368   6.7368   6.7674   6.7674
     7.1083   7.1083   7.5900   7.5901   7.8529   7.8529   8.3477   8.3477
     9.7451   9.7451  10.0333  10.0334

     occupation numbers 
     1.0000   1.0000   1.0000   1.0000   1.0000   1.0000   1.0000   1.0000
     1.0000   1.0000   1.0000   1.0000   1.0000   1.0000   1.0000   1.0000
     1.0000   1.0000   1.0000   1.0000   1.0000   1.0000   1.0000   1.0000
     1.0000   1.0000   1.0000   1.0000   1.0000   1.0000   1.0000   1.0000
     1.0000   1.0000   1.0000   1.0000

          k = 0.3333-0.9623 0.2107 (  2990 PWs)   bands (ev):

    -7.8170  -7.8169  -7.4735  -7.4735   3.7228   3.7228   3.9122   3.9122
     4.4957   4.4957   4.6858   4.6858   5.1435   5.1435   5.2824   5.2824
     6.2061   6.2061   6.4548   6.4548   6.7227   6.7227   6.8879   6.8879
     7.0583   7.0583   7.7236   7.7237   7.9273   7.9273   8.5177   8.5177
     9.7255   9.7255  10.0267  10.0267

     occupation numbers 
     1.0000   1.0000   1.0000   1.0000   1.0000   1.0000   1.0000   1.0000
     1.0000   1.0000   1.0000   1.0000   1.0000   1.0000   1.0000   1.0000
     1.0000   1.0000   1.0000   1.0000   1.0000   1.0000   1.0000   1.0000
     1.0000   1.0000   1.0000   1.0000   1.0000   1.0000   1.0000   1.0000
     1.0000   1.0000   1.0000   1.0000

          k = 0.3333-0.9623 0.4214 (  2990 PWs)   bands (ev):

    -7.7334  -7.7334  -7.5341  -7.5341   3.5561   3.5561   3.6330   3.6330
     4.5133   4.5133   4.6311   4.6311   5.0481   5.0481   5.1303   5.1303
     6.3560   6.3560   6.5187   6.5187   6.7298   6.7298   6.9174   6.9174
     7.2129   7.2129   7.6822   7.6822   8.3251   8.3251   9.0310   9.0311
     9.4734   9.4734  10.0690  10.0690

     occupation numbers 
     1.0000   1.0000   1.0000   1.0000   1.0000   1.0000   1.0000   1.0000
     1.0000   1.0000   1.0000   1.0000   1.0000   1.0000   1.0000   1.0000
     1.0000   1.0000   1.0000   1.0000   1.0000   1.0000   1.0000   1.0000
     1.0000   1.0000   1.0000   1.0000   1.0000   1.0000   1.0000   1.0000
     1.0000   1.0000   1.0000   1.0000

          k = 0.3333-0.9623-0.6321 (  2996 PWs)   bands (ev):

    -7.6280  -7.6280  -7.6280  -7.6280   3.4893   3.4893   3.4894   3.4894
     4.5735   4.5735   4.5735   4.5735   5.0367   5.0367   5.0367   5.0367
     6.4777   6.4777   6.4777   6.4777   6.7980   6.7980   6.7980   6.7980
     7.4825   7.4825   7.4825   7.4825   8.8399   8.8399   8.8399   8.8399
     9.8014   9.8014   9.8014   9.8014

     occupation numbers 
     1.0000   1.0000   1.0000   1.0000   1.0000   1.0000   1.0000   1.0000
     1.0000   1.0000   1.0000   1.0000   1.0000   1.0000   1.0000   1.0000
     1.0000   1.0000   1.0000   1.0000   1.0000   1.0000   1.0000   1.0000
     1.0000   1.0000   1.0000   1.0000   1.0000   1.0000   1.0000   1.0000
     1.0000   1.0000   1.0000   1.0000

          k = 0.3333-0.5774 0.0000 (  3001 PWs)   bands (ev):

    -8.3208  -7.5645  -7.5645  -7.5038   3.7707   4.0449   4.0578   4.5037
     4.5038   4.5377   4.5560   4.6562   4.7553   5.0158   5.4224   5.4224
     6.0542   6.1070   6.2779   6.2828   6.2828   6.3784   6.6630   6.6921
     6.9783   7.2351   7.6416   7.6416   8.2698   8.7243   9.0289   9.0289
     9.1758   9.4514  10.6492  10.6505

     occupation numbers 
     1.0000   1.0000   1.0000   1.0000   1.0000   1.0000   1.0000   1.0000
     1.0000   1.0000   1.0000   1.0000   1.0000   1.0000   1.0000   1.0000
     1.0000   1.0000   1.0000   1.0000   1.0000   1.0000   1.0000   1.0000
     1.0000   1.0000   1.0000   1.0000   1.0000   1.0000   1.0000   1.0000
     1.0000   1.0000   1.0000   1.0000

          k = 0.3333-0.5774 0.2107 (  3003 PWs)   bands (ev):

    -8.2653  -7.5575  -7.5575  -7.5568   3.7058   3.8725   4.0829   4.3107
     4.3107   4.5068   4.5106   4.5898   4.7506   4.9693   5.3494   5.3494
     6.1315   6.1321   6.3461   6.3625   6.5248   6.5248   6.6688   6.7446
     7.1258   7.4868   7.5729   7.5729   8.3994   8.8167   9.0130   9.2271
     9.2271   9.3514  10.5328  10.6549

     occupation numbers 
     1.0000   1.0000   1.0000   1.0000   1.0000   1.0000   1.0000   1.0000
     1.0000   1.0000   1.0000   1.0000   1.0000   1.0000   1.0000   1.0000
     1.0000   1.0000   1.0000   1.0000   1.0000   1.0000   1.0000   1.0000
[...]

    -8.4403  -7.9022  -7.7334  -7.5341   3.5560   3.5997   3.6330   3.7552
     4.3873   4.4068   4.4833   4.5134   4.5771   4.6311   5.0481   5.1304
     6.3415   6.3560   6.3819   6.5187   6.5899   6.6201   6.7298   6.9173
     7.2129   7.6822   8.2299   8.3252   9.0311   9.4735   9.5848   9.8397
    10.0690  10.2168  10.6875  10.9105

     occupation numbers 
     1.0000   1.0000   1.0000   1.0000   1.0000   1.0000   1.0000   1.0000
     1.0000   1.0000   1.0000   1.0000   1.0000   1.0000   1.0000   1.0000
     1.0000   1.0000   1.0000   1.0000   1.0000   1.0000   1.0000   1.0000
     1.0000   1.0000   1.0000   1.0000   1.0000   1.0000   1.0000   1.0000
     1.0000   1.0000   1.0000   1.0000

          k = 0.6667-0.3849-0.2107 (  3000 PWs)   bands (ev):

    -8.1264  -7.8170  -7.5179  -7.4735   3.5187   3.7228   3.8650   3.9122
     4.4957   4.5638   4.6134   4.6858   4.9370   5.0627   5.1434   5.2825
     6.1384   6.2062   6.4076   6.4547   6.6794   6.7226   6.7298   6.8879
     7.0584   7.4122   7.7237   7.8735   7.9273   8.5177   8.8741   9.0143
     9.7255  10.0267  10.4372  10.5604

     occupation numbers 
     1.0000   1.0000   1.0000   1.0000   1.0000   1.0000   1.0000   1.0000
     1.0000   1.0000   1.0000   1.0000   1.0000   1.0000   1.0000   1.0000
     1.0000   1.0000   1.0000   1.0000   1.0000   1.0000   1.0000   1.0000
     1.0000   1.0000   1.0000   1.0000   1.0000   1.0000   1.0000   1.0000
     1.0000   1.0000   1.0000   1.0000

          k = 0.6667-0.3849-0.4214 (  2994 PWs)   bands (ev):

    -7.9928  -7.7334  -7.6402  -7.5341   3.3971   3.5385   3.5560   3.6330
     4.5133   4.6241   4.6311   4.6449   4.7937   4.9282   5.0481   5.1303
     6.3331   6.3561   6.4617   6.5187   6.6148   6.7027   6.7298   6.9174
     7.2129   7.6823   7.7777   8.2279   8.3252   8.9731   9.0310   9.3712
     9.4734  10.0690  10.2552  10.2994

     occupation numbers 
     1.0000   1.0000   1.0000   1.0000   1.0000   1.0000   1.0000   1.0000
     1.0000   1.0000   1.0000   1.0000   1.0000   1.0000   1.0000   1.0000
     1.0000   1.0000   1.0000   1.0000   1.0000   1.0000   1.0000   1.0000
     1.0000   1.0000   1.0000   1.0000   1.0000   1.0000   1.0000   1.0000
     1.0000   1.0000   1.0000   1.0000

          k = 0.1667 0.0962-0.2107 (  3013 PWs)   bands (ev):

    -8.7938  -7.9003  -7.7751  -7.4804   3.5004   3.6877   3.7386   4.1019
     4.2808   4.3169   4.4950   4.5439   4.6174   4.7313   5.0783   5.2472
     6.2716   6.2921   6.2976   6.5140   6.6370   6.6476   6.6944   6.8051
     7.0321   7.3778   7.6750   8.3926   8.6251  10.1017  10.1190  10.2876
    10.3154  10.6972  11.2686  11.3569

     occupation numbers 
     1.0000   1.0000   1.0000   1.0000   1.0000   1.0000   1.0000   1.0000
     1.0000   1.0000   1.0000   1.0000   1.0000   1.0000   1.0000   1.0000
     1.0000   1.0000   1.0000   1.0000   1.0000   1.0000   1.0000   1.0000
     1.0000   1.0000   1.0000   1.0000   1.0000   1.0000   1.0000   1.0000
     1.0000   1.0000   1.0000   1.0000

          k = 0.1667 0.0962-0.4214 (  3017 PWs)   bands (ev):

    -8.5891  -8.0010  -7.8019  -7.5583   3.3513   3.4568   3.6096   3.9015
     4.3092   4.3143   4.4315   4.4644   4.7204   4.7387   4.9258   5.0765
     6.3756   6.3853   6.4552   6.5418   6.5870   6.5948   6.6385   6.7632
     7.2593   7.6479   8.1958   8.9989   9.0303   9.9901   9.9936  10.1198
    10.3564  10.5152  11.0223  11.1337

     occupation numbers 
     1.0000   1.0000   1.0000   1.0000   1.0000   1.0000   1.0000   1.0000
     1.0000   1.0000   1.0000   1.0000   1.0000   1.0000   1.0000   1.0000
     1.0000   1.0000   1.0000   1.0000   1.0000   1.0000   1.0000   1.0000
     1.0000   1.0000   1.0000   1.0000   1.0000   1.0000   1.0000   1.0000
     1.0000   1.0000   1.0000   1.0000

          k = 0.5000-0.0962-0.2107 (  3005 PWs)   bands (ev):

    -8.4819  -8.0248  -7.6360  -7.4935   3.6757   3.7575   3.8856   3.8988
     4.4161   4.4689   4.5118   4.5951   4.6204   4.7899   4.9545   5.1458
     6.1250   6.1666   6.2991   6.4312   6.6562   6.6948   6.7115   6.8158
     7.3534   7.4296   8.0252   8.3219   8.6901   8.9171   9.4690   9.8891
    10.1196  10.3325  10.8894  10.9237

     occupation numbers 
     1.0000   1.0000   1.0000   1.0000   1.0000   1.0000   1.0000   1.0000
     1.0000   1.0000   1.0000   1.0000   1.0000   1.0000   1.0000   1.0000
     1.0000   1.0000   1.0000   1.0000   1.0000   1.0000   1.0000   1.0000
     1.0000   1.0000   1.0000   1.0000   1.0000   1.0000   1.0000   1.0000
     1.0000   1.0000   1.0000   1.0000

          k = 0.5000-0.0962-0.4214 (  3012 PWs)   bands (ev):

    -8.3063  -7.9055  -7.8171  -7.5974   3.5270   3.5829   3.6106   3.6583
     4.4265   4.4613   4.5114   4.5648   4.5752   4.6960   4.8892   5.0162
     6.3185   6.3244   6.3889   6.5099   6.5925   6.6468   6.6540   6.7675
     7.6892   8.2369   8.2429   8.7526   8.8732   9.1915   9.4392   9.7986
     9.9095  10.2602  10.5535  10.6493

     occupation numbers 
     1.0000   1.0000   1.0000   1.0000   1.0000   1.0000   1.0000   1.0000
     1.0000   1.0000   1.0000   1.0000   1.0000   1.0000   1.0000   1.0000
     1.0000   1.0000   1.0000   1.0000   1.0000   1.0000   1.0000   1.0000
     1.0000   1.0000   1.0000   1.0000   1.0000   1.0000   1.0000   1.0000
     1.0000   1.0000   1.0000   1.0000

          k =-0.8333 0.6736-0.2107 (  3004 PWs)   bands (ev):

    -7.8072  -7.8071  -7.4778  -7.4778   3.5985   3.5985   3.7267   3.7267
     4.5852   4.5852   4.7517   4.7517   5.1225   5.1225   5.3128   5.3128
     6.3488   6.3488   6.5055   6.5055   6.7112   6.7112   6.8522   6.8522
     7.0357   7.0357   7.5082   7.5082   8.1270   8.1271   8.5467   8.5467
     9.8764   9.8764  10.1453  10.1453

     occupation numbers 
     1.0000   1.0000   1.0000   1.0000   1.0000   1.0000   1.0000   1.0000
     1.0000   1.0000   1.0000   1.0000   1.0000   1.0000   1.0000   1.0000
     1.0000   1.0000   1.0000   1.0000   1.0000   1.0000   1.0000   1.0000
     1.0000   1.0000   1.0000   1.0000   1.0000   1.0000   1.0000   1.0000
     1.0000   1.0000   1.0000   1.0000

          k =-0.8333 0.6736-0.4214 (  2996 PWs)   bands (ev):

    -7.7263  -7.7262  -7.5352  -7.5351   3.4198   3.4198   3.4747   3.4747
     4.6626   4.6626   4.7448   4.7449   5.0064   5.0064   5.1322   5.1322
     6.4785   6.4785   6.5526   6.5526   6.6986   6.6986   6.8398   6.8398
     7.1366   7.1366   7.4082   7.4082   8.6714   8.6714   9.1283   9.1283
     9.7031   9.7031  10.0623  10.0623

     occupation numbers 
     1.0000   1.0000   1.0000   1.0000   1.0000   1.0000   1.0000   1.0000
     1.0000   1.0000   1.0000   1.0000   1.0000   1.0000   1.0000   1.0000
     1.0000   1.0000   1.0000   1.0000   1.0000   1.0000   1.0000   1.0000
     1.0000   1.0000   1.0000   1.0000   1.0000   1.0000   1.0000   1.0000
     1.0000   1.0000   1.0000   1.0000

          k =-0.5000 0.4811-0.2107 (  2996 PWs)   bands (ev):

    -8.2287  -7.6689  -7.5457  -7.4930   3.6089   3.9034   3.9602   4.1133
     4.4072   4.4759   4.5925   4.6310   4.8115   4.9885   5.2711   5.3478
     6.1229   6.1865   6.3652   6.3959   6.6377   6.6628   6.6723   6.7364
     7.1696   7.3996   7.4766   7.7381   8.1471   8.7615   8.9904   9.2091
     9.2679   9.6535  10.5636  10.6143

     occupation numbers 
     1.0000   1.0000   1.0000   1.0000   1.0000   1.0000   1.0000   1.0000
     1.0000   1.0000   1.0000   1.0000   1.0000   1.0000   1.0000   1.0000
     1.0000   1.0000   1.0000   1.0000   1.0000   1.0000   1.0000   1.0000
     1.0000   1.0000   1.0000   1.0000   1.0000   1.0000   1.0000   1.0000
     1.0000   1.0000   1.0000   1.0000

          k =-0.5000 0.4811-0.4214 (  3002 PWs)   bands (ev):

    -8.0817  -7.6861  -7.6186  -7.5165   3.4790   3.5879   3.7929   3.8339
     4.3330   4.5140   4.5291   4.5800   4.7371   4.8730   5.2003   5.2292
     6.2766   6.3137   6.4033   6.4390   6.6097   6.6908   6.8267   6.9914
     7.2029   7.4736   7.8033   8.0294   8.5270   8.7873   9.0209   9.4031
     9.4108   9.8635  10.2711  10.3960

     occupation numbers 
     1.0000   1.0000   1.0000   1.0000   1.0000   1.0000   1.0000   1.0000
     1.0000   1.0000   1.0000   1.0000   1.0000   1.0000   1.0000   1.0000
     1.0000   1.0000   1.0000   1.0000   1.0000   1.0000   1.0000   1.0000
     1.0000   1.0000   1.0000   1.0000   1.0000   1.0000   1.0000   1.0000
     1.0000   1.0000   1.0000   1.0000

          k = 0.3333 0.1925-0.2107 (  3012 PWs)   bands (ev):

    -8.6305  -8.1264  -7.6991  -7.5179   3.5187   3.7627   3.8649   3.9488
     4.3659   4.3943   4.5291   4.5639   4.6134   4.6645   4.9369   5.0628
     6.1383   6.2056   6.2918   6.4076   6.6494   6.6794   6.6841   6.7298
     7.3971   7.4121   7.8734   8.8740   9.0145   9.3875   9.9565  10.2034
    10.4372  10.5605  11.0443  11.1584

     occupation numbers 
     1.0000   1.0000   1.0000   1.0000   1.0000   1.0000   1.0000   1.0000
     1.0000   1.0000   1.0000   1.0000   1.0000   1.0000   1.0000   1.0000
     1.0000   1.0000   1.0000   1.0000   1.0000   1.0000   1.0000   1.0000
     1.0000   1.0000   1.0000   1.0000   1.0000   1.0000   1.0000   1.0000
     1.0000   1.0000   1.0000   1.0000

          k = 0.3333 0.1925-0.4214 (  3019 PWs)   bands (ev):

    -8.4403  -7.9928  -7.9022  -7.6402   3.3970   3.5385   3.5997   3.7551
     4.3873   4.4070   4.4833   4.5772   4.6241   4.6451   4.7936   4.9283
     6.3331   6.3415   6.3819   6.4617   6.5899   6.6148   6.6200   6.7026
     7.7777   8.2278   8.2299   8.9730   9.3713   9.5846   9.8397  10.2169
    10.2553  10.2994  10.6874  10.9106

     occupation numbers 
     1.0000   1.0000   1.0000   1.0000   1.0000   1.0000   1.0000   1.0000
     1.0000   1.0000   1.0000   1.0000   1.0000   1.0000   1.0000   1.0000
     1.0000   1.0000   1.0000   1.0000   1.0000   1.0000   1.0000   1.0000
     1.0000   1.0000   1.0000   1.0000   1.0000   1.0000   1.0000   1.0000
     1.0000   1.0000   1.0000   1.0000

          k =-0.6667 0.7698-0.2107 (  2990 PWs)   bands (ev):

    -7.8170  -7.8169  -7.4735  -7.4735   3.7228   3.7228   3.9122   3.9122
     4.4957   4.4957   4.6858   4.6858   5.1434   5.1435   5.2824   5.2824
     6.2061   6.2061   6.4548   6.4548   6.7227   6.7227   6.8879   6.8879
     7.0583   7.0583   7.7236   7.7237   7.9273   7.9273   8.5177   8.5177
     9.7255   9.7255  10.0267  10.0267

     occupation numbers 
     1.0000   1.0000   1.0000   1.0000   1.0000   1.0000   1.0000   1.0000
     1.0000   1.0000   1.0000   1.0000   1.0000   1.0000   1.0000   1.0000
     1.0000   1.0000   1.0000   1.0000   1.0000   1.0000   1.0000   1.0000
     1.0000   1.0000   1.0000   1.0000   1.0000   1.0000   1.0000   1.0000
     1.0000   1.0000   1.0000   1.0000

          k =-0.6667 0.7698-0.4214 (  2990 PWs)   bands (ev):

    -7.7334  -7.7334  -7.5341  -7.5341   3.5561   3.5561   3.6330   3.6330
     4.5133   4.5133   4.6311   4.6311   5.0481   5.0481   5.1303   5.1303
     6.3560   6.3560   6.5187   6.5187   6.7298   6.7298   6.9174   6.9174
     7.2129   7.2129   7.6822   7.6822   8.3251   8.3251   9.0310   9.0311
     9.4734   9.4734  10.0690  10.0690

     occupation numbers 
     1.0000   1.0000   1.0000   1.0000   1.0000   1.0000   1.0000   1.0000
     1.0000   1.0000   1.0000   1.0000   1.0000   1.0000   1.0000   1.0000
     1.0000   1.0000   1.0000   1.0000   1.0000   1.0000   1.0000   1.0000
     1.0000   1.0000   1.0000   1.0000   1.0000   1.0000   1.0000   1.0000
     1.0000   1.0000   1.0000   1.0000

     highest occupied level (ev):    11.5046

!    total energy              =    -722.98176055 Ry
     estimated scf accuracy    <          1.5E-09 Ry

     The total energy is the sum of the following terms:
     one-electron contribution =    -244.87643576 Ry
     hartree contribution      =     214.59167846 Ry
     xc contribution           =    -220.39569828 Ry
     ewald contribution        =    -472.30130497 Ry

     convergence has been achieved in  29 iterations

     Forces acting on atoms (cartesian axes, Ry/au):

     atom    1 type  1   force =     0.00001965    0.00001135   -0.02091337
     atom    2 type  1   force =    -0.00001200   -0.00000693   -0.02091847
     atom    3 type  2   force =    -0.00000071   -0.00000041    0.02091468
     atom    4 type  2   force =     0.00000110    0.00000064    0.02091396
     atom    5 type  1   force =     0.00001120    0.00000647   -0.02091466
     atom    6 type  1   force =    -0.00001868   -0.00001078   -0.02091255
     atom    7 type  2   force =    -0.00000011   -0.00000007    0.02091551
     atom    8 type  2   force =    -0.00000046   -0.00000026    0.02091491
     The non-local contrib.  to forces
     atom    1 type  1   force =    -0.00002493   -0.00001439   -0.07287012
     atom    2 type  1   force =     0.00003011    0.00001738   -0.07287218
     atom    3 type  2   force =    -0.00015220   -0.00008787   -0.04130426
     atom    4 type  2   force =     0.00014926    0.00008617   -0.04130486
     atom    5 type  1   force =    -0.00002973   -0.00001717   -0.07287137
     atom    6 type  1   force =     0.00002566    0.00001481   -0.07286912
     atom    7 type  2   force =    -0.00015144   -0.00008743   -0.04130269
     atom    8 type  2   force =     0.00015047    0.00008688   -0.04130398
     The ionic contribution  to forces
     atom    1 type  1   force =     0.00000000    0.00000001   -0.42324054
     atom    2 type  1   force =     0.00000001    0.00000000   -0.42324054
     atom    3 type  2   force =     0.00000000    0.00000001    0.42324054
     atom    4 type  2   force =     0.00000001   -0.00000000    0.42324054
     atom    5 type  1   force =    -0.00000000   -0.00000000   -0.42324053
     atom    6 type  1   force =    -0.00000001   -0.00000001   -0.42324054
     atom    7 type  2   force =    -0.00000000   -0.00000000    0.42324053
     atom    8 type  2   force =    -0.00000001   -0.00000000    0.42324054
     The local contribution  to forces
     atom    1 type  1   force =     0.00003736    0.00002157    0.46799262
     atom    2 type  1   force =    -0.00005119   -0.00002964    0.46800163
     atom    3 type  2   force =     0.00015029    0.00008677   -0.36124912
     atom    4 type  2   force =    -0.00014799   -0.00008547   -0.36124913
     atom    5 type  1   force =     0.00005296    0.00003057    0.46799700
     atom    6 type  1   force =    -0.00004066   -0.00002347    0.46799266
     atom    7 type  2   force =     0.00015164    0.00008755   -0.36124982
     atom    8 type  2   force =    -0.00014758   -0.00008521   -0.36124942
     The core correction contribution to forces
     atom    1 type  1   force =    -0.00000331   -0.00000188    0.00720290
     atom    2 type  1   force =     0.00000345    0.00000197    0.00720264
     atom    3 type  2   force =     0.00000175    0.00000101    0.00022514
     atom    4 type  2   force =    -0.00000170   -0.00000098    0.00022517
     atom    5 type  1   force =    -0.00000361   -0.00000207    0.00720280
     atom    6 type  1   force =     0.00000341    0.00000194    0.00720277
     atom    7 type  2   force =     0.00000173    0.00000099    0.00022513
     atom    8 type  2   force =    -0.00000171   -0.00000099    0.00022514
     The Hubbard contrib.    to forces
     atom    1 type  1   force =     0.00000000    0.00000000    0.00000000
     atom    2 type  1   force =     0.00000000    0.00000000    0.00000000
     atom    3 type  2   force =     0.00000000    0.00000000    0.00000000
     atom    4 type  2   force =     0.00000000    0.00000000    0.00000000
     atom    5 type  1   force =     0.00000000    0.00000000    0.00000000
     atom    6 type  1   force =     0.00000000    0.00000000    0.00000000
     atom    7 type  2   force =     0.00000000    0.00000000    0.00000000
     atom    8 type  2   force =     0.00000000    0.00000000    0.00000000
     The SCF correction term to forces
     atom    1 type  1   force =     0.00001060    0.00000612   -0.00000079
     atom    2 type  1   force =     0.00000576    0.00000332   -0.00001260
     atom    3 type  2   force =    -0.00000047   -0.00000027   -0.00000018
     atom    4 type  2   force =     0.00000162    0.00000094   -0.00000031
     atom    5 type  1   force =    -0.00000833   -0.00000481   -0.00000512
     atom    6 type  1   force =    -0.00000698   -0.00000403   -0.00000089
     atom    7 type  2   force =    -0.00000196   -0.00000113   -0.00000020
     atom    8 type  2   force =    -0.00000155   -0.00000089    0.00000008

     Total force =     0.059156     Total SCF correction =     0.000023

     init_run     :      6.69s CPU      6.98s WALL (       1 calls)
     electrons    :    291.53s CPU    309.56s WALL (       1 calls)
     forces       :      3.23s CPU      3.30s WALL (       1 calls)

     Called by init_run:
     wfcinit      :      2.15s CPU      2.29s WALL (       1 calls)
     wfcinit:atom :      0.06s CPU      0.06s WALL (      20 calls)
     wfcinit:wfcr :      1.52s CPU      1.67s WALL (      20 calls)
     potinit      :      1.18s CPU      1.22s WALL (       1 calls)
     hinit0       :      3.08s CPU      3.10s WALL (       1 calls)

     Called by electrons:
     c_bands      :    249.96s CPU    265.98s WALL (      29 calls)
     sum_band     :     24.17s CPU     24.59s WALL (      29 calls)
     v_of_rho     :      6.81s CPU      6.91s WALL (      30 calls)
     v_h          :      0.32s CPU      0.32s WALL (      30 calls)
     v_xc         :      6.68s CPU      6.79s WALL (      31 calls)
     newd         :      8.18s CPU      9.70s WALL (      30 calls)
     mix_rho      :      0.92s CPU      0.95s WALL (      29 calls)

     Called by c_bands:
     init_us_2    :      6.62s CPU      6.67s WALL (    1200 calls)
     init_us_2:cp :      6.61s CPU      6.67s WALL (    1200 calls)
     cegterg      :    188.18s CPU    204.05s WALL (     580 calls)

     Called by sum_band:
     sum_band:wei :      0.02s CPU      0.02s WALL (      29 calls)
     sum_band:loo :     16.96s CPU     17.11s WALL (      29 calls)
     sum_band:buf :      0.52s CPU      0.59s WALL (     580 calls)
     sum_band:ini :      3.03s CPU      3.05s WALL (     580 calls)
     sum_band:cal :      3.75s CPU      3.76s WALL (     580 calls)
     sum_band:bec :      0.04s CPU      0.04s WALL (     580 calls)
     addusdens    :      2.48s CPU      2.60s WALL (      29 calls)
     addusd:skk   :      0.01s CPU      0.01s WALL (      58 calls)
     addusd:dgemm :      0.33s CPU      0.35s WALL (      58 calls)
     addusd:qvan2 :      1.46s CPU      1.47s WALL (      58 calls)

     Called by *egterg:
     cdiaghg      :     12.56s CPU     12.59s WALL (    2948 calls)
     cegterg:over :     12.33s CPU     12.42s WALL (    2368 calls)
     cegterg:upda :     10.74s CPU     13.55s WALL (    2368 calls)
     cegterg:last :     30.59s CPU     39.38s WALL (    1763 calls)
     h_psi        :     89.35s CPU     89.71s WALL (    2968 calls)
     s_psi        :     11.00s CPU     11.08s WALL (    2968 calls)
     g_psi        :      1.95s CPU      1.99s WALL (    2368 calls)

     Called by h_psi:
     h_psi:calbec :     15.68s CPU     15.72s WALL (    2968 calls)
     vloc_psi     :     61.52s CPU     61.80s WALL (    2968 calls)
     add_vuspsi   :     11.65s CPU     11.69s WALL (    2968 calls)

     General routines
     calbec       :     20.23s CPU     20.29s WALL (    3628 calls)
     fft          :      3.49s CPU      3.50s WALL (     399 calls)
     ffts         :      0.36s CPU      0.36s WALL (      59 calls)
     fftw         :     57.74s CPU     57.98s WALL (   41068 calls)
     interpolate  :      0.56s CPU      0.56s WALL (      30 calls)

     Parallel routines

     PWSCF        :   5m 2.91s CPU   5m21.31s WALL


   This run was terminated on:  14:16:21  26Aug2025            

=------------------------------------------------------------------------------=
   JOB DONE.
=------------------------------------------------------------------------------=
