
     Program PWSCF v.7.0 starts on 27Aug2025 at  0: 9:20 

     This program is part of the open-source Quantum ESPRESSO suite
     for quantum simulation of materials; please cite
         "P. Giannozzi et al., J. Phys.:Condens. Matter 21 395502 (2009);
         "P. Giannozzi et al., J. Phys.:Condens. Matter 29 465901 (2017);
         "P. Giannozzi et al., J. Chem. Phys. 152 154105 (2020);
          URL http://www.quantum-espresso.org", 
     in publications or presentations arising from this work. More details at
     http://www.quantum-espresso.org/quote

     Parallel version (MPI & OpenMP), running on      16 processor cores
     Number of MPI processes:                16
     Threads/MPI process:                     1

     MPI processes distributed on     1 nodes
     K-points division:     npool     =       4
     band groups division:  nbgrp     =       4
     107108 MiB available memory on the printing compute node when the environment starts

     Reading input from /home/jvc/QEspresso7.2/ZnO_database/scripts/cell211.in/ZnO-3.53-1.52-211.in
Warning: card &CELL ignored
Warning: card / ignored
Warning: card &FCP ignored
Warning: card / ignored
Warning: card &RISM ignored
Warning: card / ignored

     Current dimensions of program PWSCF are:
     Max number of different atomic species (ntypx) = 10
     Max number of k-points (npk) =  40000
     Max angular momentum in pseudopotentials (lmaxx) =  4
     file Zn.upf: wavefunction(s)  3D renormalized
     Found identity + ( -0.5000  0.0000  0.0000) symmetry
     This is a supercell, fractional translations are disabled
     Message from routine setup:
     using ibrav=0 with symmetry is DISCOURAGED, use correct ibrav instead

     Subspace diagonalization in iterative solution of the eigenvalue problem:
     a serial algorithm will be used


     G-vector sticks info
     --------------------
     sticks:   dense  smooth     PW     G-vecs:    dense   smooth      PW
     Sum        2467    1227    385               105599    37255    6413

     Using Slab Decomposition



     bravais-lattice index     =            0
     lattice parameter (alat)  =      13.3463  a.u.
     unit-cell volume          =     781.0584 (a.u.)^3
     number of atoms/cell      =            8
     number of atomic types    =            2
     number of electrons       =        72.00
     number of Kohn-Sham states=           36
     kinetic-energy cutoff     =      50.0000  Ry
     charge density cutoff     =     400.0000  Ry
     scf convergence threshold =      1.0E-08
     mixing beta               =       0.3000
     number of iterations used =            8  plain     mixing
     Exchange-correlation= PBE
                           (   1   4   3   4   0   0   0)

     celldm(1)=  13.346325  celldm(2)=   0.000000  celldm(3)=   0.000000
     celldm(4)=   0.000000  celldm(5)=   0.000000  celldm(6)=   0.000000

     crystal axes: (cart. coord. in units of alat)
               a(1) = (   1.000000   0.000000   0.000000 )  
               a(2) = (  -0.250000   0.433013   0.000000 )  
               a(3) = (   0.000000   0.000000   0.758748 )  

     reciprocal axes: (cart. coord. in units 2 pi/alat)
               b(1) = (  1.000000  0.577350 -0.000000 )  
               b(2) = (  0.000000  2.309401  0.000000 )  
               b(3) = (  0.000000 -0.000000  1.317960 )  


     PseudoPot. # 1 for Zn read from file:
     /home/jvc/QEspresso7.2/ZnO_database/pseudos/Zn.upf
     MD5 check sum: 7f56cabf9682ed8c977c2f7d0c5985c5
     Pseudo is Ultrasoft + core correction, Zval = 12.0
     Generated using &quot;atomic&quot; code by A. Dal Corso  v.6.2.2
     Using radial grid of 1201 points,  6 beta functions with: 
                l(1) =   0
                l(2) =   0
                l(3) =   1
                l(4) =   1
                l(5) =   2
                l(6) =   2
     Q(r) pseudized with 0 coefficients 


     PseudoPot. # 2 for O  read from file:
     /home/jvc/QEspresso7.2/ZnO_database/pseudos/O.upf
     MD5 check sum: 91400c9766925bcf19f520983a725ff0
     Pseudo is Ultrasoft + core correction, Zval =  6.0
     Generated using &quot;atomic&quot; code by A. Dal Corso  v.6.3MaX
     Using radial grid of 1095 points,  4 beta functions with: 
                l(1) =   0
                l(2) =   0
                l(3) =   1
                l(4) =   1
     Q(r) pseudized with 0 coefficients 


     atomic species   valence    mass     pseudopotential
        Zn            12.00    65.38000     Zn( 1.00)
        O              6.00    15.99900     O ( 1.00)

      2 Sym. Ops. (no inversion) found


                                    s                        frac. trans.

      isym =  1     identity                                     

 cryst.   s( 1) = (     1          0          0      )
                  (     0          1          0      )
                  (     0          0          1      )

 cart.    s( 1) = (  1.0000000  0.0000000  0.0000000 )
                  (  0.0000000  1.0000000  0.0000000 )
                  (  0.0000000  0.0000000  1.0000000 )


      isym =  2     inv. 180 deg rotation - cryst. axis [0,1,0]  

 cryst.   s( 2) = (     1          2          0      )
                  (     0         -1          0      )
                  (     0          0          1      )

 cart.    s( 2) = (  0.5000000  0.8660254  0.0000000 )
                  (  0.8660254 -0.5000000  0.0000000 )
                  (  0.0000000  0.0000000  1.0000000 )


   Cartesian axes

     site n.     atom                  positions (alat units)
         1           Zn  tau(   1) = (   0.2500000   0.1443376   0.3798549  )
         2           Zn  tau(   2) = (  -0.0000000   0.2886751   0.0004807  )
         3           O   tau(   3) = (   0.2500000   0.1443376   0.6674531  )
         4           O   tau(   4) = (  -0.0000000   0.2886751   0.2880789  )
         5           Zn  tau(   5) = (   0.7500000   0.1443376   0.3798549  )
         6           Zn  tau(   6) = (   0.5000000   0.2886751   0.0004807  )
         7           O   tau(   7) = (   0.7500000   0.1443376   0.6674531  )
         8           O   tau(   8) = (   0.5000000   0.2886751   0.2880789  )

   Crystallographic axes

     site n.     atom                  positions (cryst. coord.)
         1           Zn  tau(   1) = (  0.3333333  0.3333333  0.5006336  )
         2           Zn  tau(   2) = (  0.1666667  0.6666667  0.0006336  )
         3           O   tau(   3) = (  0.3333333  0.3333333  0.8796764  )
         4           O   tau(   4) = (  0.1666667  0.6666667  0.3796764  )
         5           Zn  tau(   5) = (  0.8333333  0.3333333  0.5006336  )
         6           Zn  tau(   6) = (  0.6666667  0.6666667  0.0006336  )
         7           O   tau(   7) = (  0.8333333  0.3333333  0.8796764  )
         8           O   tau(   8) = (  0.6666667  0.6666667  0.3796764  )

     number of k points=    80
                       cart. coord. in units 2pi/alat
        k(    1) = (   0.0000000   0.0000000   0.0000000), wk =   0.0092593
        k(    2) = (   0.0000000   0.0000000   0.2196600), wk =   0.0185185
        k(    3) = (   0.0000000   0.0000000   0.4393200), wk =   0.0185185
        k(    4) = (   0.0000000   0.0000000  -0.6589799), wk =   0.0092593
        k(    5) = (   0.0000000   0.3849002   0.0000000), wk =   0.0370370
        k(    6) = (   0.0000000   0.3849002   0.2196600), wk =   0.0370370
        k(    7) = (   0.0000000   0.3849002   0.4393200), wk =   0.0370370
        k(    8) = (   0.0000000   0.3849002  -0.6589799), wk =   0.0370370
        k(    9) = (   0.0000000   0.7698004   0.0000000), wk =   0.0370370
        k(   10) = (   0.0000000   0.7698004   0.2196600), wk =   0.0370370
        k(   11) = (   0.0000000   0.7698004   0.4393200), wk =   0.0370370
        k(   12) = (   0.0000000   0.7698004  -0.6589799), wk =   0.0370370
        k(   13) = (   0.0000000  -1.1547005   0.0000000), wk =   0.0092593
        k(   14) = (   0.0000000  -1.1547005   0.2196600), wk =   0.0185185
        k(   15) = (   0.0000000  -1.1547005   0.4393200), wk =   0.0185185
        k(   16) = (   0.0000000  -1.1547005  -0.6589799), wk =   0.0092593
        k(   17) = (   0.1666667   0.0962250   0.0000000), wk =   0.0185185
        k(   18) = (   0.1666667   0.0962250   0.2196600), wk =   0.0185185
        k(   19) = (   0.1666667   0.0962250   0.4393200), wk =   0.0185185
        k(   20) = (   0.1666667   0.0962250  -0.6589799), wk =   0.0185185
        k(   21) = (   0.1666667   0.4811252   0.0000000), wk =   0.0370370
        k(   22) = (   0.1666667   0.4811252   0.2196600), wk =   0.0370370
        k(   23) = (   0.1666667   0.4811252   0.4393200), wk =   0.0370370
        k(   24) = (   0.1666667   0.4811252  -0.6589799), wk =   0.0370370
        k(   25) = (   0.1666667   0.8660254   0.0000000), wk =   0.0185185
        k(   26) = (   0.1666667   0.8660254   0.2196600), wk =   0.0370370
        k(   27) = (   0.1666667   0.8660254   0.4393200), wk =   0.0370370
        k(   28) = (   0.1666667   0.8660254  -0.6589799), wk =   0.0185185
        k(   29) = (   0.1666667  -1.0584755   0.0000000), wk =   0.0185185
        k(   30) = (   0.1666667  -1.0584755   0.2196600), wk =   0.0185185
        k(   31) = (   0.1666667  -1.0584755   0.4393200), wk =   0.0185185
        k(   32) = (   0.1666667  -1.0584755  -0.6589799), wk =   0.0185185
        k(   33) = (   0.1666667  -0.6735753   0.0000000), wk =   0.0370370
        k(   34) = (   0.1666667  -0.6735753   0.2196600), wk =   0.0370370
        k(   35) = (   0.1666667  -0.6735753   0.4393200), wk =   0.0370370
        k(   36) = (   0.1666667  -0.6735753  -0.6589799), wk =   0.0370370
        k(   37) = (   0.1666667  -0.2886751   0.0000000), wk =   0.0185185
        k(   38) = (   0.1666667  -0.2886751   0.2196600), wk =   0.0370370
        k(   39) = (   0.1666667  -0.2886751   0.4393200), wk =   0.0370370
        k(   40) = (   0.1666667  -0.2886751  -0.6589799), wk =   0.0185185
        k(   41) = (   0.3333333   0.1924501   0.0000000), wk =   0.0185185
        k(   42) = (   0.3333333   0.1924501   0.2196600), wk =   0.0185185
        k(   43) = (   0.3333333   0.1924501   0.4393200), wk =   0.0185185
        k(   44) = (   0.3333333   0.1924501  -0.6589799), wk =   0.0185185
        k(   45) = (   0.3333333   0.5773503   0.0000000), wk =   0.0185185
        k(   46) = (   0.3333333   0.5773503   0.2196600), wk =   0.0370370
        k(   47) = (   0.3333333   0.5773503   0.4393200), wk =   0.0370370
        k(   48) = (   0.3333333   0.5773503  -0.6589799), wk =   0.0185185
        k(   49) = (   0.3333333  -0.9622504   0.0000000), wk =   0.0185185
        k(   50) = (   0.3333333  -0.9622504   0.2196600), wk =   0.0185185
        k(   51) = (   0.3333333  -0.9622504   0.4393200), wk =   0.0185185
        k(   52) = (   0.3333333  -0.9622504  -0.6589799), wk =   0.0185185
        k(   53) = (   0.3333333  -0.5773503   0.0000000), wk =   0.0185185
        k(   54) = (   0.3333333  -0.5773503   0.2196600), wk =   0.0370370
        k(   55) = (   0.3333333  -0.5773503   0.4393200), wk =   0.0370370
        k(   56) = (   0.3333333  -0.5773503  -0.6589799), wk =   0.0185185
        k(   57) = (  -0.5000000  -0.2886751   0.0000000), wk =   0.0092593
        k(   58) = (  -0.5000000  -0.2886751   0.2196600), wk =   0.0185185
        k(   59) = (  -0.5000000  -0.2886751   0.4393200), wk =   0.0185185
        k(   60) = (  -0.5000000  -0.2886751  -0.6589799), wk =   0.0092593
        k(   61) = (  -0.5000000  -1.4433757   0.0000000), wk =   0.0092593
        k(   62) = (  -0.5000000  -1.4433757   0.2196600), wk =   0.0185185
        k(   63) = (  -0.5000000  -1.4433757   0.4393200), wk =   0.0185185
        k(   64) = (  -0.5000000  -1.4433757  -0.6589799), wk =   0.0092593
        k(   65) = (   0.3333333  -0.1924501  -0.2196600), wk =   0.0370370
        k(   66) = (   0.3333333  -0.1924501  -0.4393200), wk =   0.0370370
        k(   67) = (   0.6666667  -0.3849002  -0.2196600), wk =   0.0370370
        k(   68) = (   0.6666667  -0.3849002  -0.4393200), wk =   0.0370370
        k(   69) = (   0.1666667   0.0962250  -0.2196600), wk =   0.0185185
        k(   70) = (   0.1666667   0.0962250  -0.4393200), wk =   0.0185185
        k(   71) = (   0.5000000  -0.0962250  -0.2196600), wk =   0.0370370
        k(   72) = (   0.5000000  -0.0962250  -0.4393200), wk =   0.0370370
        k(   73) = (  -0.8333333   0.6735753  -0.2196600), wk =   0.0185185
        k(   74) = (  -0.8333333   0.6735753  -0.4393200), wk =   0.0185185
        k(   75) = (  -0.5000000   0.4811252  -0.2196600), wk =   0.0370370
        k(   76) = (  -0.5000000   0.4811252  -0.4393200), wk =   0.0370370
        k(   77) = (   0.3333333   0.1924501  -0.2196600), wk =   0.0185185
        k(   78) = (   0.3333333   0.1924501  -0.4393200), wk =   0.0185185
        k(   79) = (  -0.6666667   0.7698004  -0.2196600), wk =   0.0185185
        k(   80) = (  -0.6666667   0.7698004  -0.4393200), wk =   0.0185185

                       cryst. coord.
        k(    1) = (   0.0000000   0.0000000   0.0000000), wk =   0.0092593
        k(    2) = (   0.0000000   0.0000000   0.1666667), wk =   0.0185185
        k(    3) = (   0.0000000   0.0000000   0.3333333), wk =   0.0185185
        k(    4) = (   0.0000000   0.0000000  -0.5000000), wk =   0.0092593
        k(    5) = (   0.0000000   0.1666667   0.0000000), wk =   0.0370370
        k(    6) = (   0.0000000   0.1666667   0.1666667), wk =   0.0370370
        k(    7) = (   0.0000000   0.1666667   0.3333333), wk =   0.0370370
        k(    8) = (   0.0000000   0.1666667  -0.5000000), wk =   0.0370370
        k(    9) = (   0.0000000   0.3333333   0.0000000), wk =   0.0370370
        k(   10) = (   0.0000000   0.3333333   0.1666667), wk =   0.0370370
        k(   11) = (   0.0000000   0.3333333   0.3333333), wk =   0.0370370
        k(   12) = (   0.0000000   0.3333333  -0.5000000), wk =   0.0370370
        k(   13) = (   0.0000000  -0.5000000   0.0000000), wk =   0.0092593
        k(   14) = (   0.0000000  -0.5000000   0.1666667), wk =   0.0185185
        k(   15) = (   0.0000000  -0.5000000   0.3333333), wk =   0.0185185
        k(   16) = (   0.0000000  -0.5000000  -0.5000000), wk =   0.0092593
        k(   17) = (   0.1666667  -0.0000000   0.0000000), wk =   0.0185185
        k(   18) = (   0.1666667  -0.0000000   0.1666667), wk =   0.0185185
        k(   19) = (   0.1666667  -0.0000000   0.3333333), wk =   0.0185185
        k(   20) = (   0.1666667  -0.0000000  -0.5000000), wk =   0.0185185
        k(   21) = (   0.1666667   0.1666667   0.0000000), wk =   0.0370370
        k(   22) = (   0.1666667   0.1666667   0.1666667), wk =   0.0370370
        k(   23) = (   0.1666667   0.1666667   0.3333333), wk =   0.0370370
        k(   24) = (   0.1666667   0.1666667  -0.5000000), wk =   0.0370370
        k(   25) = (   0.1666667   0.3333333   0.0000000), wk =   0.0185185
        k(   26) = (   0.1666667   0.3333333   0.1666667), wk =   0.0370370
        k(   27) = (   0.1666667   0.3333333   0.3333333), wk =   0.0370370
        k(   28) = (   0.1666667   0.3333333  -0.5000000), wk =   0.0185185
        k(   29) = (   0.1666667  -0.5000000   0.0000000), wk =   0.0185185
        k(   30) = (   0.1666667  -0.5000000   0.1666667), wk =   0.0185185
        k(   31) = (   0.1666667  -0.5000000   0.3333333), wk =   0.0185185
        k(   32) = (   0.1666667  -0.5000000  -0.5000000), wk =   0.0185185
        k(   33) = (   0.1666667  -0.3333333   0.0000000), wk =   0.0370370
        k(   34) = (   0.1666667  -0.3333333   0.1666667), wk =   0.0370370
        k(   35) = (   0.1666667  -0.3333333   0.3333333), wk =   0.0370370
        k(   36) = (   0.1666667  -0.3333333  -0.5000000), wk =   0.0370370
        k(   37) = (   0.1666667  -0.1666667   0.0000000), wk =   0.0185185
        k(   38) = (   0.1666667  -0.1666667   0.1666667), wk =   0.0370370
        k(   39) = (   0.1666667  -0.1666667   0.3333333), wk =   0.0370370
        k(   40) = (   0.1666667  -0.1666667  -0.5000000), wk =   0.0185185
        k(   41) = (   0.3333333  -0.0000000   0.0000000), wk =   0.0185185
        k(   42) = (   0.3333333  -0.0000000   0.1666667), wk =   0.0185185
        k(   43) = (   0.3333333  -0.0000000   0.3333333), wk =   0.0185185
        k(   44) = (   0.3333333  -0.0000000  -0.5000000), wk =   0.0185185
        k(   45) = (   0.3333333   0.1666667   0.0000000), wk =   0.0185185
        k(   46) = (   0.3333333   0.1666667   0.1666667), wk =   0.0370370
        k(   47) = (   0.3333333   0.1666667   0.3333333), wk =   0.0370370
        k(   48) = (   0.3333333   0.1666667  -0.5000000), wk =   0.0185185
        k(   49) = (   0.3333333  -0.5000000   0.0000000), wk =   0.0185185
        k(   50) = (   0.3333333  -0.5000000   0.1666667), wk =   0.0185185
        k(   51) = (   0.3333333  -0.5000000   0.3333333), wk =   0.0185185
        k(   52) = (   0.3333333  -0.5000000  -0.5000000), wk =   0.0185185
        k(   53) = (   0.3333333  -0.3333333   0.0000000), wk =   0.0185185
        k(   54) = (   0.3333333  -0.3333333   0.1666667), wk =   0.0370370
        k(   55) = (   0.3333333  -0.3333333   0.3333333), wk =   0.0370370
        k(   56) = (   0.3333333  -0.3333333  -0.5000000), wk =   0.0185185
        k(   57) = (  -0.5000000   0.0000000   0.0000000), wk =   0.0092593
        k(   58) = (  -0.5000000   0.0000000   0.1666667), wk =   0.0185185
        k(   59) = (  -0.5000000   0.0000000   0.3333333), wk =   0.0185185
        k(   60) = (  -0.5000000   0.0000000  -0.5000000), wk =   0.0092593
        k(   61) = (  -0.5000000  -0.5000000   0.0000000), wk =   0.0092593
        k(   62) = (  -0.5000000  -0.5000000   0.1666667), wk =   0.0185185
        k(   63) = (  -0.5000000  -0.5000000   0.3333333), wk =   0.0185185
        k(   64) = (  -0.5000000  -0.5000000  -0.5000000), wk =   0.0092593
        k(   65) = (   0.3333333  -0.1666667  -0.1666667), wk =   0.0370370
        k(   66) = (   0.3333333  -0.1666667  -0.3333333), wk =   0.0370370
        k(   67) = (   0.6666667  -0.3333333  -0.1666667), wk =   0.0370370
        k(   68) = (   0.6666667  -0.3333333  -0.3333333), wk =   0.0370370
        k(   69) = (   0.1666667   0.0000000  -0.1666667), wk =   0.0185185
        k(   70) = (   0.1666667   0.0000000  -0.3333333), wk =   0.0185185
        k(   71) = (   0.5000000  -0.1666667  -0.1666667), wk =   0.0370370
        k(   72) = (   0.5000000  -0.1666667  -0.3333333), wk =   0.0370370
        k(   73) = (  -0.8333333   0.5000000  -0.1666667), wk =   0.0185185
        k(   74) = (  -0.8333333   0.5000000  -0.3333333), wk =   0.0185185
        k(   75) = (  -0.5000000   0.3333333  -0.1666667), wk =   0.0370370
        k(   76) = (  -0.5000000   0.3333333  -0.3333333), wk =   0.0370370
        k(   77) = (   0.3333333   0.0000000  -0.1666667), wk =   0.0185185
        k(   78) = (   0.3333333   0.0000000  -0.3333333), wk =   0.0185185
        k(   79) = (  -0.6666667   0.5000000  -0.1666667), wk =   0.0185185
        k(   80) = (  -0.6666667   0.5000000  -0.3333333), wk =   0.0185185

     Dense  grid:   105599 G-vectors     FFT dimensions: (  90,  45,  72)

     Smooth grid:    37255 G-vectors     FFT dimensions: (  64,  32,  45)

     Dynamical RAM for                 wfc:       2.56 MB

     Dynamical RAM for     wfc (w. buffer):      53.79 MB

     Dynamical RAM for           str. fact:       3.22 MB

     Dynamical RAM for           local pot:       0.00 MB

     Dynamical RAM for          nlocal pot:       7.40 MB

     Dynamical RAM for                qrad:       3.21 MB

     Dynamical RAM for          rho,v,vnew:      11.51 MB

     Dynamical RAM for               rhoin:       3.84 MB

     Dynamical RAM for            rho*nmix:      25.78 MB

     Dynamical RAM for           G-vectors:       6.33 MB

     Dynamical RAM for          h,s,v(r/c):       0.24 MB

     Dynamical RAM for          <psi|beta>:       0.06 MB

     Dynamical RAM for                 psi:       5.12 MB

     Dynamical RAM for                hpsi:       5.12 MB

     Dynamical RAM for                spsi:       5.12 MB

     Dynamical RAM for      wfcinit/wfcrot:       7.46 MB

     Dynamical RAM for           addusdens:      77.74 MB

     Dynamical RAM for          addusforce:      79.77 MB

     Estimated static dynamical RAM per process >     105.25 MB

     Estimated max dynamical RAM per process >     210.81 MB

     Estimated total dynamical RAM >       2.99 GB

     Check: negative core charge=   -0.000002

     Initial potential from superposition of free atoms

     starting charge      71.9851, renormalised to      72.0000
     Starting wfcs are   52 randomized atomic wfcs

     total cpu time spent up to now is        9.3 secs

     per-process dynamical memory:   125.9 Mb

     Self-consistent Calculation

     iteration #  1     ecut=    50.00 Ry     beta= 0.30
     Davidson diagonalization with overlap

---- Real-time Memory Report at c_bands before calling an iterative solver
           154 MiB given to the printing process from OS
           122 MiB allocation reported by mallinfo(arena+hblkhd)
        105357 MiB available memory on the node where the printing process lives
------------------
     ethr =  1.00E-02,  avg # of iterations =  1.6

     total cpu time spent up to now is       16.8 secs

     total energy              =    -722.83301206 Ry
     estimated scf accuracy    <       1.54649809 Ry

     iteration #  2     ecut=    50.00 Ry     beta= 0.30
     Davidson diagonalization with overlap

---- Real-time Memory Report at c_bands before calling an iterative solver
           259 MiB given to the printing process from OS
           165 MiB allocation reported by mallinfo(arena+hblkhd)
        104849 MiB available memory on the node where the printing process lives
------------------
     ethr =  2.15E-03,  avg # of iterations =  2.2

     total cpu time spent up to now is       25.8 secs

     total energy              =    -723.07605394 Ry
     estimated scf accuracy    <       0.17082601 Ry

     iteration #  3     ecut=    50.00 Ry     beta= 0.30
     Davidson diagonalization with overlap

---- Real-time Memory Report at c_bands before calling an iterative solver
           262 MiB given to the printing process from OS
           168 MiB allocation reported by mallinfo(arena+hblkhd)
        105046 MiB available memory on the node where the printing process lives
------------------
     ethr =  2.37E-04,  avg # of iterations =  6.9

     total cpu time spent up to now is       41.6 secs

     total energy              =    -723.10176690 Ry
     estimated scf accuracy    <       0.19383513 Ry

     iteration #  4     ecut=    50.00 Ry     beta= 0.30
     Davidson diagonalization with overlap

---- Real-time Memory Report at c_bands before calling an iterative solver
           264 MiB given to the printing process from OS
           170 MiB allocation reported by mallinfo(arena+hblkhd)
        105255 MiB available memory on the node where the printing process lives
------------------
     ethr =  2.37E-04,  avg # of iterations =  9.5

     total cpu time spent up to now is       63.4 secs

     total energy              =    -723.25449911 Ry
     estimated scf accuracy    <       0.81069410 Ry

     iteration #  5     ecut=    50.00 Ry     beta= 0.30
     Davidson diagonalization with overlap

---- Real-time Memory Report at c_bands before calling an iterative solver
           264 MiB given to the printing process from OS
           170 MiB allocation reported by mallinfo(arena+hblkhd)
        105164 MiB available memory on the node where the printing process lives
------------------
     ethr =  2.37E-04,  avg # of iterations =  2.0

     total cpu time spent up to now is       71.2 secs

     total energy              =    -722.92984038 Ry
     estimated scf accuracy    <       0.51100536 Ry

     iteration #  6     ecut=    50.00 Ry     beta= 0.30
     Davidson diagonalization with overlap

---- Real-time Memory Report at c_bands before calling an iterative solver
           264 MiB given to the printing process from OS
           170 MiB allocation reported by mallinfo(arena+hblkhd)
        105040 MiB available memory on the node where the printing process lives
------------------
     ethr =  2.37E-04,  avg # of iterations =  8.0

     total cpu time spent up to now is       88.6 secs

     total energy              =    -723.20400837 Ry
     estimated scf accuracy    <       0.50476905 Ry

     iteration #  7     ecut=    50.00 Ry     beta= 0.30
     Davidson diagonalization with overlap

---- Real-time Memory Report at c_bands before calling an iterative solver
           266 MiB given to the printing process from OS
           172 MiB allocation reported by mallinfo(arena+hblkhd)
        104351 MiB available memory on the node where the printing process lives
------------------
     ethr =  2.37E-04,  avg # of iterations =  2.0

     total cpu time spent up to now is       96.6 secs

     total energy              =    -723.18145901 Ry
     estimated scf accuracy    <       0.25679933 Ry

     iteration #  8     ecut=    50.00 Ry     beta= 0.30
     Davidson diagonalization with overlap

---- Real-time Memory Report at c_bands before calling an iterative solver
           267 MiB given to the printing process from OS
           173 MiB allocation reported by mallinfo(arena+hblkhd)
        105014 MiB available memory on the node where the printing process lives
------------------
     ethr =  2.37E-04,  avg # of iterations =  2.2

     total cpu time spent up to now is      104.8 secs

     total energy              =    -723.19569551 Ry
     estimated scf accuracy    <       0.12076171 Ry

     iteration #  9     ecut=    50.00 Ry     beta= 0.30
     Davidson diagonalization with overlap

---- Real-time Memory Report at c_bands before calling an iterative solver
           267 MiB given to the printing process from OS
           174 MiB allocation reported by mallinfo(arena+hblkhd)
        104370 MiB available memory on the node where the printing process lives
------------------
     ethr =  1.68E-04,  avg # of iterations =  2.0

     total cpu time spent up to now is      112.5 secs

     total energy              =    -723.20787106 Ry
     estimated scf accuracy    <       0.09145430 Ry

     iteration # 10     ecut=    50.00 Ry     beta= 0.30
     Davidson diagonalization with overlap

---- Real-time Memory Report at c_bands before calling an iterative solver
           269 MiB given to the printing process from OS
           175 MiB allocation reported by mallinfo(arena+hblkhd)
        104063 MiB available memory on the node where the printing process lives
------------------
     ethr =  1.27E-04,  avg # of iterations =  1.4

     total cpu time spent up to now is      120.0 secs

     total energy              =    -723.19579563 Ry
     estimated scf accuracy    <       0.09062004 Ry

     iteration # 11     ecut=    50.00 Ry     beta= 0.30
     Davidson diagonalization with overlap

---- Real-time Memory Report at c_bands before calling an iterative solver
           269 MiB given to the printing process from OS
           175 MiB allocation reported by mallinfo(arena+hblkhd)
        104692 MiB available memory on the node where the printing process lives
------------------
     ethr =  1.26E-04,  avg # of iterations =  1.8

     total cpu time spent up to now is      127.6 secs

     total energy              =    -723.19557783 Ry
     estimated scf accuracy    <       0.05164680 Ry

     iteration # 12     ecut=    50.00 Ry     beta= 0.30
     Davidson diagonalization with overlap

---- Real-time Memory Report at c_bands before calling an iterative solver
           269 MiB given to the printing process from OS
           175 MiB allocation reported by mallinfo(arena+hblkhd)
        104101 MiB available memory on the node where the printing process lives
------------------
     ethr =  7.17E-05,  avg # of iterations =  2.5

     total cpu time spent up to now is      136.1 secs

     total energy              =    -723.20457198 Ry
     estimated scf accuracy    <       0.03260862 Ry

     iteration # 13     ecut=    50.00 Ry     beta= 0.30
     Davidson diagonalization with overlap

---- Real-time Memory Report at c_bands before calling an iterative solver
           269 MiB given to the printing process from OS
           175 MiB allocation reported by mallinfo(arena+hblkhd)
        104764 MiB available memory on the node where the printing process lives
------------------
     ethr =  4.53E-05,  avg # of iterations =  1.9

     total cpu time spent up to now is      143.9 secs

     total energy              =    -723.19704072 Ry
     estimated scf accuracy    <       0.03931209 Ry

     iteration # 14     ecut=    50.00 Ry     beta= 0.30
     Davidson diagonalization with overlap

---- Real-time Memory Report at c_bands before calling an iterative solver
           269 MiB given to the printing process from OS
           175 MiB allocation reported by mallinfo(arena+hblkhd)
        104278 MiB available memory on the node where the printing process lives
------------------
     ethr =  4.53E-05,  avg # of iterations =  2.7

     total cpu time spent up to now is      152.5 secs

     total energy              =    -723.19580304 Ry
     estimated scf accuracy    <       0.01820642 Ry

     iteration # 15     ecut=    50.00 Ry     beta= 0.30
     Davidson diagonalization with overlap

---- Real-time Memory Report at c_bands before calling an iterative solver
           269 MiB given to the printing process from OS
           175 MiB allocation reported by mallinfo(arena+hblkhd)
        104798 MiB available memory on the node where the printing process lives
------------------
     ethr =  2.53E-05,  avg # of iterations =  5.9

     total cpu time spent up to now is      163.4 secs

     total energy              =    -723.20037315 Ry
     estimated scf accuracy    <       0.00104821 Ry

     iteration # 16     ecut=    50.00 Ry     beta= 0.30
     Davidson diagonalization with overlap

---- Real-time Memory Report at c_bands before calling an iterative solver
           269 MiB given to the printing process from OS
           175 MiB allocation reported by mallinfo(arena+hblkhd)
        104082 MiB available memory on the node where the printing process lives
------------------
     ethr =  1.46E-06,  avg # of iterations =  6.3

     total cpu time spent up to now is      177.2 secs

     total energy              =    -723.20136246 Ry
     estimated scf accuracy    <       0.00012757 Ry

     iteration # 17     ecut=    50.00 Ry     beta= 0.30
     Davidson diagonalization with overlap

---- Real-time Memory Report at c_bands before calling an iterative solver
           269 MiB given to the printing process from OS
           175 MiB allocation reported by mallinfo(arena+hblkhd)
        104940 MiB available memory on the node where the printing process lives
------------------
     c_bands:  1 eigenvalues not converged
     ethr =  1.77E-07,  avg # of iterations = 14.0

     total cpu time spent up to now is      206.7 secs

     total energy              =    -723.19942433 Ry
     estimated scf accuracy    <       0.00944610 Ry

     iteration # 18     ecut=    50.00 Ry     beta= 0.30
     Davidson diagonalization with overlap

---- Real-time Memory Report at c_bands before calling an iterative solver
           269 MiB given to the printing process from OS
           175 MiB allocation reported by mallinfo(arena+hblkhd)
        104650 MiB available memory on the node where the printing process lives
------------------
     c_bands:  1 eigenvalues not converged
     ethr =  1.77E-07,  avg # of iterations = 13.5

     total cpu time spent up to now is      235.1 secs

     total energy              =    -723.20130361 Ry
     estimated scf accuracy    <       0.00001983 Ry

     iteration # 19     ecut=    50.00 Ry     beta= 0.30
     Davidson diagonalization with overlap

---- Real-time Memory Report at c_bands before calling an iterative solver
           269 MiB given to the printing process from OS
           175 MiB allocation reported by mallinfo(arena+hblkhd)
        104854 MiB available memory on the node where the printing process lives
------------------
     c_bands:  1 eigenvalues not converged
     c_bands:  1 eigenvalues not converged
     c_bands:  1 eigenvalues not converged
     ethr =  2.75E-08,  avg # of iterations = 15.1

     total cpu time spent up to now is      265.9 secs

     total energy              =    -723.20223122 Ry
     estimated scf accuracy    <       0.00318845 Ry

     iteration # 20     ecut=    50.00 Ry     beta= 0.30
     Davidson diagonalization with overlap

---- Real-time Memory Report at c_bands before calling an iterative solver
           269 MiB given to the printing process from OS
           175 MiB allocation reported by mallinfo(arena+hblkhd)
        105573 MiB available memory on the node where the printing process lives
------------------
     ethr =  2.75E-08,  avg # of iterations =  8.3

     total cpu time spent up to now is      285.3 secs

     total energy              =    -723.20147794 Ry
     estimated scf accuracy    <       0.00499095 Ry

     iteration # 21     ecut=    50.00 Ry     beta= 0.30
     Davidson diagonalization with overlap

---- Real-time Memory Report at c_bands before calling an iterative solver
           269 MiB given to the printing process from OS
           175 MiB allocation reported by mallinfo(arena+hblkhd)
        104076 MiB available memory on the node where the printing process lives
------------------
     ethr =  2.75E-08,  avg # of iterations = 11.4

     total cpu time spent up to now is      309.8 secs

     total energy              =    -723.20043598 Ry
     estimated scf accuracy    <       0.00216263 Ry

     iteration # 22     ecut=    50.00 Ry     beta= 0.30
     Davidson diagonalization with overlap

---- Real-time Memory Report at c_bands before calling an iterative solver
           269 MiB given to the printing process from OS
           175 MiB allocation reported by mallinfo(arena+hblkhd)
        105242 MiB available memory on the node where the printing process lives
------------------
     c_bands:  1 eigenvalues not converged
     c_bands:  1 eigenvalues not converged
     c_bands:  1 eigenvalues not converged
     c_bands:  1 eigenvalues not converged
     ethr =  2.75E-08,  avg # of iterations = 15.9

     total cpu time spent up to now is      343.2 secs

     total energy              =    -723.20108908 Ry
     estimated scf accuracy    <       0.00037892 Ry

     iteration # 23     ecut=    50.00 Ry     beta= 0.30
     Davidson diagonalization with overlap

---- Real-time Memory Report at c_bands before calling an iterative solver
           269 MiB given to the printing process from OS
           175 MiB allocation reported by mallinfo(arena+hblkhd)
        105064 MiB available memory on the node where the printing process lives
------------------
     ethr =  2.75E-08,  avg # of iterations =  5.9

     total cpu time spent up to now is      357.2 secs

     total energy              =    -723.20105319 Ry
     estimated scf accuracy    <       0.00010750 Ry

     iteration # 24     ecut=    50.00 Ry     beta= 0.30
     Davidson diagonalization with overlap

---- Real-time Memory Report at c_bands before calling an iterative solver
           269 MiB given to the printing process from OS
           175 MiB allocation reported by mallinfo(arena+hblkhd)
        104841 MiB available memory on the node where the printing process lives
------------------
     ethr =  2.75E-08,  avg # of iterations =  8.4

     total cpu time spent up to now is      375.8 secs

     total energy              =    -723.20108261 Ry
     estimated scf accuracy    <       0.00000776 Ry

     iteration # 25     ecut=    50.00 Ry     beta= 0.30
     Davidson diagonalization with overlap

---- Real-time Memory Report at c_bands before calling an iterative solver
           269 MiB given to the printing process from OS
           175 MiB allocation reported by mallinfo(arena+hblkhd)
        104433 MiB available memory on the node where the printing process lives
------------------
     ethr =  1.08E-08,  avg # of iterations =  2.0

     total cpu time spent up to now is      383.9 secs

     total energy              =    -723.20108191 Ry
     estimated scf accuracy    <       0.00000203 Ry

     iteration # 26     ecut=    50.00 Ry     beta= 0.30
     Davidson diagonalization with overlap

---- Real-time Memory Report at c_bands before calling an iterative solver
           269 MiB given to the printing process from OS
           175 MiB allocation reported by mallinfo(arena+hblkhd)
        104083 MiB available memory on the node where the printing process lives
------------------
     ethr =  2.83E-09,  avg # of iterations =  7.2

     total cpu time spent up to now is      399.7 secs

     total energy              =    -723.20108363 Ry
     estimated scf accuracy    <       0.00000301 Ry

     iteration # 27     ecut=    50.00 Ry     beta= 0.30
     Davidson diagonalization with overlap

---- Real-time Memory Report at c_bands before calling an iterative solver
           269 MiB given to the printing process from OS
           175 MiB allocation reported by mallinfo(arena+hblkhd)
        104464 MiB available memory on the node where the printing process lives
------------------
     ethr =  2.83E-09,  avg # of iterations =  1.2

     total cpu time spent up to now is      406.5 secs

     total energy              =    -723.20108330 Ry
     estimated scf accuracy    <       0.00000143 Ry

     iteration # 28     ecut=    50.00 Ry     beta= 0.30
     Davidson diagonalization with overlap

---- Real-time Memory Report at c_bands before calling an iterative solver
           269 MiB given to the printing process from OS
           175 MiB allocation reported by mallinfo(arena+hblkhd)
        104105 MiB available memory on the node where the printing process lives
------------------
     ethr =  1.99E-09,  avg # of iterations =  3.0

     total cpu time spent up to now is      415.7 secs

     total energy              =    -723.20108363 Ry
     estimated scf accuracy    <       0.00000008 Ry

     iteration # 29     ecut=    50.00 Ry     beta= 0.30
     Davidson diagonalization with overlap

---- Real-time Memory Report at c_bands before calling an iterative solver
           269 MiB given to the printing process from OS
           175 MiB allocation reported by mallinfo(arena+hblkhd)
        104378 MiB available memory on the node where the printing process lives
------------------
     ethr =  1.06E-10,  avg # of iterations =  5.5

     total cpu time spent up to now is      428.9 secs

     total energy              =    -723.20108367 Ry
     estimated scf accuracy    <       0.00000003 Ry

     iteration # 30     ecut=    50.00 Ry     beta= 0.30
     Davidson diagonalization with overlap

---- Real-time Memory Report at c_bands before calling an iterative solver
           269 MiB given to the printing process from OS
           175 MiB allocation reported by mallinfo(arena+hblkhd)
        104805 MiB available memory on the node where the printing process lives
------------------
     ethr =  3.93E-11,  avg # of iterations =  2.5

     total cpu time spent up to now is      437.3 secs

     total energy              =    -723.20108367 Ry
     estimated scf accuracy    <       0.00000002 Ry

     iteration # 31     ecut=    50.00 Ry     beta= 0.30
     Davidson diagonalization with overlap

---- Real-time Memory Report at c_bands before calling an iterative solver
           269 MiB given to the printing process from OS
           175 MiB allocation reported by mallinfo(arena+hblkhd)
        104465 MiB available memory on the node where the printing process lives
------------------
     ethr =  2.26E-11,  avg # of iterations =  6.0

     total cpu time spent up to now is      449.8 secs

     End of self-consistent calculation

          k = 0.0000 0.0000 0.0000 (  4675 PWs)   bands (ev):

   -12.1001 -11.6767 -11.5684 -11.5105  -0.3948  -0.3361  -0.3268  -0.3266
    -0.1872  -0.1692  -0.1691  -0.0492   0.0620   0.1658   0.2114   0.3155
     0.3155   0.3788   0.3864   0.4299   0.4762   0.4762   0.5054   0.5398
     0.7001   1.2466   1.8109   2.3823   2.8415   3.6759   3.8999   3.9004
     4.0892   4.6137   4.6142   4.6540

     occupation numbers 
     1.0000   1.0000   1.0000   1.0000   1.0000   1.0000   1.0000   1.0000
     1.0000   1.0000   1.0000   1.0000   1.0000   1.0000   1.0000   1.0000
     1.0000   1.0000   1.0000   1.0000   1.0000   1.0000   1.0000   1.0000
     1.0000   1.0000   1.0000   1.0000   1.0000   1.0000   1.0000   1.0000
     1.0000   1.0000   1.0000   1.0000

          k = 0.0000 0.0000 0.2197 (  4663 PWs)   bands (ev):

   -12.0654 -11.6638 -11.6047 -11.5197  -0.4228  -0.3651  -0.3231  -0.3229
    -0.1873  -0.1872  -0.1658  -0.1628   0.0165   0.0521   0.1396   0.1809
     0.3319   0.3320   0.4240   0.4320   0.4712   0.4712   0.4913   0.5406
     1.2070   1.2111   1.7039   2.6680   2.9353   3.7989   3.9499   3.9504
     4.0111   4.0518   4.5682   4.5686

     occupation numbers 
     1.0000   1.0000   1.0000   1.0000   1.0000   1.0000   1.0000   1.0000
     1.0000   1.0000   1.0000   1.0000   1.0000   1.0000   1.0000   1.0000
     1.0000   1.0000   1.0000   1.0000   1.0000   1.0000   1.0000   1.0000
     1.0000   1.0000   1.0000   1.0000   1.0000   1.0000   1.0000   1.0000
     1.0000   1.0000   1.0000   1.0000

          k = 0.0000 0.0000 0.4393 (  4639 PWs)   bands (ev):

   -11.9696 -11.7036 -11.6297 -11.5464  -0.4752  -0.4194  -0.3579  -0.3077
    -0.3075  -0.2919  -0.2303  -0.2302  -0.1039   0.0398   0.0877   0.0969
     0.3726   0.3726   0.4379   0.4535   0.4535   0.4665   0.4859   0.5380
     1.2198   1.5029   1.9160   3.1799   3.2394   3.3333   3.7960   3.9240
     4.0850   4.0854   4.4421   4.4426

     occupation numbers 
     1.0000   1.0000   1.0000   1.0000   1.0000   1.0000   1.0000   1.0000
     1.0000   1.0000   1.0000   1.0000   1.0000   1.0000   1.0000   1.0000
     1.0000   1.0000   1.0000   1.0000   1.0000   1.0000   1.0000   1.0000
     1.0000   1.0000   1.0000   1.0000   1.0000   1.0000   1.0000   1.0000
     1.0000   1.0000   1.0000   1.0000

          k = 0.0000 0.0000-0.6590 (  4626 PWs)   bands (ev):

   -11.8374 -11.8374 -11.5862 -11.5862  -0.4734  -0.4734  -0.4218  -0.4218
    -0.2757  -0.2757  -0.2755  -0.2755  -0.0098  -0.0098   0.0494   0.0494
     0.4186   0.4186   0.4186   0.4186   0.4486   0.4486   0.5227   0.5227
     1.3288   1.3288   2.6309   2.6309   3.4947   3.4948   3.7365   3.7365
     4.2658   4.2658   4.2662   4.2662

     occupation numbers 
     1.0000   1.0000   1.0000   1.0000   1.0000   1.0000   1.0000   1.0000
     1.0000   1.0000   1.0000   1.0000   1.0000   1.0000   1.0000   1.0000
     1.0000   1.0000   1.0000   1.0000   1.0000   1.0000   1.0000   1.0000
     1.0000   1.0000   1.0000   1.0000   1.0000   1.0000   1.0000   1.0000
     1.0000   1.0000   1.0000   1.0000

          k = 0.0000 0.3849 0.0000 (  4679 PWs)   bands (ev):

   -12.0101 -11.6806 -11.5408 -11.5078  -0.3870  -0.3406  -0.2786  -0.2703
    -0.2078  -0.1539  -0.0884  -0.0180   0.0227   0.1993   0.2442   0.2846
     0.2966   0.3178   0.3440   0.3757   0.4855   0.5116   0.6277   0.6318
     0.8728   1.3508   1.8362   2.3603   2.6373   3.1527   3.5477   3.6362
     3.6798   3.8402   4.4935   4.5014

     occupation numbers 
     1.0000   1.0000   1.0000   1.0000   1.0000   1.0000   1.0000   1.0000
     1.0000   1.0000   1.0000   1.0000   1.0000   1.0000   1.0000   1.0000
     1.0000   1.0000   1.0000   1.0000   1.0000   1.0000   1.0000   1.0000
     1.0000   1.0000   1.0000   1.0000   1.0000   1.0000   1.0000   1.0000
     1.0000   1.0000   1.0000   1.0000

          k = 0.0000 0.3849 0.2197 (  4673 PWs)   bands (ev):

   -11.9789 -11.6673 -11.5723 -11.5175  -0.4092  -0.3540  -0.2797  -0.2721
    -0.2181  -0.1812  -0.1084  -0.0948   0.0141   0.0554   0.1415   0.2013
     0.3123   0.3328   0.3467   0.4085   0.4782   0.5087   0.5196   0.6230
     1.3308   1.3326   1.8060   2.4495   2.8690   3.1727   3.4391   3.6965
     3.7139   3.8343   4.4386   4.4608

     occupation numbers 
     1.0000   1.0000   1.0000   1.0000   1.0000   1.0000   1.0000   1.0000
     1.0000   1.0000   1.0000   1.0000   1.0000   1.0000   1.0000   1.0000
     1.0000   1.0000   1.0000   1.0000   1.0000   1.0000   1.0000   1.0000
     1.0000   1.0000   1.0000   1.0000   1.0000   1.0000   1.0000   1.0000
     1.0000   1.0000   1.0000   1.0000

          k = 0.0000 0.3849 0.4393 (  4669 PWs)   bands (ev):

   -11.8933 -11.6584 -11.6321 -11.5455  -0.4551  -0.4009  -0.3388  -0.3057
    -0.2499  -0.2477  -0.1619  -0.1565  -0.1385  -0.0062   0.0646   0.0921
     0.3661   0.3711   0.3885   0.4222   0.4552   0.4766   0.5209   0.5940
     1.3810   1.6630   1.9412   2.7238   2.9165   3.3580   3.4866   3.5711
     3.8589   3.9675   4.2601   4.2869

     occupation numbers 
     1.0000   1.0000   1.0000   1.0000   1.0000   1.0000   1.0000   1.0000
     1.0000   1.0000   1.0000   1.0000   1.0000   1.0000   1.0000   1.0000
     1.0000   1.0000   1.0000   1.0000   1.0000   1.0000   1.0000   1.0000
     1.0000   1.0000   1.0000   1.0000   1.0000   1.0000   1.0000   1.0000
     1.0000   1.0000   1.0000   1.0000

          k = 0.0000 0.3849-0.6590 (  4662 PWs)   bands (ev):

   -11.7761 -11.7760 -11.5870 -11.5870  -0.4508  -0.4508  -0.4058  -0.4058
    -0.2273  -0.2273  -0.2096  -0.2096  -0.0589  -0.0589   0.0305   0.0305
     0.4149   0.4149   0.4168   0.4168   0.4265   0.4265   0.5550   0.5550
     1.5034   1.5034   2.4776   2.4776   3.0916   3.0917   3.8323   3.8323
     3.9173   3.9173   4.0755   4.0755

     occupation numbers 
     1.0000   1.0000   1.0000   1.0000   1.0000   1.0000   1.0000   1.0000
     1.0000   1.0000   1.0000   1.0000   1.0000   1.0000   1.0000   1.0000
     1.0000   1.0000   1.0000   1.0000   1.0000   1.0000   1.0000   1.0000
     1.0000   1.0000   1.0000   1.0000   1.0000   1.0000   1.0000   1.0000
     1.0000   1.0000   1.0000   1.0000

          k = 0.0000 0.7698 0.0000 (  4665 PWs)   bands (ev):

   -11.8073 -11.6806 -11.5078 -11.5030  -0.4123  -0.3406  -0.2079  -0.2075
    -0.1900  -0.0266  -0.0180   0.0227   0.1015   0.1912   0.1993   0.2442
     0.3417   0.3441   0.3698   0.3757   0.4994   0.5116   0.6319   0.6399
     1.3378   1.3510   1.8362   2.0058   2.3603   2.6371   2.6378   3.1138
     3.6797   3.8400   4.0511   4.2296

     occupation numbers 
     1.0000   1.0000   1.0000   1.0000   1.0000   1.0000   1.0000   1.0000
     1.0000   1.0000   1.0000   1.0000   1.0000   1.0000   1.0000   1.0000
     1.0000   1.0000   1.0000   1.0000   1.0000   1.0000   1.0000   1.0000
     1.0000   1.0000   1.0000   1.0000   1.0000   1.0000   1.0000   1.0000
     1.0000   1.0000   1.0000   1.0000

          k = 0.0000 0.7698 0.2197 (  4656 PWs)   bands (ev):

   -11.7859 -11.6673 -11.5221 -11.5175  -0.4373  -0.3540  -0.2346  -0.2182
    -0.1919  -0.0948  -0.0496   0.0142   0.0751   0.1043   0.1415   0.2013
     0.3376   0.3468   0.3773   0.4085   0.4882   0.5087   0.5891   0.6231
     1.3328   1.4436   1.8060   2.1190   2.4495   2.6861   2.8689   3.1950
     3.7138   3.8343   4.1066   4.1588

     occupation numbers 
     1.0000   1.0000   1.0000   1.0000   1.0000   1.0000   1.0000   1.0000
     1.0000   1.0000   1.0000   1.0000   1.0000   1.0000   1.0000   1.0000
     1.0000   1.0000   1.0000   1.0000   1.0000   1.0000   1.0000   1.0000
     1.0000   1.0000   1.0000   1.0000   1.0000   1.0000   1.0000   1.0000
     1.0000   1.0000   1.0000   1.0000

          k = 0.0000 0.7698 0.4393 (  4667 PWs)   bands (ev):

   -11.7279 -11.6321 -11.5754 -11.5455  -0.4840  -0.4009  -0.3654  -0.3057
    -0.1459  -0.1386  -0.0879  -0.0267  -0.0062   0.0075   0.0646   0.0920
     0.3885   0.3923   0.3985   0.4222   0.4611   0.5209   0.5268   0.5941
     1.3811   1.6219   1.6631   2.0354   2.7237   3.1458   3.3579   3.4099
     3.4864   3.9637   3.9675   4.0668

     occupation numbers 
     1.0000   1.0000   1.0000   1.0000   1.0000   1.0000   1.0000   1.0000
     1.0000   1.0000   1.0000   1.0000   1.0000   1.0000   1.0000   1.0000
     1.0000   1.0000   1.0000   1.0000   1.0000   1.0000   1.0000   1.0000
     1.0000   1.0000   1.0000   1.0000   1.0000   1.0000   1.0000   1.0000
     1.0000   1.0000   1.0000   1.0000

          k = 0.0000 0.7698-0.6590 (  4656 PWs)   bands (ev):

   -11.6505 -11.6504 -11.5870 -11.5870  -0.4761  -0.4761  -0.4058  -0.4058
    -0.0828  -0.0828  -0.0746  -0.0746  -0.0590  -0.0590   0.0305   0.0306
     0.4150   0.4150   0.4287   0.4287   0.4622   0.4622   0.5550   0.5550
     1.5035   1.5035   1.8256   1.8256   3.0915   3.0915   3.6915   3.6915
     3.7188   3.7188   3.8323   3.8323

     occupation numbers 
     1.0000   1.0000   1.0000   1.0000   1.0000   1.0000   1.0000   1.0000
     1.0000   1.0000   1.0000   1.0000   1.0000   1.0000   1.0000   1.0000
     1.0000   1.0000   1.0000   1.0000   1.0000   1.0000   1.0000   1.0000
     1.0000   1.0000   1.0000   1.0000   1.0000   1.0000   1.0000   1.0000
     1.0000   1.0000   1.0000   1.0000

          k = 0.0000-1.1547 0.0000 (  4660 PWs)   bands (ev):

   -11.6767 -11.6767 -11.5105 -11.5105  -0.3948  -0.3948  -0.1873  -0.1873
    -0.0492  -0.0492   0.0621   0.0621   0.1659   0.1659   0.2113   0.2113
     0.3789   0.3789   0.4299   0.4299   0.5055   0.5055   0.5399   0.5399
     1.2468   1.2468   1.8111   1.8111   2.3823   2.3823   2.8412   2.8412
     3.6759   3.6759   4.0888   4.0888

     occupation numbers 
     1.0000   1.0000   1.0000   1.0000   1.0000   1.0000   1.0000   1.0000
     1.0000   1.0000   1.0000   1.0000   1.0000   1.0000   1.0000   1.0000
     1.0000   1.0000   1.0000   1.0000   1.0000   1.0000   1.0000   1.0000
     1.0000   1.0000   1.0000   1.0000   1.0000   1.0000   1.0000   1.0000
     1.0000   1.0000   1.0000   1.0000

          k = 0.0000-1.1547 0.2197 (  4624 PWs)   bands (ev):

   -11.6638 -11.6638 -11.5197 -11.5197  -0.4228  -0.4228  -0.1659  -0.1659
    -0.1627  -0.1627   0.0522   0.0522   0.1397   0.1397   0.1808   0.1808
     0.4241   0.4241   0.4320   0.4320   0.4913   0.4913   0.5407   0.5407
     1.2072   1.2072   1.7040   1.7040   2.6680   2.6680   2.9350   2.9350
     3.7989   3.7989   4.0108   4.0108

     occupation numbers 
     1.0000   1.0000   1.0000   1.0000   1.0000   1.0000   1.0000   1.0000
     1.0000   1.0000   1.0000   1.0000   1.0000   1.0000   1.0000   1.0000
     1.0000   1.0000   1.0000   1.0000   1.0000   1.0000   1.0000   1.0000
     1.0000   1.0000   1.0000   1.0000   1.0000   1.0000   1.0000   1.0000
     1.0000   1.0000   1.0000   1.0000

          k = 0.0000-1.1547 0.4393 (  4624 PWs)   bands (ev):

   -11.6297 -11.6297 -11.5464 -11.5464  -0.4752  -0.4752  -0.3579  -0.3579
    -0.1040  -0.1040   0.0399   0.0399   0.0878   0.0878   0.0967   0.0967
     0.4380   0.4380   0.4665   0.4665   0.4860   0.4860   0.5381   0.5381
     1.2199   1.2199   1.5031   1.5031   3.1796   3.1796   3.2394   3.2394
     3.7956   3.7956   3.9240   3.9240

     occupation numbers 
     1.0000   1.0000   1.0000   1.0000   1.0000   1.0000   1.0000   1.0000
     1.0000   1.0000   1.0000   1.0000   1.0000   1.0000   1.0000   1.0000
     1.0000   1.0000   1.0000   1.0000   1.0000   1.0000   1.0000   1.0000
     1.0000   1.0000   1.0000   1.0000   1.0000   1.0000   1.0000   1.0000
     1.0000   1.0000   1.0000   1.0000

          k = 0.0000-1.1547-0.6590 (  4648 PWs)   bands (ev):

   -11.5862 -11.5862 -11.5862 -11.5862  -0.4734  -0.4734  -0.4734  -0.4734
    -0.0099  -0.0099  -0.0099  -0.0099   0.0495   0.0495   0.0495   0.0495
     0.4486   0.4486   0.4486   0.4486   0.5227   0.5227   0.5227   0.5227
     1.3289   1.3289   1.3289   1.3289   3.4944   3.4944   3.4944   3.4944
     3.7366   3.7366   3.7366   3.7366

     occupation numbers 
     1.0000   1.0000   1.0000   1.0000   1.0000   1.0000   1.0000   1.0000
     1.0000   1.0000   1.0000   1.0000   1.0000   1.0000   1.0000   1.0000
     1.0000   1.0000   1.0000   1.0000   1.0000   1.0000   1.0000   1.0000
     1.0000   1.0000   1.0000   1.0000   1.0000   1.0000   1.0000   1.0000
     1.0000   1.0000   1.0000   1.0000

          k = 0.1667 0.0962 0.0000 (  4666 PWs)   bands (ev):

   -12.0765 -11.7164 -11.5607 -11.5040  -0.4006  -0.3564  -0.3130  -0.3058
    -0.1915  -0.1668  -0.1481  -0.1164   0.0879   0.1212   0.1813   0.3077
     0.3149   0.3307   0.3633   0.4106   0.4789   0.5039   0.5678   0.6127
     0.7230   1.2986   1.8480   2.4032   2.9160   3.6954   3.7966   3.8289
     4.1104   4.1275   4.5830   4.6207

     occupation numbers 
     1.0000   1.0000   1.0000   1.0000   1.0000   1.0000   1.0000   1.0000
     1.0000   1.0000   1.0000   1.0000   1.0000   1.0000   1.0000   1.0000
     1.0000   1.0000   1.0000   1.0000   1.0000   1.0000   1.0000   1.0000
     1.0000   1.0000   1.0000   1.0000   1.0000   1.0000   1.0000   1.0000
     1.0000   1.0000   1.0000   1.0000

          k = 0.1667 0.0962 0.2197 (  4661 PWs)   bands (ev):

   -12.0426 -11.7006 -11.5958 -11.5165  -0.4280  -0.3798  -0.3085  -0.3083
    -0.1925  -0.1885  -0.1717  -0.1667   0.0262   0.0600   0.0809   0.1518
     0.3260   0.3312   0.3885   0.4140   0.4735   0.4859   0.4910   0.5912
     1.2420   1.2727   1.8353   2.6265   3.0062   3.7289   3.8306   3.8817
     3.8987   4.0514   4.5348   4.5468

     occupation numbers 
     1.0000   1.0000   1.0000   1.0000   1.0000   1.0000   1.0000   1.0000
     1.0000   1.0000   1.0000   1.0000   1.0000   1.0000   1.0000   1.0000
     1.0000   1.0000   1.0000   1.0000   1.0000   1.0000   1.0000   1.0000
     1.0000   1.0000   1.0000   1.0000   1.0000   1.0000   1.0000   1.0000
     1.0000   1.0000   1.0000   1.0000

          k = 0.1667 0.0962 0.4393 (  4672 PWs)   bands (ev):

   -11.9495 -11.6914 -11.6584 -11.5520  -0.4790  -0.4304  -0.3618  -0.3123
    -0.2920  -0.2897  -0.2109  -0.2085  -0.1142   0.0108   0.0373   0.0727
     0.3701   0.3713   0.4244   0.4420   0.4539   0.4594   0.4651   0.5471
     1.3329   1.6692   1.9283   3.1943   3.2271   3.2423   3.8415   3.9253
     3.9714   4.0243   4.3756   4.4014

     occupation numbers 
     1.0000   1.0000   1.0000   1.0000   1.0000   1.0000   1.0000   1.0000
     1.0000   1.0000   1.0000   1.0000   1.0000   1.0000   1.0000   1.0000
     1.0000   1.0000   1.0000   1.0000   1.0000   1.0000   1.0000   1.0000
     1.0000   1.0000   1.0000   1.0000   1.0000   1.0000   1.0000   1.0000
     1.0000   1.0000   1.0000   1.0000

          k = 0.1667 0.0962-0.6590 (  4666 PWs)   bands (ev):

   -11.8211 -11.8211 -11.6035 -11.6035  -0.4751  -0.4751  -0.4309  -0.4309
    -0.2636  -0.2635  -0.2581  -0.2581  -0.0267  -0.0267   0.0069   0.0069
     0.4177   0.4177   0.4201   0.4201   0.4418   0.4418   0.4973   0.4973
     1.4799   1.4800   2.6015   2.6015   3.5481   3.5481   3.7279   3.7279
     4.1485   4.1485   4.2152   4.2152

     occupation numbers 
     1.0000   1.0000   1.0000   1.0000   1.0000   1.0000   1.0000   1.0000
     1.0000   1.0000   1.0000   1.0000   1.0000   1.0000   1.0000   1.0000
     1.0000   1.0000   1.0000   1.0000   1.0000   1.0000   1.0000   1.0000
     1.0000   1.0000   1.0000   1.0000   1.0000   1.0000   1.0000   1.0000
     1.0000   1.0000   1.0000   1.0000

          k = 0.1667 0.4811 0.0000 (  4687 PWs)   bands (ev):

   -11.9500 -11.7657 -11.5255 -11.5006  -0.3908  -0.3310  -0.2692  -0.2602
    -0.2397  -0.1359  -0.1232  -0.0444  -0.0289   0.1596   0.2382   0.2691
     0.2929   0.3096   0.3248   0.3581   0.4899   0.5029   0.6333   0.6585
     1.0326   1.3826   2.0761   2.4693   2.8049   2.8300   3.0876   3.5197
     3.9546   3.9835   4.3751   4.3868

     occupation numbers 
     1.0000   1.0000   1.0000   1.0000   1.0000   1.0000   1.0000   1.0000
     1.0000   1.0000   1.0000   1.0000   1.0000   1.0000   1.0000   1.0000
     1.0000   1.0000   1.0000   1.0000   1.0000   1.0000   1.0000   1.0000
     1.0000   1.0000   1.0000   1.0000   1.0000   1.0000   1.0000   1.0000
     1.0000   1.0000   1.0000   1.0000

          k = 0.1667 0.4811 0.2197 (  4683 PWs)   bands (ev):

   -11.9214 -11.7466 -11.5536 -11.5169  -0.4145  -0.3555  -0.2724  -0.2720
    -0.2461  -0.1608  -0.1405  -0.0651  -0.0506   0.0800   0.1231   0.1334
     0.3037   0.3043   0.3417   0.3967   0.4815   0.4943   0.5450   0.6170
     1.4076   1.4603   2.0783   2.6809   2.8464   2.8518   3.0900   3.5370
     3.8900   4.0419   4.3116   4.3803

     occupation numbers 
     1.0000   1.0000   1.0000   1.0000   1.0000   1.0000   1.0000   1.0000
     1.0000   1.0000   1.0000   1.0000   1.0000   1.0000   1.0000   1.0000
     1.0000   1.0000   1.0000   1.0000   1.0000   1.0000   1.0000   1.0000
     1.0000   1.0000   1.0000   1.0000   1.0000   1.0000   1.0000   1.0000
     1.0000   1.0000   1.0000   1.0000

          k = 0.1667 0.4811 0.4393 (  4671 PWs)   bands (ev):

   -11.8432 -11.6954 -11.6307 -11.5625  -0.4620  -0.4173  -0.3482  -0.3390
    -0.2359  -0.2003  -0.1421  -0.1264  -0.1024  -0.0982  -0.0210   0.0443
     0.3655   0.3758   0.3760   0.4177   0.4568   0.4812   0.4924   0.5553
     1.6073   1.9171   1.9583   2.6547   2.9999   3.2599   3.3686   3.6582
     3.6763   4.0721   4.1386   4.2182

     occupation numbers 
     1.0000   1.0000   1.0000   1.0000   1.0000   1.0000   1.0000   1.0000
     1.0000   1.0000   1.0000   1.0000   1.0000   1.0000   1.0000   1.0000
     1.0000   1.0000   1.0000   1.0000   1.0000   1.0000   1.0000   1.0000
     1.0000   1.0000   1.0000   1.0000   1.0000   1.0000   1.0000   1.0000
     1.0000   1.0000   1.0000   1.0000

          k = 0.1667 0.4811-0.6590 (  4664 PWs)   bands (ev):

   -11.7367 -11.7367 -11.6275 -11.6275  -0.4570  -0.4570  -0.4261  -0.4261
    -0.2081  -0.2081  -0.1563  -0.1563  -0.1079  -0.1079  -0.0393  -0.0393
     0.4171   0.4171   0.4224   0.4224   0.4357   0.4357   0.4972   0.4972
     1.7795   1.7795   2.3273   2.3273   3.3137   3.3137   3.8092   3.8092
     3.8099   3.8099   3.9239   3.9239

     occupation numbers 
     1.0000   1.0000   1.0000   1.0000   1.0000   1.0000   1.0000   1.0000
     1.0000   1.0000   1.0000   1.0000   1.0000   1.0000   1.0000   1.0000
     1.0000   1.0000   1.0000   1.0000   1.0000   1.0000   1.0000   1.0000
     1.0000   1.0000   1.0000   1.0000   1.0000   1.0000   1.0000   1.0000
     1.0000   1.0000   1.0000   1.0000

          k = 0.1667 0.8660 0.0000 (  4656 PWs)   bands (ev):

   -11.7479 -11.7479 -11.5014 -11.5014  -0.3853  -0.3853  -0.2098  -0.2098
    -0.1340  -0.1340   0.0140   0.0140   0.1572   0.1572   0.1816   0.1816
     0.3484   0.3484   0.3821   0.3821   0.5033   0.5033   0.6431   0.6432
     1.3568   1.3568   1.9097   1.9097   2.4806   2.4806   2.8864   2.8864
     3.8938   3.8938   4.0872   4.0873

     occupation numbers 
     1.0000   1.0000   1.0000   1.0000   1.0000   1.0000   1.0000   1.0000
     1.0000   1.0000   1.0000   1.0000   1.0000   1.0000   1.0000   1.0000
     1.0000   1.0000   1.0000   1.0000   1.0000   1.0000   1.0000   1.0000
     1.0000   1.0000   1.0000   1.0000   1.0000   1.0000   1.0000   1.0000
     1.0000   1.0000   1.0000   1.0000

          k = 0.1667 0.8660 0.2197 (  4660 PWs)   bands (ev):

   -11.7300 -11.7300 -11.5164 -11.5163  -0.4108  -0.4108  -0.2173  -0.2173
    -0.1681  -0.1681  -0.0078  -0.0078   0.1025   0.1025   0.1368   0.1368
     0.3476   0.3476   0.4019   0.4019   0.4926   0.4926   0.6078   0.6078
     1.3721   1.3721   1.9609   1.9609   2.6317   2.6317   2.9796   2.9796
     3.9637   3.9637   4.0245   4.0245

     occupation numbers 
     1.0000   1.0000   1.0000   1.0000   1.0000   1.0000   1.0000   1.0000
     1.0000   1.0000   1.0000   1.0000   1.0000   1.0000   1.0000   1.0000
     1.0000   1.0000   1.0000   1.0000   1.0000   1.0000   1.0000   1.0000
     1.0000   1.0000   1.0000   1.0000   1.0000   1.0000   1.0000   1.0000
     1.0000   1.0000   1.0000   1.0000

          k = 0.1667 0.8660 0.4393 (  4670 PWs)   bands (ev):

   -11.6819 -11.6819 -11.5584 -11.5584  -0.4614  -0.4614  -0.3492  -0.3492
    -0.1333  -0.1333  -0.0424  -0.0424   0.0081   0.0081   0.0532   0.0532
     0.3965   0.3965   0.4226   0.4226   0.4745   0.4745   0.5496   0.5496
     1.4744   1.4744   1.8319   1.8319   3.0868   3.0868   3.2919   3.2919
     3.7769   3.7769   4.0331   4.0331

     occupation numbers 
     1.0000   1.0000   1.0000   1.0000   1.0000   1.0000   1.0000   1.0000
     1.0000   1.0000   1.0000   1.0000   1.0000   1.0000   1.0000   1.0000
     1.0000   1.0000   1.0000   1.0000   1.0000   1.0000   1.0000   1.0000
     1.0000   1.0000   1.0000   1.0000   1.0000   1.0000   1.0000   1.0000
     1.0000   1.0000   1.0000   1.0000

          k = 0.1667 0.8660-0.6590 (  4656 PWs)   bands (ev):

   -11.6187 -11.6186 -11.6186 -11.6186  -0.4581  -0.4581  -0.4581  -0.4581
    -0.0608  -0.0608  -0.0608  -0.0608  -0.0255  -0.0255  -0.0255  -0.0255
     0.4298   0.4298   0.4299   0.4299   0.4930   0.4930   0.4930   0.4930
     1.6407   1.6407   1.6407   1.6407   3.4569   3.4569   3.4569   3.4569
     3.7770   3.7770   3.7770   3.7770

     occupation numbers 
     1.0000   1.0000   1.0000   1.0000   1.0000   1.0000   1.0000   1.0000
     1.0000   1.0000   1.0000   1.0000   1.0000   1.0000   1.0000   1.0000
     1.0000   1.0000   1.0000   1.0000   1.0000   1.0000   1.0000   1.0000
     1.0000   1.0000   1.0000   1.0000   1.0000   1.0000   1.0000   1.0000
     1.0000   1.0000   1.0000   1.0000

          k = 0.1667-1.0585 0.0000 (  4650 PWs)   bands (ev):

   -11.6780 -11.6780 -11.5096 -11.5096  -0.3793  -0.3793  -0.1952  -0.1952
    -0.0391  -0.0391   0.0948   0.0948   0.1195   0.1195   0.2323   0.2323
     0.3661   0.3661   0.4148   0.4148   0.5092   0.5092   0.5727   0.5727
     1.2730   1.2730   1.8272   1.8272   2.3751   2.3751   2.7732   2.7732
     3.6735   3.6735   4.0082   4.0082

     occupation numbers 
     1.0000   1.0000   1.0000   1.0000   1.0000   1.0000   1.0000   1.0000
     1.0000   1.0000   1.0000   1.0000   1.0000   1.0000   1.0000   1.0000
     1.0000   1.0000   1.0000   1.0000   1.0000   1.0000   1.0000   1.0000
     1.0000   1.0000   1.0000   1.0000   1.0000   1.0000   1.0000   1.0000
     1.0000   1.0000   1.0000   1.0000

          k = 0.1667-1.0585 0.2197 (  4640 PWs)   bands (ev):

   -11.6650 -11.6650 -11.5190 -11.5190  -0.4045  -0.4045  -0.1813  -0.1813
    -0.1406  -0.1406   0.0677   0.0677   0.1032   0.1032   0.1949   0.1949
     0.3986   0.3986   0.4213   0.4213   0.5020   0.5020   0.5710   0.5710
     1.2375   1.2375   1.7438   1.7438   2.5986   2.5986   2.9131   2.9131
     3.7889   3.7889   3.9325   3.9325

     occupation numbers 
     1.0000   1.0000   1.0000   1.0000   1.0000   1.0000   1.0000   1.0000
     1.0000   1.0000   1.0000   1.0000   1.0000   1.0000   1.0000   1.0000
     1.0000   1.0000   1.0000   1.0000   1.0000   1.0000   1.0000   1.0000
     1.0000   1.0000   1.0000   1.0000   1.0000   1.0000   1.0000   1.0000
     1.0000   1.0000   1.0000   1.0000

          k = 0.1667-1.0585 0.4393 (  4646 PWs)   bands (ev):

   -11.6305 -11.6305 -11.5461 -11.5461  -0.4550  -0.4550  -0.3374  -0.3374
    -0.1189  -0.1189   0.0397   0.0397   0.0671   0.0671   0.0971   0.0971
     0.4234   0.4234   0.4368   0.4368   0.5084   0.5084   0.5595   0.5595
     1.2636   1.2636   1.5562   1.5562   2.9816   2.9816   3.3398   3.3398
     3.6741   3.6741   3.9495   3.9495

     occupation numbers 
     1.0000   1.0000   1.0000   1.0000   1.0000   1.0000   1.0000   1.0000
     1.0000   1.0000   1.0000   1.0000   1.0000   1.0000   1.0000   1.0000
     1.0000   1.0000   1.0000   1.0000   1.0000   1.0000   1.0000   1.0000
     1.0000   1.0000   1.0000   1.0000   1.0000   1.0000   1.0000   1.0000
     1.0000   1.0000   1.0000   1.0000

          k = 0.1667-1.0585-0.6590 (  4652 PWs)   bands (ev):

   -11.5865 -11.5865 -11.5865 -11.5864  -0.4528  -0.4528  -0.4528  -0.4528
    -0.0245  -0.0245  -0.0245  -0.0245   0.0438   0.0438   0.0438   0.0438
     0.4338   0.4338   0.4338   0.4338   0.5362   0.5362   0.5362   0.5362
     1.3820   1.3820   1.3820   1.3820   3.3452   3.3452   3.3452   3.3452
     3.7876   3.7876   3.7876   3.7876

     occupation numbers 
     1.0000   1.0000   1.0000   1.0000   1.0000   1.0000   1.0000   1.0000
     1.0000   1.0000   1.0000   1.0000   1.0000   1.0000   1.0000   1.0000
     1.0000   1.0000   1.0000   1.0000   1.0000   1.0000   1.0000   1.0000
     1.0000   1.0000   1.0000   1.0000   1.0000   1.0000   1.0000   1.0000
     1.0000   1.0000   1.0000   1.0000

          k = 0.1667-0.6736 0.0000 (  4657 PWs)   bands (ev):

   -11.8482 -11.6164 -11.5276 -11.5069  -0.3934  -0.3283  -0.2405  -0.1970
    -0.1588  -0.0757  -0.0320   0.0695   0.1642   0.2288   0.2567   0.3156
     0.3171   0.3290   0.3513   0.3762   0.4969   0.5249   0.5871   0.6402
     1.2735   1.4262   1.6920   1.9527   2.2525   2.7364   2.8418   3.1745
     3.4259   3.5942   4.1613   4.2219

     occupation numbers 
     1.0000   1.0000   1.0000   1.0000   1.0000   1.0000   1.0000   1.0000
     1.0000   1.0000   1.0000   1.0000   1.0000   1.0000   1.0000   1.0000
     1.0000   1.0000   1.0000   1.0000   1.0000   1.0000   1.0000   1.0000
     1.0000   1.0000   1.0000   1.0000   1.0000   1.0000   1.0000   1.0000
     1.0000   1.0000   1.0000   1.0000

          k = 0.1667-0.6736 0.2197 (  4662 PWs)   bands (ev):

   -11.8245 -11.6085 -11.5315 -11.5288  -0.4183  -0.3128  -0.2538  -0.2050
    -0.1969  -0.0970  -0.0941   0.0437   0.1080   0.1236   0.2031   0.2415
     0.3083   0.3466   0.3687   0.3915   0.4869   0.5417   0.5807   0.6111
     1.3979   1.4793   1.6665   2.0147   2.3253   2.7774   3.0802   3.2281
     3.4626   3.6100   4.1434   4.2062

     occupation numbers 
     1.0000   1.0000   1.0000   1.0000   1.0000   1.0000   1.0000   1.0000
     1.0000   1.0000   1.0000   1.0000   1.0000   1.0000   1.0000   1.0000
     1.0000   1.0000   1.0000   1.0000   1.0000   1.0000   1.0000   1.0000
     1.0000   1.0000   1.0000   1.0000   1.0000   1.0000   1.0000   1.0000
     1.0000   1.0000   1.0000   1.0000

          k = 0.1667-0.6736 0.4393 (  4648 PWs)   bands (ev):

   -11.7602 -11.5893 -11.5882 -11.5436  -0.4670  -0.3558  -0.3237  -0.2664
    -0.1791  -0.1774  -0.1287  -0.0652  -0.0195   0.0563   0.1196   0.1400
     0.3623   0.3734   0.3912   0.3946   0.4620   0.5194   0.5859   0.6330
     1.3847   1.5468   1.7583   2.2265   2.3187   3.1538   3.1789   3.4235
     3.5528   3.8578   3.9455   4.1315

     occupation numbers 
     1.0000   1.0000   1.0000   1.0000   1.0000   1.0000   1.0000   1.0000
     1.0000   1.0000   1.0000   1.0000   1.0000   1.0000   1.0000   1.0000
     1.0000   1.0000   1.0000   1.0000   1.0000   1.0000   1.0000   1.0000
     1.0000   1.0000   1.0000   1.0000   1.0000   1.0000   1.0000   1.0000
     1.0000   1.0000   1.0000   1.0000

          k = 0.1667-0.6736-0.6590 (  4648 PWs)   bands (ev):

   -11.6738 -11.6738 -11.5639 -11.5639  -0.4619  -0.4619  -0.3445  -0.3445
    -0.1412  -0.1412  -0.0891  -0.0891  -0.0804  -0.0804   0.1059   0.1059
     0.3787   0.3787   0.4225   0.4225   0.4565   0.4565   0.6222   0.6222
     1.4389   1.4389   2.0023   2.0023   2.7415   2.7415   3.6414   3.6415
     3.7926   3.7926   3.8702   3.8702

     occupation numbers 
     1.0000   1.0000   1.0000   1.0000   1.0000   1.0000   1.0000   1.0000
     1.0000   1.0000   1.0000   1.0000   1.0000   1.0000   1.0000   1.0000
     1.0000   1.0000   1.0000   1.0000   1.0000   1.0000   1.0000   1.0000
     1.0000   1.0000   1.0000   1.0000   1.0000   1.0000   1.0000   1.0000
     1.0000   1.0000   1.0000   1.0000

          k = 0.1667-0.2887 0.0000 (  4663 PWs)   bands (ev):

   -12.0315 -11.6412 -11.5469 -11.5186  -0.3745  -0.3455  -0.2941  -0.2794
    -0.1925  -0.1603  -0.1067   0.0157   0.1323   0.1523   0.2833   0.2948
     0.2998   0.3146   0.3522   0.3990   0.4834   0.5338   0.5425   0.6212
     0.8175   1.3116   1.8100   2.1709   2.7518   3.3870   3.5136   3.5240
     3.7883   3.8121   4.5079   4.5420

     occupation numbers 
     1.0000   1.0000   1.0000   1.0000   1.0000   1.0000   1.0000   1.0000
     1.0000   1.0000   1.0000   1.0000   1.0000   1.0000   1.0000   1.0000
     1.0000   1.0000   1.0000   1.0000   1.0000   1.0000   1.0000   1.0000
     1.0000   1.0000   1.0000   1.0000   1.0000   1.0000   1.0000   1.0000
     1.0000   1.0000   1.0000   1.0000

          k = 0.1667-0.2887 0.2197 (  4669 PWs)   bands (ev):

   -11.9994 -11.6311 -11.5796 -11.5248  -0.3978  -0.3562  -0.2903  -0.2838
    -0.1929  -0.1865  -0.1261  -0.0907   0.0457   0.1117   0.1158   0.2314
     0.3159   0.3318   0.3854   0.4038   0.4767   0.5099   0.5494   0.5537
     1.2805   1.3024   1.7100   2.3053   2.9834   3.3993   3.4629   3.6136
     3.7463   3.7842   4.4546   4.4956

     occupation numbers 
     1.0000   1.0000   1.0000   1.0000   1.0000   1.0000   1.0000   1.0000
     1.0000   1.0000   1.0000   1.0000   1.0000   1.0000   1.0000   1.0000
     1.0000   1.0000   1.0000   1.0000   1.0000   1.0000   1.0000   1.0000
     1.0000   1.0000   1.0000   1.0000   1.0000   1.0000   1.0000   1.0000
     1.0000   1.0000   1.0000   1.0000

          k = 0.1667-0.2887 0.4393 (  4664 PWs)   bands (ev):

   -11.9113 -11.6688 -11.6048 -11.5432  -0.4460  -0.3970  -0.3294  -0.2848
    -0.2760  -0.2545  -0.1766  -0.1725  -0.1505   0.0678   0.0832   0.1180
     0.3670   0.3708   0.4012   0.4077   0.4547   0.4713   0.5755   0.5808
     1.2895   1.5298   1.9418   2.6201   3.0204   3.3847   3.4633   3.6793
     3.8998   3.9073   4.3010   4.3077

     occupation numbers 
     1.0000   1.0000   1.0000   1.0000   1.0000   1.0000   1.0000   1.0000
     1.0000   1.0000   1.0000   1.0000   1.0000   1.0000   1.0000   1.0000
     1.0000   1.0000   1.0000   1.0000   1.0000   1.0000   1.0000   1.0000
     1.0000   1.0000   1.0000   1.0000   1.0000   1.0000   1.0000   1.0000
     1.0000   1.0000   1.0000   1.0000

          k = 0.1667-0.2887-0.6590 (  4652 PWs)   bands (ev):

   -11.7904 -11.7904 -11.5720 -11.5720  -0.4438  -0.4438  -0.3977  -0.3977
    -0.2464  -0.2464  -0.2195  -0.2195  -0.0489  -0.0489   0.0790   0.0790
     0.4063   0.4063   0.4165   0.4165   0.4246   0.4246   0.5891   0.5891
     1.3802   1.3802   2.5254   2.5254   3.0105   3.0105   3.8434   3.8434
     3.9863   3.9863   4.1081   4.1081

     occupation numbers 
     1.0000   1.0000   1.0000   1.0000   1.0000   1.0000   1.0000   1.0000
     1.0000   1.0000   1.0000   1.0000   1.0000   1.0000   1.0000   1.0000
     1.0000   1.0000   1.0000   1.0000   1.0000   1.0000   1.0000   1.0000
     1.0000   1.0000   1.0000   1.0000   1.0000   1.0000   1.0000   1.0000
     1.0000   1.0000   1.0000   1.0000

          k = 0.3333 0.1925 0.0000 (  4684 PWs)   bands (ev):

   -12.0101 -11.8073 -11.5408 -11.5030  -0.4124  -0.3871  -0.2784  -0.2703
    -0.2073  -0.1900  -0.1540  -0.0883  -0.0266   0.1016   0.1912   0.2846
     0.2966   0.3178   0.3416   0.3697   0.4855   0.4994   0.6277   0.6398
     0.8728   1.3377   2.0056   2.6376   3.1141   3.1524   3.5475   3.6366
     4.0511   4.2300   4.4938   4.5014

     occupation numbers 
     1.0000   1.0000   1.0000   1.0000   1.0000   1.0000   1.0000   1.0000
     1.0000   1.0000   1.0000   1.0000   1.0000   1.0000   1.0000   1.0000
     1.0000   1.0000   1.0000   1.0000   1.0000   1.0000   1.0000   1.0000
     1.0000   1.0000   1.0000   1.0000   1.0000   1.0000   1.0000   1.0000
     1.0000   1.0000   1.0000   1.0000

          k = 0.3333 0.1925 0.2197 (  4697 PWs)   bands (ev):

   -11.9789 -11.7859 -11.5723 -11.5221  -0.4374  -0.4093  -0.2797  -0.2719
    -0.2346  -0.1918  -0.1813  -0.1083  -0.0496   0.0554   0.0753   0.1043
     0.3124   0.3328   0.3376   0.3773   0.4783   0.4882   0.5196   0.5891
     1.3308   1.4435   2.1188   2.6859   3.1724   3.1953   3.4389   3.6969
     4.1065   4.1592   4.4389   4.4607

     occupation numbers 
     1.0000   1.0000   1.0000   1.0000   1.0000   1.0000   1.0000   1.0000
     1.0000   1.0000   1.0000   1.0000   1.0000   1.0000   1.0000   1.0000
     1.0000   1.0000   1.0000   1.0000   1.0000   1.0000   1.0000   1.0000
     1.0000   1.0000   1.0000   1.0000   1.0000   1.0000   1.0000   1.0000
     1.0000   1.0000   1.0000   1.0000

          k = 0.3333 0.1925 0.4393 (  4680 PWs)   bands (ev):

   -11.8933 -11.7279 -11.6584 -11.5754  -0.4840  -0.4551  -0.3654  -0.3389
    -0.2498  -0.2478  -0.1620  -0.1564  -0.1457  -0.0880  -0.0268   0.0076
     0.3662   0.3710   0.3923   0.3984   0.4552   0.4610   0.4765   0.5268
     1.6218   1.9411   2.0353   2.9164   3.1457   3.4102   3.5709   3.8592
     3.9640   4.0667   4.2599   4.2873

     occupation numbers 
     1.0000   1.0000   1.0000   1.0000   1.0000   1.0000   1.0000   1.0000
     1.0000   1.0000   1.0000   1.0000   1.0000   1.0000   1.0000   1.0000
     1.0000   1.0000   1.0000   1.0000   1.0000   1.0000   1.0000   1.0000
     1.0000   1.0000   1.0000   1.0000   1.0000   1.0000   1.0000   1.0000
     1.0000   1.0000   1.0000   1.0000

          k = 0.3333 0.1925-0.6590 (  4670 PWs)   bands (ev):

   -11.7761 -11.7760 -11.6505 -11.6504  -0.4761  -0.4761  -0.4508  -0.4508
    -0.2274  -0.2274  -0.2094  -0.2094  -0.0828  -0.0828  -0.0744  -0.0744
     0.4168   0.4168   0.4265   0.4265   0.4287   0.4287   0.4622   0.4622
     1.8254   1.8255   2.4775   2.4775   3.6918   3.6919   3.7187   3.7187
     3.9170   3.9170   4.0759   4.0759

     occupation numbers 
     1.0000   1.0000   1.0000   1.0000   1.0000   1.0000   1.0000   1.0000
     1.0000   1.0000   1.0000   1.0000   1.0000   1.0000   1.0000   1.0000
     1.0000   1.0000   1.0000   1.0000   1.0000   1.0000   1.0000   1.0000
     1.0000   1.0000   1.0000   1.0000   1.0000   1.0000   1.0000   1.0000
     1.0000   1.0000   1.0000   1.0000

          k = 0.3333 0.5774 0.0000 (  4678 PWs)   bands (ev):

   -11.8628 -11.8628 -11.5088 -11.5088  -0.3601  -0.3601  -0.2811  -0.2811
    -0.1901  -0.1901  -0.0984  -0.0984   0.0610   0.0610   0.2622   0.2622
     0.2838   0.2838   0.3446   0.3446   0.4958   0.4958   0.6413   0.6413
     1.2433   1.2433   2.5311   2.5311   2.5830   2.5830   3.2151   3.2151
     4.1794   4.1794   4.2034   4.2034

     occupation numbers 
     1.0000   1.0000   1.0000   1.0000   1.0000   1.0000   1.0000   1.0000
     1.0000   1.0000   1.0000   1.0000   1.0000   1.0000   1.0000   1.0000
     1.0000   1.0000   1.0000   1.0000   1.0000   1.0000   1.0000   1.0000
     1.0000   1.0000   1.0000   1.0000   1.0000   1.0000   1.0000   1.0000
     1.0000   1.0000   1.0000   1.0000

          k = 0.3333 0.5774 0.2197 (  4676 PWs)   bands (ev):

   -11.8383 -11.8383 -11.5315 -11.5315  -0.3892  -0.3892  -0.2851  -0.2851
    -0.1999  -0.1999  -0.1179  -0.1179   0.0355   0.0355   0.1060   0.1060
     0.2956   0.2956   0.3673   0.3673   0.4864   0.4864   0.5788   0.5788
     1.4854   1.4854   2.4812   2.4812   2.7616   2.7616   3.2242   3.2242
     4.1049   4.1049   4.2389   4.2389

     occupation numbers 
     1.0000   1.0000   1.0000   1.0000   1.0000   1.0000   1.0000   1.0000
     1.0000   1.0000   1.0000   1.0000   1.0000   1.0000   1.0000   1.0000
     1.0000   1.0000   1.0000   1.0000   1.0000   1.0000   1.0000   1.0000
     1.0000   1.0000   1.0000   1.0000   1.0000   1.0000   1.0000   1.0000
     1.0000   1.0000   1.0000   1.0000

          k = 0.3333 0.5774 0.4393 (  4652 PWs)   bands (ev):

   -11.7719 -11.7719 -11.5946 -11.5945  -0.4465  -0.4465  -0.3509  -0.3509
    -0.1993  -0.1993  -0.1472  -0.1472  -0.0840  -0.0840  -0.0268  -0.0268
     0.3678   0.3678   0.3937   0.3937   0.4631   0.4631   0.5181   0.5181
     1.8139   1.8139   2.3131   2.3131   3.2385   3.2385   3.3610   3.3610
     3.9033   3.9033   4.1579   4.1579

     occupation numbers 
     1.0000   1.0000   1.0000   1.0000   1.0000   1.0000   1.0000   1.0000
     1.0000   1.0000   1.0000   1.0000   1.0000   1.0000   1.0000   1.0000
     1.0000   1.0000   1.0000   1.0000   1.0000   1.0000   1.0000   1.0000
     1.0000   1.0000   1.0000   1.0000   1.0000   1.0000   1.0000   1.0000
     1.0000   1.0000   1.0000   1.0000

          k = 0.3333 0.5774-0.6590 (  4660 PWs)   bands (ev):

   -11.6824 -11.6824 -11.6824 -11.6824  -0.4477  -0.4477  -0.4477  -0.4477
    -0.1719  -0.1719  -0.1719  -0.1719  -0.0932  -0.0932  -0.0932  -0.0931
     0.4203   0.4203   0.4203   0.4203   0.4565   0.4565   0.4565   0.4565
     2.0803   2.0803   2.0803   2.0803   3.6076   3.6076   3.6076   3.6076
     3.8066   3.8066   3.8066   3.8066

     occupation numbers 
     1.0000   1.0000   1.0000   1.0000   1.0000   1.0000   1.0000   1.0000
     1.0000   1.0000   1.0000   1.0000   1.0000   1.0000   1.0000   1.0000
     1.0000   1.0000   1.0000   1.0000   1.0000   1.0000   1.0000   1.0000
     1.0000   1.0000   1.0000   1.0000   1.0000   1.0000   1.0000   1.0000
     1.0000   1.0000   1.0000   1.0000

          k = 0.3333-0.9623 0.0000 (  4660 PWs)   bands (ev):

   -11.6806 -11.6806 -11.5078 -11.5078  -0.3406  -0.3406  -0.2079  -0.2079
    -0.0179  -0.0179   0.0228   0.0228   0.1993   0.1993   0.2441   0.2441
     0.3440   0.3440   0.3757   0.3757   0.5117   0.5117   0.6319   0.6319
     1.3510   1.3510   1.8364   1.8364   2.3601   2.3601   2.6372   2.6372
     3.6797   3.6797   3.8399   3.8399

     occupation numbers 
     1.0000   1.0000   1.0000   1.0000   1.0000   1.0000   1.0000   1.0000
     1.0000   1.0000   1.0000   1.0000   1.0000   1.0000   1.0000   1.0000
     1.0000   1.0000   1.0000   1.0000   1.0000   1.0000   1.0000   1.0000
     1.0000   1.0000   1.0000   1.0000   1.0000   1.0000   1.0000   1.0000
     1.0000   1.0000   1.0000   1.0000

          k = 0.3333-0.9623 0.2197 (  4632 PWs)   bands (ev):

   -11.6673 -11.6673 -11.5175 -11.5175  -0.3540  -0.3540  -0.2182  -0.2182
    -0.0948  -0.0948   0.0142   0.0142   0.1415   0.1415   0.2012   0.2012
     0.3467   0.3468   0.4085   0.4085   0.5088   0.5088   0.6231   0.6231
     1.3328   1.3328   1.8061   1.8061   2.4493   2.4493   2.8690   2.8690
     3.7137   3.7137   3.8343   3.8343

     occupation numbers 
     1.0000   1.0000   1.0000   1.0000   1.0000   1.0000   1.0000   1.0000
     1.0000   1.0000   1.0000   1.0000   1.0000   1.0000   1.0000   1.0000
     1.0000   1.0000   1.0000   1.0000   1.0000   1.0000   1.0000   1.0000
     1.0000   1.0000   1.0000   1.0000   1.0000   1.0000   1.0000   1.0000
     1.0000   1.0000   1.0000   1.0000

          k = 0.3333-0.9623 0.4393 (  4656 PWs)   bands (ev):

   -11.6321 -11.6321 -11.5455 -11.5455  -0.4009  -0.4009  -0.3057  -0.3057
    -0.1386  -0.1386  -0.0061  -0.0061   0.0646   0.0646   0.0920   0.0920
     0.3885   0.3885   0.4222   0.4222   0.5210   0.5210   0.5941   0.5941
     1.3811   1.3811   1.6632   1.6632   2.7235   2.7235   3.3579   3.3579
     3.4864   3.4864   3.9675   3.9675

     occupation numbers 
     1.0000   1.0000   1.0000   1.0000   1.0000   1.0000   1.0000   1.0000
     1.0000   1.0000   1.0000   1.0000   1.0000   1.0000   1.0000   1.0000
     1.0000   1.0000   1.0000   1.0000   1.0000   1.0000   1.0000   1.0000
     1.0000   1.0000   1.0000   1.0000   1.0000   1.0000   1.0000   1.0000
     1.0000   1.0000   1.0000   1.0000

          k = 0.3333-0.9623-0.6590 (  4648 PWs)   bands (ev):

   -11.5870 -11.5870 -11.5870 -11.5869  -0.4058  -0.4058  -0.4058  -0.4058
    -0.0590  -0.0589  -0.0589  -0.0589   0.0305   0.0305   0.0305   0.0305
     0.4150   0.4150   0.4150   0.4150   0.5551   0.5551   0.5551   0.5551
     1.5035   1.5036   1.5036   1.5036   3.0914   3.0914   3.0914   3.0914
     3.8323   3.8323   3.8323   3.8323

     occupation numbers 
     1.0000   1.0000   1.0000   1.0000   1.0000   1.0000   1.0000   1.0000
     1.0000   1.0000   1.0000   1.0000   1.0000   1.0000   1.0000   1.0000
[...]

   -11.8933 -11.6584 -11.6321 -11.5455  -0.4551  -0.4009  -0.3389  -0.3057
    -0.2499  -0.2477  -0.1619  -0.1565  -0.1385  -0.0062   0.0646   0.0921
     0.3661   0.3711   0.3885   0.4222   0.4552   0.4766   0.5209   0.5940
     1.3810   1.6630   1.9412   2.7238   2.9165   3.3580   3.4865   3.5711
     3.8589   3.9675   4.2601   4.2869

     occupation numbers 
     1.0000   1.0000   1.0000   1.0000   1.0000   1.0000   1.0000   1.0000
     1.0000   1.0000   1.0000   1.0000   1.0000   1.0000   1.0000   1.0000
     1.0000   1.0000   1.0000   1.0000   1.0000   1.0000   1.0000   1.0000
     1.0000   1.0000   1.0000   1.0000   1.0000   1.0000   1.0000   1.0000
     1.0000   1.0000   1.0000   1.0000

          k = 0.6667-0.3849-0.2197 (  4656 PWs)   bands (ev):

   -11.7859 -11.6673 -11.5221 -11.5175  -0.4373  -0.3540  -0.2346  -0.2182
    -0.1919  -0.0948  -0.0496   0.0142   0.0751   0.1043   0.1415   0.2013
     0.3376   0.3468   0.3773   0.4085   0.4882   0.5087   0.5891   0.6231
     1.3328   1.4436   1.8060   2.1189   2.4495   2.6861   2.8689   3.1950
     3.7138   3.8343   4.1066   4.1588

     occupation numbers 
     1.0000   1.0000   1.0000   1.0000   1.0000   1.0000   1.0000   1.0000
     1.0000   1.0000   1.0000   1.0000   1.0000   1.0000   1.0000   1.0000
     1.0000   1.0000   1.0000   1.0000   1.0000   1.0000   1.0000   1.0000
     1.0000   1.0000   1.0000   1.0000   1.0000   1.0000   1.0000   1.0000
     1.0000   1.0000   1.0000   1.0000

          k = 0.6667-0.3849-0.4393 (  4667 PWs)   bands (ev):

   -11.7279 -11.6321 -11.5754 -11.5455  -0.4840  -0.4009  -0.3654  -0.3057
    -0.1459  -0.1386  -0.0879  -0.0267  -0.0062   0.0075   0.0646   0.0920
     0.3885   0.3923   0.3985   0.4222   0.4611   0.5209   0.5268   0.5941
     1.3811   1.6219   1.6631   2.0354   2.7237   3.1458   3.3579   3.4099
     3.4864   3.9637   3.9675   4.0668

     occupation numbers 
     1.0000   1.0000   1.0000   1.0000   1.0000   1.0000   1.0000   1.0000
     1.0000   1.0000   1.0000   1.0000   1.0000   1.0000   1.0000   1.0000
     1.0000   1.0000   1.0000   1.0000   1.0000   1.0000   1.0000   1.0000
     1.0000   1.0000   1.0000   1.0000   1.0000   1.0000   1.0000   1.0000
     1.0000   1.0000   1.0000   1.0000

          k = 0.1667 0.0962-0.2197 (  4661 PWs)   bands (ev):

   -12.0426 -11.7006 -11.5958 -11.5165  -0.4280  -0.3798  -0.3085  -0.3083
    -0.1925  -0.1885  -0.1717  -0.1667   0.0262   0.0600   0.0809   0.1518
     0.3260   0.3312   0.3885   0.4140   0.4735   0.4859   0.4910   0.5912
     1.2420   1.2727   1.8353   2.6265   3.0062   3.7289   3.8306   3.8817
     3.8987   4.0514   4.5348   4.5468

     occupation numbers 
     1.0000   1.0000   1.0000   1.0000   1.0000   1.0000   1.0000   1.0000
     1.0000   1.0000   1.0000   1.0000   1.0000   1.0000   1.0000   1.0000
     1.0000   1.0000   1.0000   1.0000   1.0000   1.0000   1.0000   1.0000
     1.0000   1.0000   1.0000   1.0000   1.0000   1.0000   1.0000   1.0000
     1.0000   1.0000   1.0000   1.0000

          k = 0.1667 0.0962-0.4393 (  4672 PWs)   bands (ev):

   -11.9495 -11.6914 -11.6584 -11.5520  -0.4790  -0.4304  -0.3618  -0.3123
    -0.2920  -0.2897  -0.2109  -0.2085  -0.1142   0.0108   0.0373   0.0727
     0.3701   0.3713   0.4244   0.4420   0.4539   0.4594   0.4651   0.5471
     1.3329   1.6692   1.9283   3.1943   3.2271   3.2423   3.8415   3.9253
     3.9714   4.0243   4.3756   4.4014

     occupation numbers 
     1.0000   1.0000   1.0000   1.0000   1.0000   1.0000   1.0000   1.0000
     1.0000   1.0000   1.0000   1.0000   1.0000   1.0000   1.0000   1.0000
     1.0000   1.0000   1.0000   1.0000   1.0000   1.0000   1.0000   1.0000
     1.0000   1.0000   1.0000   1.0000   1.0000   1.0000   1.0000   1.0000
     1.0000   1.0000   1.0000   1.0000

          k = 0.5000-0.0962-0.2197 (  4683 PWs)   bands (ev):

   -11.9214 -11.7466 -11.5536 -11.5169  -0.4145  -0.3555  -0.2724  -0.2720
    -0.2461  -0.1608  -0.1405  -0.0651  -0.0506   0.0800   0.1231   0.1334
     0.3037   0.3043   0.3417   0.3967   0.4815   0.4943   0.5450   0.6170
     1.4076   1.4603   2.0783   2.6809   2.8464   2.8518   3.0901   3.5370
     3.8900   4.0419   4.3116   4.3803

     occupation numbers 
     1.0000   1.0000   1.0000   1.0000   1.0000   1.0000   1.0000   1.0000
     1.0000   1.0000   1.0000   1.0000   1.0000   1.0000   1.0000   1.0000
     1.0000   1.0000   1.0000   1.0000   1.0000   1.0000   1.0000   1.0000
     1.0000   1.0000   1.0000   1.0000   1.0000   1.0000   1.0000   1.0000
     1.0000   1.0000   1.0000   1.0000

          k = 0.5000-0.0962-0.4393 (  4671 PWs)   bands (ev):

   -11.8432 -11.6954 -11.6307 -11.5625  -0.4620  -0.4173  -0.3482  -0.3391
    -0.2359  -0.2003  -0.1421  -0.1264  -0.1024  -0.0982  -0.0210   0.0443
     0.3655   0.3758   0.3760   0.4177   0.4568   0.4812   0.4924   0.5553
     1.6073   1.9171   1.9583   2.6547   2.9999   3.2599   3.3686   3.6582
     3.6763   4.0721   4.1386   4.2182

     occupation numbers 
     1.0000   1.0000   1.0000   1.0000   1.0000   1.0000   1.0000   1.0000
     1.0000   1.0000   1.0000   1.0000   1.0000   1.0000   1.0000   1.0000
     1.0000   1.0000   1.0000   1.0000   1.0000   1.0000   1.0000   1.0000
     1.0000   1.0000   1.0000   1.0000   1.0000   1.0000   1.0000   1.0000
     1.0000   1.0000   1.0000   1.0000

          k =-0.8333 0.6736-0.2197 (  4640 PWs)   bands (ev):

   -11.6650 -11.6650 -11.5190 -11.5190  -0.4045  -0.4045  -0.1813  -0.1813
    -0.1406  -0.1406   0.0677   0.0677   0.1032   0.1032   0.1949   0.1949
     0.3986   0.3986   0.4213   0.4213   0.5020   0.5020   0.5710   0.5710
     1.2375   1.2375   1.7438   1.7438   2.5986   2.5986   2.9131   2.9131
     3.7889   3.7889   3.9325   3.9325

     occupation numbers 
     1.0000   1.0000   1.0000   1.0000   1.0000   1.0000   1.0000   1.0000
     1.0000   1.0000   1.0000   1.0000   1.0000   1.0000   1.0000   1.0000
     1.0000   1.0000   1.0000   1.0000   1.0000   1.0000   1.0000   1.0000
     1.0000   1.0000   1.0000   1.0000   1.0000   1.0000   1.0000   1.0000
     1.0000   1.0000   1.0000   1.0000

          k =-0.8333 0.6736-0.4393 (  4646 PWs)   bands (ev):

   -11.6305 -11.6305 -11.5461 -11.5461  -0.4550  -0.4550  -0.3374  -0.3374
    -0.1189  -0.1189   0.0397   0.0397   0.0671   0.0671   0.0971   0.0971
     0.4234   0.4234   0.4368   0.4368   0.5084   0.5084   0.5595   0.5595
     1.2636   1.2636   1.5562   1.5562   2.9816   2.9816   3.3398   3.3398
     3.6741   3.6741   3.9495   3.9495

     occupation numbers 
     1.0000   1.0000   1.0000   1.0000   1.0000   1.0000   1.0000   1.0000
     1.0000   1.0000   1.0000   1.0000   1.0000   1.0000   1.0000   1.0000
     1.0000   1.0000   1.0000   1.0000   1.0000   1.0000   1.0000   1.0000
     1.0000   1.0000   1.0000   1.0000   1.0000   1.0000   1.0000   1.0000
     1.0000   1.0000   1.0000   1.0000

          k =-0.5000 0.4811-0.2197 (  4662 PWs)   bands (ev):

   -11.8245 -11.6085 -11.5315 -11.5288  -0.4183  -0.3128  -0.2537  -0.2050
    -0.1969  -0.0970  -0.0941   0.0437   0.1080   0.1236   0.2031   0.2415
     0.3083   0.3466   0.3687   0.3915   0.4869   0.5417   0.5807   0.6111
     1.3979   1.4793   1.6665   2.0147   2.3253   2.7774   3.0802   3.2281
     3.4626   3.6100   4.1434   4.2062

     occupation numbers 
     1.0000   1.0000   1.0000   1.0000   1.0000   1.0000   1.0000   1.0000
     1.0000   1.0000   1.0000   1.0000   1.0000   1.0000   1.0000   1.0000
     1.0000   1.0000   1.0000   1.0000   1.0000   1.0000   1.0000   1.0000
     1.0000   1.0000   1.0000   1.0000   1.0000   1.0000   1.0000   1.0000
     1.0000   1.0000   1.0000   1.0000

          k =-0.5000 0.4811-0.4393 (  4648 PWs)   bands (ev):

   -11.7602 -11.5893 -11.5882 -11.5436  -0.4670  -0.3558  -0.3237  -0.2664
    -0.1791  -0.1774  -0.1287  -0.0652  -0.0195   0.0563   0.1196   0.1400
     0.3623   0.3734   0.3912   0.3946   0.4620   0.5194   0.5859   0.6330
     1.3847   1.5468   1.7583   2.2265   2.3187   3.1538   3.1789   3.4235
     3.5528   3.8578   3.9455   4.1315

     occupation numbers 
     1.0000   1.0000   1.0000   1.0000   1.0000   1.0000   1.0000   1.0000
     1.0000   1.0000   1.0000   1.0000   1.0000   1.0000   1.0000   1.0000
     1.0000   1.0000   1.0000   1.0000   1.0000   1.0000   1.0000   1.0000
     1.0000   1.0000   1.0000   1.0000   1.0000   1.0000   1.0000   1.0000
     1.0000   1.0000   1.0000   1.0000

          k = 0.3333 0.1925-0.2197 (  4697 PWs)   bands (ev):

   -11.9789 -11.7859 -11.5723 -11.5221  -0.4374  -0.4093  -0.2797  -0.2719
    -0.2346  -0.1918  -0.1813  -0.1083  -0.0496   0.0554   0.0753   0.1043
     0.3124   0.3328   0.3376   0.3773   0.4783   0.4882   0.5196   0.5891
     1.3308   1.4435   2.1188   2.6859   3.1724   3.1953   3.4389   3.6969
     4.1065   4.1592   4.4389   4.4607

     occupation numbers 
     1.0000   1.0000   1.0000   1.0000   1.0000   1.0000   1.0000   1.0000
     1.0000   1.0000   1.0000   1.0000   1.0000   1.0000   1.0000   1.0000
     1.0000   1.0000   1.0000   1.0000   1.0000   1.0000   1.0000   1.0000
     1.0000   1.0000   1.0000   1.0000   1.0000   1.0000   1.0000   1.0000
     1.0000   1.0000   1.0000   1.0000

          k = 0.3333 0.1925-0.4393 (  4680 PWs)   bands (ev):

   -11.8933 -11.7279 -11.6584 -11.5754  -0.4840  -0.4551  -0.3654  -0.3389
    -0.2498  -0.2478  -0.1620  -0.1564  -0.1457  -0.0880  -0.0268   0.0076
     0.3662   0.3710   0.3923   0.3984   0.4552   0.4610   0.4765   0.5268
     1.6218   1.9411   2.0353   2.9164   3.1457   3.4102   3.5709   3.8592
     3.9640   4.0667   4.2599   4.2873

     occupation numbers 
     1.0000   1.0000   1.0000   1.0000   1.0000   1.0000   1.0000   1.0000
     1.0000   1.0000   1.0000   1.0000   1.0000   1.0000   1.0000   1.0000
     1.0000   1.0000   1.0000   1.0000   1.0000   1.0000   1.0000   1.0000
     1.0000   1.0000   1.0000   1.0000   1.0000   1.0000   1.0000   1.0000
     1.0000   1.0000   1.0000   1.0000

          k =-0.6667 0.7698-0.2197 (  4632 PWs)   bands (ev):

   -11.6673 -11.6673 -11.5175 -11.5175  -0.3540  -0.3540  -0.2182  -0.2182
    -0.0948  -0.0948   0.0142   0.0142   0.1415   0.1415   0.2012   0.2012
     0.3467   0.3467   0.4085   0.4085   0.5088   0.5088   0.6231   0.6231
     1.3328   1.3328   1.8061   1.8061   2.4493   2.4493   2.8690   2.8690
     3.7137   3.7137   3.8343   3.8343

     occupation numbers 
     1.0000   1.0000   1.0000   1.0000   1.0000   1.0000   1.0000   1.0000
     1.0000   1.0000   1.0000   1.0000   1.0000   1.0000   1.0000   1.0000
     1.0000   1.0000   1.0000   1.0000   1.0000   1.0000   1.0000   1.0000
     1.0000   1.0000   1.0000   1.0000   1.0000   1.0000   1.0000   1.0000
     1.0000   1.0000   1.0000   1.0000

          k =-0.6667 0.7698-0.4393 (  4656 PWs)   bands (ev):

   -11.6321 -11.6321 -11.5455 -11.5455  -0.4009  -0.4009  -0.3057  -0.3057
    -0.1386  -0.1386  -0.0061  -0.0061   0.0646   0.0646   0.0920   0.0920
     0.3885   0.3885   0.4222   0.4222   0.5209   0.5210   0.5941   0.5941
     1.3811   1.3811   1.6632   1.6632   2.7235   2.7235   3.3579   3.3579
     3.4864   3.4864   3.9675   3.9675

     occupation numbers 
     1.0000   1.0000   1.0000   1.0000   1.0000   1.0000   1.0000   1.0000
     1.0000   1.0000   1.0000   1.0000   1.0000   1.0000   1.0000   1.0000
     1.0000   1.0000   1.0000   1.0000   1.0000   1.0000   1.0000   1.0000
     1.0000   1.0000   1.0000   1.0000   1.0000   1.0000   1.0000   1.0000
     1.0000   1.0000   1.0000   1.0000

     highest occupied level (ev):     4.6540

!    total energy              =    -723.20108367 Ry
     estimated scf accuracy    <          1.9E-09 Ry

     The total energy is the sum of the following terms:
     one-electron contribution =    -348.11664964 Ry
     hartree contribution      =     250.86488065 Ry
     xc contribution           =    -218.47317858 Ry
     ewald contribution        =    -407.47613610 Ry

     convergence has been achieved in  31 iterations

     Forces acting on atoms (cartesian axes, Ry/au):

     atom    1 type  1   force =     0.00000066    0.00000038   -0.00586950
     atom    2 type  1   force =    -0.00000002   -0.00000001   -0.00586483
     atom    3 type  2   force =    -0.00000193   -0.00000111    0.00586810
     atom    4 type  2   force =     0.00000219    0.00000126    0.00586766
     atom    5 type  1   force =     0.00000307    0.00000177   -0.00587101
     atom    6 type  1   force =    -0.00000451   -0.00000260   -0.00586618
     atom    7 type  2   force =    -0.00000151   -0.00000087    0.00586813
     atom    8 type  2   force =     0.00000205    0.00000119    0.00586764
     The non-local contrib.  to forces
     atom    1 type  1   force =     0.00000687    0.00000397   -0.16890985
     atom    2 type  1   force =    -0.00000623   -0.00000360   -0.16890817
     atom    3 type  2   force =    -0.00018259   -0.00010542   -0.14747489
     atom    4 type  2   force =     0.00018170    0.00010490   -0.14747543
     atom    5 type  1   force =     0.00000769    0.00000444   -0.16890989
     atom    6 type  1   force =    -0.00000817   -0.00000472   -0.16890838
     atom    7 type  2   force =    -0.00018248   -0.00010535   -0.14747514
     atom    8 type  2   force =     0.00018344    0.00010591   -0.14747515
     The ionic contribution  to forces
     atom    1 type  1   force =    -0.00000000    0.00000000   -1.08201231
     atom    2 type  1   force =     0.00000000   -0.00000000   -1.08201231
     atom    3 type  2   force =    -0.00000000    0.00000000    1.08201231
     atom    4 type  2   force =     0.00000000   -0.00000000    1.08201231
     atom    5 type  1   force =    -0.00000000    0.00000000   -1.08201231
     atom    6 type  1   force =     0.00000000   -0.00000000   -1.08201231
     atom    7 type  2   force =    -0.00000000    0.00000000    1.08201231
     atom    8 type  2   force =     0.00000000   -0.00000000    1.08201231
     The local contribution  to forces
     atom    1 type  1   force =     0.00000050    0.00000029    1.23421424
     atom    2 type  1   force =    -0.00000126   -0.00000084    1.23420753
     atom    3 type  2   force =     0.00017891    0.00010329   -0.92990747
     atom    4 type  2   force =    -0.00017961   -0.00010372   -0.92990738
     atom    5 type  1   force =    -0.00000363   -0.00000209    1.23421568
     atom    6 type  1   force =     0.00000509    0.00000283    1.23420940
     atom    7 type  2   force =     0.00017765    0.00010257   -0.92990742
     atom    8 type  2   force =    -0.00017739   -0.00010244   -0.92990625
     The core correction contribution to forces
     atom    1 type  1   force =    -0.00000427   -0.00000247    0.01083797
     atom    2 type  1   force =     0.00000426    0.00000245    0.01083813
     atom    3 type  2   force =     0.00000207    0.00000119    0.00123931
     atom    4 type  2   force =    -0.00000206   -0.00000119    0.00123931
     atom    5 type  1   force =    -0.00000412   -0.00000238    0.01083795
     atom    6 type  1   force =     0.00000417    0.00000239    0.01083808
     atom    7 type  2   force =     0.00000206    0.00000119    0.00123931
     atom    8 type  2   force =    -0.00000207   -0.00000120    0.00123931
     The Hubbard contrib.    to forces
     atom    1 type  1   force =     0.00000000    0.00000000    0.00000000
     atom    2 type  1   force =     0.00000000    0.00000000    0.00000000
     atom    3 type  2   force =     0.00000000    0.00000000    0.00000000
     atom    4 type  2   force =     0.00000000    0.00000000    0.00000000
     atom    5 type  1   force =     0.00000000    0.00000000    0.00000000
     atom    6 type  1   force =     0.00000000    0.00000000    0.00000000
     atom    7 type  2   force =     0.00000000    0.00000000    0.00000000
     atom    8 type  2   force =     0.00000000    0.00000000    0.00000000
     The SCF correction term to forces
     atom    1 type  1   force =    -0.00000268   -0.00000155    0.00000392
     atom    2 type  1   force =     0.00000302    0.00000174    0.00001345
     atom    3 type  2   force =    -0.00000056   -0.00000032    0.00000229
     atom    4 type  2   force =     0.00000193    0.00000112    0.00000231
     atom    5 type  1   force =     0.00000289    0.00000167    0.00000102
     atom    6 type  1   force =    -0.00000578   -0.00000334    0.00001049
     atom    7 type  2   force =     0.00000102    0.00000059    0.00000253
     atom    8 type  2   force =    -0.00000215   -0.00000124    0.00000089

     Total force =     0.016597     Total SCF correction =     0.000020

     init_run     :      8.46s CPU      8.91s WALL (       1 calls)
     electrons    :    408.49s CPU    440.61s WALL (       1 calls)
     forces       :      3.88s CPU      3.97s WALL (       1 calls)

     Called by init_run:
     wfcinit      :      3.68s CPU      3.92s WALL (       1 calls)
     wfcinit:atom :      0.09s CPU      0.10s WALL (      20 calls)
     wfcinit:wfcr :      2.67s CPU      2.90s WALL (      20 calls)
     potinit      :      1.34s CPU      1.41s WALL (       1 calls)
     hinit0       :      3.11s CPU      3.14s WALL (       1 calls)

     Called by electrons:
     c_bands      :    356.12s CPU    385.51s WALL (      31 calls)
     sum_band     :     28.71s CPU     29.26s WALL (      31 calls)
     v_of_rho     :      9.77s CPU      9.93s WALL (      32 calls)
     v_h          :      0.47s CPU      0.48s WALL (      32 calls)
     v_xc         :      9.59s CPU      9.74s WALL (      33 calls)
     newd         :      8.56s CPU     10.66s WALL (      32 calls)
     mix_rho      :      1.47s CPU      1.52s WALL (      31 calls)

     Called by c_bands:
     init_us_2    :      7.17s CPU      7.21s WALL (    1280 calls)
     init_us_2:cp :      7.17s CPU      7.21s WALL (    1280 calls)
     cegterg      :    317.30s CPU    346.52s WALL (     620 calls)

     Called by sum_band:
     sum_band:wei :      0.03s CPU      0.03s WALL (      31 calls)
     sum_band:loo :     22.26s CPU     22.38s WALL (      31 calls)
     sum_band:buf :      0.73s CPU      0.79s WALL (     620 calls)
     sum_band:ini :      3.41s CPU      3.42s WALL (     620 calls)
     sum_band:cal :      4.46s CPU      4.47s WALL (     620 calls)
     sum_band:bec :      0.04s CPU      0.04s WALL (     620 calls)
     addusdens    :      2.70s CPU      2.89s WALL (      31 calls)
     addusd:skk   :      0.01s CPU      0.01s WALL (      62 calls)
     addusd:dgemm :      0.48s CPU      0.50s WALL (      62 calls)
     addusd:qvan2 :      1.36s CPU      1.37s WALL (      62 calls)

     Called by *egterg:
     cdiaghg      :     17.05s CPU     17.10s WALL (    4403 calls)
     cegterg:over :     18.33s CPU     18.43s WALL (    3783 calls)
     cegterg:upda :     19.05s CPU     24.22s WALL (    3783 calls)
     cegterg:last :     59.38s CPU     76.19s WALL (    2347 calls)
     h_psi        :    151.89s CPU    152.29s WALL (    4423 calls)
     s_psi        :     18.68s CPU     18.75s WALL (    4423 calls)
     g_psi        :      3.67s CPU      3.71s WALL (    3783 calls)

     Called by h_psi:
     h_psi:calbec :     22.76s CPU     22.81s WALL (    4423 calls)
     vloc_psi     :    107.00s CPU    107.31s WALL (    4423 calls)
     add_vuspsi   :     21.28s CPU     21.32s WALL (    4423 calls)

     General routines
     calbec       :     28.43s CPU     28.50s WALL (    5123 calls)
     fft          :      4.96s CPU      4.97s WALL (     425 calls)
     ffts         :      0.52s CPU      0.52s WALL (      63 calls)
     fftw         :    105.50s CPU    105.74s WALL (   51980 calls)
     interpolate  :      0.87s CPU      0.87s WALL (      32 calls)

     Parallel routines

     PWSCF        :   7m 1.56s CPU   7m34.25s WALL


   This run was terminated on:   0:16:54  27Aug2025            

=------------------------------------------------------------------------------=
   JOB DONE.
=------------------------------------------------------------------------------=
