
     Program PWSCF v.7.0 starts on 27Aug2025 at  2:16:20 

     This program is part of the open-source Quantum ESPRESSO suite
     for quantum simulation of materials; please cite
         "P. Giannozzi et al., J. Phys.:Condens. Matter 21 395502 (2009);
         "P. Giannozzi et al., J. Phys.:Condens. Matter 29 465901 (2017);
         "P. Giannozzi et al., J. Chem. Phys. 152 154105 (2020);
          URL http://www.quantum-espresso.org", 
     in publications or presentations arising from this work. More details at
     http://www.quantum-espresso.org/quote

     Parallel version (MPI & OpenMP), running on      16 processor cores
     Number of MPI processes:                16
     Threads/MPI process:                     1

     MPI processes distributed on     1 nodes
     K-points division:     npool     =       4
     band groups division:  nbgrp     =       4
     107205 MiB available memory on the printing compute node when the environment starts

     Reading input from /home/jvc/QEspresso7.2/ZnO_database/scripts/cell211.in/ZnO-3.60-1.68-211.in
Warning: card &CELL ignored
Warning: card / ignored
Warning: card &FCP ignored
Warning: card / ignored
Warning: card &RISM ignored
Warning: card / ignored

     Current dimensions of program PWSCF are:
     Max number of different atomic species (ntypx) = 10
     Max number of k-points (npk) =  40000
     Max angular momentum in pseudopotentials (lmaxx) =  4
     file Zn.upf: wavefunction(s)  3D renormalized
     Found identity + ( -0.5000  0.0000  0.0000) symmetry
     This is a supercell, fractional translations are disabled
     Message from routine setup:
     using ibrav=0 with symmetry is DISCOURAGED, use correct ibrav instead

     Subspace diagonalization in iterative solution of the eigenvalue problem:
     a serial algorithm will be used


     G-vector sticks info
     --------------------
     sticks:   dense  smooth     PW     G-vecs:    dense   smooth      PW
     Sum        2557    1279    389               123417    43549    7397

     Using Slab Decomposition



     bravais-lattice index     =            0
     lattice parameter (alat)  =      13.5935  a.u.
     unit-cell volume          =     913.0525 (a.u.)^3
     number of atoms/cell      =            8
     number of atomic types    =            2
     number of electrons       =        72.00
     number of Kohn-Sham states=           36
     kinetic-energy cutoff     =      50.0000  Ry
     charge density cutoff     =     400.0000  Ry
     scf convergence threshold =      1.0E-08
     mixing beta               =       0.3000
     number of iterations used =            8  plain     mixing
     Exchange-correlation= PBE
                           (   1   4   3   4   0   0   0)

     celldm(1)=  13.593479  celldm(2)=   0.000000  celldm(3)=   0.000000
     celldm(4)=   0.000000  celldm(5)=   0.000000  celldm(6)=   0.000000

     crystal axes: (cart. coord. in units of alat)
               a(1) = (   1.000000   0.000000   0.000000 )  
               a(2) = (  -0.250000   0.433013   0.000000 )  
               a(3) = (   0.000000   0.000000   0.839466 )  

     reciprocal axes: (cart. coord. in units 2 pi/alat)
               b(1) = (  1.000000  0.577350 -0.000000 )  
               b(2) = (  0.000000  2.309401  0.000000 )  
               b(3) = (  0.000000 -0.000000  1.191233 )  


     PseudoPot. # 1 for Zn read from file:
     /home/jvc/QEspresso7.2/ZnO_database/pseudos/Zn.upf
     MD5 check sum: 7f56cabf9682ed8c977c2f7d0c5985c5
     Pseudo is Ultrasoft + core correction, Zval = 12.0
     Generated using &quot;atomic&quot; code by A. Dal Corso  v.6.2.2
     Using radial grid of 1201 points,  6 beta functions with: 
                l(1) =   0
                l(2) =   0
                l(3) =   1
                l(4) =   1
                l(5) =   2
                l(6) =   2
     Q(r) pseudized with 0 coefficients 


     PseudoPot. # 2 for O  read from file:
     /home/jvc/QEspresso7.2/ZnO_database/pseudos/O.upf
     MD5 check sum: 91400c9766925bcf19f520983a725ff0
     Pseudo is Ultrasoft + core correction, Zval =  6.0
     Generated using &quot;atomic&quot; code by A. Dal Corso  v.6.3MaX
     Using radial grid of 1095 points,  4 beta functions with: 
                l(1) =   0
                l(2) =   0
                l(3) =   1
                l(4) =   1
     Q(r) pseudized with 0 coefficients 


     atomic species   valence    mass     pseudopotential
        Zn            12.00    65.38000     Zn( 1.00)
        O              6.00    15.99900     O ( 1.00)

      2 Sym. Ops. (no inversion) found


                                    s                        frac. trans.

      isym =  1     identity                                     

 cryst.   s( 1) = (     1          0          0      )
                  (     0          1          0      )
                  (     0          0          1      )

 cart.    s( 1) = (  1.0000000  0.0000000  0.0000000 )
                  (  0.0000000  1.0000000  0.0000000 )
                  (  0.0000000  0.0000000  1.0000000 )


      isym =  2     inv. 180 deg rotation - cryst. axis [0,1,0]  

 cryst.   s( 2) = (     1          2          0      )
                  (     0         -1          0      )
                  (     0          0          1      )

 cart.    s( 2) = (  0.5000000  0.8660254  0.0000000 )
                  (  0.8660254 -0.5000000  0.0000000 )
                  (  0.0000000  0.0000000  1.0000000 )


   Cartesian axes

     site n.     atom                  positions (alat units)
         1           Zn  tau(   1) = (   0.2500000   0.1443376   0.4202650  )
         2           Zn  tau(   2) = (  -0.0000000   0.2886751   0.0005319  )
         3           O   tau(   3) = (   0.2500000   0.1443376   0.7384587  )
         4           O   tau(   4) = (  -0.0000000   0.2886751   0.3187256  )
         5           Zn  tau(   5) = (   0.7500000   0.1443376   0.4202650  )
         6           Zn  tau(   6) = (   0.5000000   0.2886751   0.0005319  )
         7           O   tau(   7) = (   0.7500000   0.1443376   0.7384587  )
         8           O   tau(   8) = (   0.5000000   0.2886751   0.3187256  )

   Crystallographic axes

     site n.     atom                  positions (cryst. coord.)
         1           Zn  tau(   1) = (  0.3333333  0.3333333  0.5006336  )
         2           Zn  tau(   2) = (  0.1666667  0.6666667  0.0006336  )
         3           O   tau(   3) = (  0.3333333  0.3333333  0.8796764  )
         4           O   tau(   4) = (  0.1666667  0.6666667  0.3796764  )
         5           Zn  tau(   5) = (  0.8333333  0.3333333  0.5006336  )
         6           Zn  tau(   6) = (  0.6666667  0.6666667  0.0006336  )
         7           O   tau(   7) = (  0.8333333  0.3333333  0.8796764  )
         8           O   tau(   8) = (  0.6666667  0.6666667  0.3796764  )

     number of k points=    80
                       cart. coord. in units 2pi/alat
        k(    1) = (   0.0000000   0.0000000   0.0000000), wk =   0.0092593
        k(    2) = (   0.0000000   0.0000000   0.1985388), wk =   0.0185185
        k(    3) = (   0.0000000   0.0000000   0.3970777), wk =   0.0185185
        k(    4) = (   0.0000000   0.0000000  -0.5956165), wk =   0.0092593
        k(    5) = (   0.0000000   0.3849002   0.0000000), wk =   0.0370370
        k(    6) = (   0.0000000   0.3849002   0.1985388), wk =   0.0370370
        k(    7) = (   0.0000000   0.3849002   0.3970777), wk =   0.0370370
        k(    8) = (   0.0000000   0.3849002  -0.5956165), wk =   0.0370370
        k(    9) = (   0.0000000   0.7698004   0.0000000), wk =   0.0370370
        k(   10) = (   0.0000000   0.7698004   0.1985388), wk =   0.0370370
        k(   11) = (   0.0000000   0.7698004   0.3970777), wk =   0.0370370
        k(   12) = (   0.0000000   0.7698004  -0.5956165), wk =   0.0370370
        k(   13) = (   0.0000000  -1.1547005   0.0000000), wk =   0.0092593
        k(   14) = (   0.0000000  -1.1547005   0.1985388), wk =   0.0185185
        k(   15) = (   0.0000000  -1.1547005   0.3970777), wk =   0.0185185
        k(   16) = (   0.0000000  -1.1547005  -0.5956165), wk =   0.0092593
        k(   17) = (   0.1666667   0.0962250   0.0000000), wk =   0.0185185
        k(   18) = (   0.1666667   0.0962250   0.1985388), wk =   0.0185185
        k(   19) = (   0.1666667   0.0962250   0.3970777), wk =   0.0185185
        k(   20) = (   0.1666667   0.0962250  -0.5956165), wk =   0.0185185
        k(   21) = (   0.1666667   0.4811252   0.0000000), wk =   0.0370370
        k(   22) = (   0.1666667   0.4811252   0.1985388), wk =   0.0370370
        k(   23) = (   0.1666667   0.4811252   0.3970777), wk =   0.0370370
        k(   24) = (   0.1666667   0.4811252  -0.5956165), wk =   0.0370370
        k(   25) = (   0.1666667   0.8660254   0.0000000), wk =   0.0185185
        k(   26) = (   0.1666667   0.8660254   0.1985388), wk =   0.0370370
        k(   27) = (   0.1666667   0.8660254   0.3970777), wk =   0.0370370
        k(   28) = (   0.1666667   0.8660254  -0.5956165), wk =   0.0185185
        k(   29) = (   0.1666667  -1.0584755   0.0000000), wk =   0.0185185
        k(   30) = (   0.1666667  -1.0584755   0.1985388), wk =   0.0185185
        k(   31) = (   0.1666667  -1.0584755   0.3970777), wk =   0.0185185
        k(   32) = (   0.1666667  -1.0584755  -0.5956165), wk =   0.0185185
        k(   33) = (   0.1666667  -0.6735753   0.0000000), wk =   0.0370370
        k(   34) = (   0.1666667  -0.6735753   0.1985388), wk =   0.0370370
        k(   35) = (   0.1666667  -0.6735753   0.3970777), wk =   0.0370370
        k(   36) = (   0.1666667  -0.6735753  -0.5956165), wk =   0.0370370
        k(   37) = (   0.1666667  -0.2886751   0.0000000), wk =   0.0185185
        k(   38) = (   0.1666667  -0.2886751   0.1985388), wk =   0.0370370
        k(   39) = (   0.1666667  -0.2886751   0.3970777), wk =   0.0370370
        k(   40) = (   0.1666667  -0.2886751  -0.5956165), wk =   0.0185185
        k(   41) = (   0.3333333   0.1924501   0.0000000), wk =   0.0185185
        k(   42) = (   0.3333333   0.1924501   0.1985388), wk =   0.0185185
        k(   43) = (   0.3333333   0.1924501   0.3970777), wk =   0.0185185
        k(   44) = (   0.3333333   0.1924501  -0.5956165), wk =   0.0185185
        k(   45) = (   0.3333333   0.5773503   0.0000000), wk =   0.0185185
        k(   46) = (   0.3333333   0.5773503   0.1985388), wk =   0.0370370
        k(   47) = (   0.3333333   0.5773503   0.3970777), wk =   0.0370370
        k(   48) = (   0.3333333   0.5773503  -0.5956165), wk =   0.0185185
        k(   49) = (   0.3333333  -0.9622504   0.0000000), wk =   0.0185185
        k(   50) = (   0.3333333  -0.9622504   0.1985388), wk =   0.0185185
        k(   51) = (   0.3333333  -0.9622504   0.3970777), wk =   0.0185185
        k(   52) = (   0.3333333  -0.9622504  -0.5956165), wk =   0.0185185
        k(   53) = (   0.3333333  -0.5773503   0.0000000), wk =   0.0185185
        k(   54) = (   0.3333333  -0.5773503   0.1985388), wk =   0.0370370
        k(   55) = (   0.3333333  -0.5773503   0.3970777), wk =   0.0370370
        k(   56) = (   0.3333333  -0.5773503  -0.5956165), wk =   0.0185185
        k(   57) = (  -0.5000000  -0.2886751   0.0000000), wk =   0.0092593
        k(   58) = (  -0.5000000  -0.2886751   0.1985388), wk =   0.0185185
        k(   59) = (  -0.5000000  -0.2886751   0.3970777), wk =   0.0185185
        k(   60) = (  -0.5000000  -0.2886751  -0.5956165), wk =   0.0092593
        k(   61) = (  -0.5000000  -1.4433757   0.0000000), wk =   0.0092593
        k(   62) = (  -0.5000000  -1.4433757   0.1985388), wk =   0.0185185
        k(   63) = (  -0.5000000  -1.4433757   0.3970777), wk =   0.0185185
        k(   64) = (  -0.5000000  -1.4433757  -0.5956165), wk =   0.0092593
        k(   65) = (   0.3333333  -0.1924501  -0.1985388), wk =   0.0370370
        k(   66) = (   0.3333333  -0.1924501  -0.3970777), wk =   0.0370370
        k(   67) = (   0.6666667  -0.3849002  -0.1985388), wk =   0.0370370
        k(   68) = (   0.6666667  -0.3849002  -0.3970777), wk =   0.0370370
        k(   69) = (   0.1666667   0.0962250  -0.1985388), wk =   0.0185185
        k(   70) = (   0.1666667   0.0962250  -0.3970777), wk =   0.0185185
        k(   71) = (   0.5000000  -0.0962250  -0.1985388), wk =   0.0370370
        k(   72) = (   0.5000000  -0.0962250  -0.3970777), wk =   0.0370370
        k(   73) = (  -0.8333333   0.6735753  -0.1985388), wk =   0.0185185
        k(   74) = (  -0.8333333   0.6735753  -0.3970777), wk =   0.0185185
        k(   75) = (  -0.5000000   0.4811252  -0.1985388), wk =   0.0370370
        k(   76) = (  -0.5000000   0.4811252  -0.3970777), wk =   0.0370370
        k(   77) = (   0.3333333   0.1924501  -0.1985388), wk =   0.0185185
        k(   78) = (   0.3333333   0.1924501  -0.3970777), wk =   0.0185185
        k(   79) = (  -0.6666667   0.7698004  -0.1985388), wk =   0.0185185
        k(   80) = (  -0.6666667   0.7698004  -0.3970777), wk =   0.0185185

                       cryst. coord.
        k(    1) = (   0.0000000   0.0000000   0.0000000), wk =   0.0092593
        k(    2) = (   0.0000000   0.0000000   0.1666667), wk =   0.0185185
        k(    3) = (   0.0000000   0.0000000   0.3333333), wk =   0.0185185
        k(    4) = (   0.0000000   0.0000000  -0.5000000), wk =   0.0092593
        k(    5) = (   0.0000000   0.1666667   0.0000000), wk =   0.0370370
        k(    6) = (   0.0000000   0.1666667   0.1666667), wk =   0.0370370
        k(    7) = (   0.0000000   0.1666667   0.3333333), wk =   0.0370370
        k(    8) = (   0.0000000   0.1666667  -0.5000000), wk =   0.0370370
        k(    9) = (   0.0000000   0.3333333   0.0000000), wk =   0.0370370
        k(   10) = (   0.0000000   0.3333333   0.1666667), wk =   0.0370370
        k(   11) = (   0.0000000   0.3333333   0.3333333), wk =   0.0370370
        k(   12) = (   0.0000000   0.3333333  -0.5000000), wk =   0.0370370
        k(   13) = (   0.0000000  -0.5000000   0.0000000), wk =   0.0092593
        k(   14) = (   0.0000000  -0.5000000   0.1666667), wk =   0.0185185
        k(   15) = (   0.0000000  -0.5000000   0.3333333), wk =   0.0185185
        k(   16) = (   0.0000000  -0.5000000  -0.5000000), wk =   0.0092593
        k(   17) = (   0.1666667  -0.0000000   0.0000000), wk =   0.0185185
        k(   18) = (   0.1666667  -0.0000000   0.1666667), wk =   0.0185185
        k(   19) = (   0.1666667  -0.0000000   0.3333333), wk =   0.0185185
        k(   20) = (   0.1666667  -0.0000000  -0.5000000), wk =   0.0185185
        k(   21) = (   0.1666667   0.1666667   0.0000000), wk =   0.0370370
        k(   22) = (   0.1666667   0.1666667   0.1666667), wk =   0.0370370
        k(   23) = (   0.1666667   0.1666667   0.3333333), wk =   0.0370370
        k(   24) = (   0.1666667   0.1666667  -0.5000000), wk =   0.0370370
        k(   25) = (   0.1666667   0.3333333   0.0000000), wk =   0.0185185
        k(   26) = (   0.1666667   0.3333333   0.1666667), wk =   0.0370370
        k(   27) = (   0.1666667   0.3333333   0.3333333), wk =   0.0370370
        k(   28) = (   0.1666667   0.3333333  -0.5000000), wk =   0.0185185
        k(   29) = (   0.1666667  -0.5000000   0.0000000), wk =   0.0185185
        k(   30) = (   0.1666667  -0.5000000   0.1666667), wk =   0.0185185
        k(   31) = (   0.1666667  -0.5000000   0.3333333), wk =   0.0185185
        k(   32) = (   0.1666667  -0.5000000  -0.5000000), wk =   0.0185185
        k(   33) = (   0.1666667  -0.3333333   0.0000000), wk =   0.0370370
        k(   34) = (   0.1666667  -0.3333333   0.1666667), wk =   0.0370370
        k(   35) = (   0.1666667  -0.3333333   0.3333333), wk =   0.0370370
        k(   36) = (   0.1666667  -0.3333333  -0.5000000), wk =   0.0370370
        k(   37) = (   0.1666667  -0.1666667   0.0000000), wk =   0.0185185
        k(   38) = (   0.1666667  -0.1666667   0.1666667), wk =   0.0370370
        k(   39) = (   0.1666667  -0.1666667   0.3333333), wk =   0.0370370
        k(   40) = (   0.1666667  -0.1666667  -0.5000000), wk =   0.0185185
        k(   41) = (   0.3333333  -0.0000000   0.0000000), wk =   0.0185185
        k(   42) = (   0.3333333  -0.0000000   0.1666667), wk =   0.0185185
        k(   43) = (   0.3333333  -0.0000000   0.3333333), wk =   0.0185185
        k(   44) = (   0.3333333  -0.0000000  -0.5000000), wk =   0.0185185
        k(   45) = (   0.3333333   0.1666667   0.0000000), wk =   0.0185185
        k(   46) = (   0.3333333   0.1666667   0.1666667), wk =   0.0370370
        k(   47) = (   0.3333333   0.1666667   0.3333333), wk =   0.0370370
        k(   48) = (   0.3333333   0.1666667  -0.5000000), wk =   0.0185185
        k(   49) = (   0.3333333  -0.5000000   0.0000000), wk =   0.0185185
        k(   50) = (   0.3333333  -0.5000000   0.1666667), wk =   0.0185185
        k(   51) = (   0.3333333  -0.5000000   0.3333333), wk =   0.0185185
        k(   52) = (   0.3333333  -0.5000000  -0.5000000), wk =   0.0185185
        k(   53) = (   0.3333333  -0.3333333   0.0000000), wk =   0.0185185
        k(   54) = (   0.3333333  -0.3333333   0.1666667), wk =   0.0370370
        k(   55) = (   0.3333333  -0.3333333   0.3333333), wk =   0.0370370
        k(   56) = (   0.3333333  -0.3333333  -0.5000000), wk =   0.0185185
        k(   57) = (  -0.5000000   0.0000000   0.0000000), wk =   0.0092593
        k(   58) = (  -0.5000000   0.0000000   0.1666667), wk =   0.0185185
        k(   59) = (  -0.5000000   0.0000000   0.3333333), wk =   0.0185185
        k(   60) = (  -0.5000000   0.0000000  -0.5000000), wk =   0.0092593
        k(   61) = (  -0.5000000  -0.5000000   0.0000000), wk =   0.0092593
        k(   62) = (  -0.5000000  -0.5000000   0.1666667), wk =   0.0185185
        k(   63) = (  -0.5000000  -0.5000000   0.3333333), wk =   0.0185185
        k(   64) = (  -0.5000000  -0.5000000  -0.5000000), wk =   0.0092593
        k(   65) = (   0.3333333  -0.1666667  -0.1666667), wk =   0.0370370
        k(   66) = (   0.3333333  -0.1666667  -0.3333333), wk =   0.0370370
        k(   67) = (   0.6666667  -0.3333333  -0.1666667), wk =   0.0370370
        k(   68) = (   0.6666667  -0.3333333  -0.3333333), wk =   0.0370370
        k(   69) = (   0.1666667   0.0000000  -0.1666667), wk =   0.0185185
        k(   70) = (   0.1666667   0.0000000  -0.3333333), wk =   0.0185185
        k(   71) = (   0.5000000  -0.1666667  -0.1666667), wk =   0.0370370
        k(   72) = (   0.5000000  -0.1666667  -0.3333333), wk =   0.0370370
        k(   73) = (  -0.8333333   0.5000000  -0.1666667), wk =   0.0185185
        k(   74) = (  -0.8333333   0.5000000  -0.3333333), wk =   0.0185185
        k(   75) = (  -0.5000000   0.3333333  -0.1666667), wk =   0.0370370
        k(   76) = (  -0.5000000   0.3333333  -0.3333333), wk =   0.0370370
        k(   77) = (   0.3333333   0.0000000  -0.1666667), wk =   0.0185185
        k(   78) = (   0.3333333   0.0000000  -0.3333333), wk =   0.0185185
        k(   79) = (  -0.6666667   0.5000000  -0.1666667), wk =   0.0185185
        k(   80) = (  -0.6666667   0.5000000  -0.3333333), wk =   0.0185185

     Dense  grid:   123417 G-vectors     FFT dimensions: (  90,  45,  75)

     Smooth grid:    43549 G-vectors     FFT dimensions: (  64,  32,  54)

     Dynamical RAM for                 wfc:       2.99 MB

     Dynamical RAM for     wfc (w. buffer):      62.88 MB

     Dynamical RAM for           str. fact:       3.77 MB

     Dynamical RAM for           local pot:       0.00 MB

     Dynamical RAM for          nlocal pot:       8.65 MB

     Dynamical RAM for                qrad:       3.21 MB

     Dynamical RAM for          rho,v,vnew:      12.60 MB

     Dynamical RAM for               rhoin:       4.20 MB

     Dynamical RAM for            rho*nmix:      30.13 MB

     Dynamical RAM for           G-vectors:       7.39 MB

     Dynamical RAM for          h,s,v(r/c):       0.24 MB

     Dynamical RAM for          <psi|beta>:       0.06 MB

     Dynamical RAM for                 psi:       5.99 MB

     Dynamical RAM for                hpsi:       5.99 MB

     Dynamical RAM for                spsi:       5.99 MB

     Dynamical RAM for      wfcinit/wfcrot:       8.71 MB

     Dynamical RAM for           addusdens:      90.86 MB

     Dynamical RAM for          addusforce:      93.23 MB

     Estimated static dynamical RAM per process >     119.94 MB

     Estimated max dynamical RAM per process >     243.31 MB

     Estimated total dynamical RAM >       3.45 GB

     Check: negative core charge=   -0.000002

     Initial potential from superposition of free atoms

     starting charge      71.9851, renormalised to      72.0000
     Starting wfcs are   52 randomized atomic wfcs

     total cpu time spent up to now is       10.3 secs

     per-process dynamical memory:   141.8 Mb

     Self-consistent Calculation

     iteration #  1     ecut=    50.00 Ry     beta= 0.30
     Davidson diagonalization with overlap

---- Real-time Memory Report at c_bands before calling an iterative solver
           171 MiB given to the printing process from OS
           138 MiB allocation reported by mallinfo(arena+hblkhd)
        105648 MiB available memory on the node where the printing process lives
------------------
     ethr =  1.00E-02,  avg # of iterations =  1.1

     total cpu time spent up to now is       18.3 secs

     total energy              =    -722.61470686 Ry
     estimated scf accuracy    <       1.76986611 Ry

     iteration #  2     ecut=    50.00 Ry     beta= 0.30
     Davidson diagonalization with overlap

---- Real-time Memory Report at c_bands before calling an iterative solver
           287 MiB given to the printing process from OS
           180 MiB allocation reported by mallinfo(arena+hblkhd)
        104356 MiB available memory on the node where the printing process lives
------------------
     ethr =  2.46E-03,  avg # of iterations =  2.0

     total cpu time spent up to now is       28.4 secs

     total energy              =    -722.85624075 Ry
     estimated scf accuracy    <       0.21451158 Ry

     iteration #  3     ecut=    50.00 Ry     beta= 0.30
     Davidson diagonalization with overlap

---- Real-time Memory Report at c_bands before calling an iterative solver
           289 MiB given to the printing process from OS
           183 MiB allocation reported by mallinfo(arena+hblkhd)
        103740 MiB available memory on the node where the printing process lives
------------------
     ethr =  2.98E-04,  avg # of iterations =  6.6

     total cpu time spent up to now is       44.9 secs

     total energy              =    -722.84248634 Ry
     estimated scf accuracy    <       0.48111542 Ry

     iteration #  4     ecut=    50.00 Ry     beta= 0.30
     Davidson diagonalization with overlap

---- Real-time Memory Report at c_bands before calling an iterative solver
           294 MiB given to the printing process from OS
           187 MiB allocation reported by mallinfo(arena+hblkhd)
        104321 MiB available memory on the node where the printing process lives
------------------
     ethr =  2.98E-04,  avg # of iterations =  8.9

     total cpu time spent up to now is       68.2 secs

     total energy              =    -723.21035102 Ry
     estimated scf accuracy    <       0.50528527 Ry

     iteration #  5     ecut=    50.00 Ry     beta= 0.30
     Davidson diagonalization with overlap

---- Real-time Memory Report at c_bands before calling an iterative solver
           296 MiB given to the printing process from OS
           190 MiB allocation reported by mallinfo(arena+hblkhd)
        104168 MiB available memory on the node where the printing process lives
------------------
     ethr =  2.98E-04,  avg # of iterations =  1.3

     total cpu time spent up to now is       76.8 secs

     total energy              =    -723.01074191 Ry
     estimated scf accuracy    <       0.60213263 Ry

     iteration #  6     ecut=    50.00 Ry     beta= 0.30
     Davidson diagonalization with overlap

---- Real-time Memory Report at c_bands before calling an iterative solver
           297 MiB given to the printing process from OS
           190 MiB allocation reported by mallinfo(arena+hblkhd)
        104273 MiB available memory on the node where the printing process lives
------------------
     ethr =  2.98E-04,  avg # of iterations =  2.2

     total cpu time spent up to now is       86.7 secs

     total energy              =    -722.93143974 Ry
     estimated scf accuracy    <       0.25284400 Ry

     iteration #  7     ecut=    50.00 Ry     beta= 0.30
     Davidson diagonalization with overlap

---- Real-time Memory Report at c_bands before calling an iterative solver
           299 MiB given to the printing process from OS
           192 MiB allocation reported by mallinfo(arena+hblkhd)
        104359 MiB available memory on the node where the printing process lives
------------------
     ethr =  2.98E-04,  avg # of iterations =  6.3

     total cpu time spent up to now is      101.7 secs

     total energy              =    -723.04757394 Ry
     estimated scf accuracy    <       0.05302917 Ry

     iteration #  8     ecut=    50.00 Ry     beta= 0.30
     Davidson diagonalization with overlap

---- Real-time Memory Report at c_bands before calling an iterative solver
           300 MiB given to the printing process from OS
           193 MiB allocation reported by mallinfo(arena+hblkhd)
        104046 MiB available memory on the node where the printing process lives
------------------
     ethr =  7.37E-05,  avg # of iterations =  2.2

     total cpu time spent up to now is      111.2 secs

     total energy              =    -723.05822883 Ry
     estimated scf accuracy    <       0.03018118 Ry

     iteration #  9     ecut=    50.00 Ry     beta= 0.30
     Davidson diagonalization with overlap

---- Real-time Memory Report at c_bands before calling an iterative solver
           301 MiB given to the printing process from OS
           194 MiB allocation reported by mallinfo(arena+hblkhd)
        103580 MiB available memory on the node where the printing process lives
------------------
     ethr =  4.19E-05,  avg # of iterations =  2.6

     total cpu time spent up to now is      121.3 secs

     total energy              =    -723.05136839 Ry
     estimated scf accuracy    <       0.04812644 Ry

     iteration # 10     ecut=    50.00 Ry     beta= 0.30
     Davidson diagonalization with overlap

---- Real-time Memory Report at c_bands before calling an iterative solver
           302 MiB given to the printing process from OS
           196 MiB allocation reported by mallinfo(arena+hblkhd)
        103430 MiB available memory on the node where the printing process lives
------------------
     ethr =  4.19E-05,  avg # of iterations =  1.1

     total cpu time spent up to now is      129.2 secs

     total energy              =    -723.04696157 Ry
     estimated scf accuracy    <       0.03468088 Ry

     iteration # 11     ecut=    50.00 Ry     beta= 0.30
     Davidson diagonalization with overlap

---- Real-time Memory Report at c_bands before calling an iterative solver
           303 MiB given to the printing process from OS
           196 MiB allocation reported by mallinfo(arena+hblkhd)
        103895 MiB available memory on the node where the printing process lives
------------------
     ethr =  4.19E-05,  avg # of iterations =  2.0

     total cpu time spent up to now is      138.7 secs

     total energy              =    -723.04705386 Ry
     estimated scf accuracy    <       0.01579421 Ry

     iteration # 12     ecut=    50.00 Ry     beta= 0.30
     Davidson diagonalization with overlap

---- Real-time Memory Report at c_bands before calling an iterative solver
           303 MiB given to the printing process from OS
           196 MiB allocation reported by mallinfo(arena+hblkhd)
        104216 MiB available memory on the node where the printing process lives
------------------
     ethr =  2.19E-05,  avg # of iterations =  2.3

     total cpu time spent up to now is      148.7 secs

     total energy              =    -723.04659424 Ry
     estimated scf accuracy    <       0.00936577 Ry

     iteration # 13     ecut=    50.00 Ry     beta= 0.30
     Davidson diagonalization with overlap

---- Real-time Memory Report at c_bands before calling an iterative solver
           303 MiB given to the printing process from OS
           196 MiB allocation reported by mallinfo(arena+hblkhd)
        103533 MiB available memory on the node where the printing process lives
------------------
     ethr =  1.30E-05,  avg # of iterations =  2.6

     total cpu time spent up to now is      158.7 secs

     total energy              =    -723.04666505 Ry
     estimated scf accuracy    <       0.00524696 Ry

     iteration # 14     ecut=    50.00 Ry     beta= 0.30
     Davidson diagonalization with overlap

---- Real-time Memory Report at c_bands before calling an iterative solver
           303 MiB given to the printing process from OS
           196 MiB allocation reported by mallinfo(arena+hblkhd)
        104070 MiB available memory on the node where the printing process lives
------------------
     ethr =  7.29E-06,  avg # of iterations =  3.8

     total cpu time spent up to now is      169.5 secs

     total energy              =    -723.04609359 Ry
     estimated scf accuracy    <       0.00274152 Ry

     iteration # 15     ecut=    50.00 Ry     beta= 0.30
     Davidson diagonalization with overlap

---- Real-time Memory Report at c_bands before calling an iterative solver
           303 MiB given to the printing process from OS
           196 MiB allocation reported by mallinfo(arena+hblkhd)
        103657 MiB available memory on the node where the printing process lives
------------------
     ethr =  3.81E-06,  avg # of iterations =  5.9

     total cpu time spent up to now is      183.9 secs

     total energy              =    -723.04761406 Ry
     estimated scf accuracy    <       0.00035995 Ry

     iteration # 16     ecut=    50.00 Ry     beta= 0.30
     Davidson diagonalization with overlap

---- Real-time Memory Report at c_bands before calling an iterative solver
           303 MiB given to the printing process from OS
           196 MiB allocation reported by mallinfo(arena+hblkhd)
        103486 MiB available memory on the node where the printing process lives
------------------
     ethr =  5.00E-07,  avg # of iterations =  6.3

     total cpu time spent up to now is      197.3 secs

     total energy              =    -723.04759215 Ry
     estimated scf accuracy    <       0.00117349 Ry

     iteration # 17     ecut=    50.00 Ry     beta= 0.30
     Davidson diagonalization with overlap

---- Real-time Memory Report at c_bands before calling an iterative solver
           303 MiB given to the printing process from OS
           196 MiB allocation reported by mallinfo(arena+hblkhd)
        103934 MiB available memory on the node where the printing process lives
------------------
     ethr =  5.00E-07,  avg # of iterations =  1.1

     total cpu time spent up to now is      205.2 secs

     total energy              =    -723.04752445 Ry
     estimated scf accuracy    <       0.00094517 Ry

     iteration # 18     ecut=    50.00 Ry     beta= 0.30
     Davidson diagonalization with overlap

---- Real-time Memory Report at c_bands before calling an iterative solver
           303 MiB given to the printing process from OS
           196 MiB allocation reported by mallinfo(arena+hblkhd)
        103212 MiB available memory on the node where the printing process lives
------------------
     ethr =  5.00E-07,  avg # of iterations =  1.7

     total cpu time spent up to now is      214.3 secs

     total energy              =    -723.04737549 Ry
     estimated scf accuracy    <       0.00070559 Ry

     iteration # 19     ecut=    50.00 Ry     beta= 0.30
     Davidson diagonalization with overlap

---- Real-time Memory Report at c_bands before calling an iterative solver
           303 MiB given to the printing process from OS
           196 MiB allocation reported by mallinfo(arena+hblkhd)
        104038 MiB available memory on the node where the printing process lives
------------------
     ethr =  5.00E-07,  avg # of iterations =  4.6

     total cpu time spent up to now is      225.9 secs

     total energy              =    -723.04742534 Ry
     estimated scf accuracy    <       0.00021381 Ry

     iteration # 20     ecut=    50.00 Ry     beta= 0.30
     Davidson diagonalization with overlap

---- Real-time Memory Report at c_bands before calling an iterative solver
           303 MiB given to the printing process from OS
           196 MiB allocation reported by mallinfo(arena+hblkhd)
        103003 MiB available memory on the node where the printing process lives
------------------
     ethr =  2.97E-07,  avg # of iterations =  2.5

     total cpu time spent up to now is      236.0 secs

     total energy              =    -723.04747432 Ry
     estimated scf accuracy    <       0.00016554 Ry

     iteration # 21     ecut=    50.00 Ry     beta= 0.30
     Davidson diagonalization with overlap

---- Real-time Memory Report at c_bands before calling an iterative solver
           303 MiB given to the printing process from OS
           196 MiB allocation reported by mallinfo(arena+hblkhd)
        104013 MiB available memory on the node where the printing process lives
------------------
     ethr =  2.30E-07,  avg # of iterations =  1.3

     total cpu time spent up to now is      244.5 secs

     total energy              =    -723.04750982 Ry
     estimated scf accuracy    <       0.00023546 Ry

     iteration # 22     ecut=    50.00 Ry     beta= 0.30
     Davidson diagonalization with overlap

---- Real-time Memory Report at c_bands before calling an iterative solver
           303 MiB given to the printing process from OS
           196 MiB allocation reported by mallinfo(arena+hblkhd)
        103137 MiB available memory on the node where the printing process lives
------------------
     ethr =  2.30E-07,  avg # of iterations =  1.5

     total cpu time spent up to now is      252.8 secs

     total energy              =    -723.04749369 Ry
     estimated scf accuracy    <       0.00032240 Ry

     iteration # 23     ecut=    50.00 Ry     beta= 0.30
     Davidson diagonalization with overlap

---- Real-time Memory Report at c_bands before calling an iterative solver
           303 MiB given to the printing process from OS
           196 MiB allocation reported by mallinfo(arena+hblkhd)
        105407 MiB available memory on the node where the printing process lives
------------------
     ethr =  2.30E-07,  avg # of iterations =  1.0

     total cpu time spent up to now is      260.4 secs

     total energy              =    -723.04738997 Ry
     estimated scf accuracy    <       0.00028672 Ry

     iteration # 24     ecut=    50.00 Ry     beta= 0.30
     Davidson diagonalization with overlap

---- Real-time Memory Report at c_bands before calling an iterative solver
           303 MiB given to the printing process from OS
           196 MiB allocation reported by mallinfo(arena+hblkhd)
        104315 MiB available memory on the node where the printing process lives
------------------
     ethr =  2.30E-07,  avg # of iterations =  4.1

     total cpu time spent up to now is      271.6 secs

     total energy              =    -723.04736016 Ry
     estimated scf accuracy    <       0.00006721 Ry

     iteration # 25     ecut=    50.00 Ry     beta= 0.30
     Davidson diagonalization with overlap

---- Real-time Memory Report at c_bands before calling an iterative solver
           303 MiB given to the printing process from OS
           196 MiB allocation reported by mallinfo(arena+hblkhd)
        103631 MiB available memory on the node where the printing process lives
------------------
     ethr =  9.33E-08,  avg # of iterations =  9.2

     total cpu time spent up to now is      293.1 secs

     total energy              =    -723.04748758 Ry
     estimated scf accuracy    <       0.00038651 Ry

     iteration # 26     ecut=    50.00 Ry     beta= 0.30
     Davidson diagonalization with overlap

---- Real-time Memory Report at c_bands before calling an iterative solver
           303 MiB given to the printing process from OS
           196 MiB allocation reported by mallinfo(arena+hblkhd)
        103114 MiB available memory on the node where the printing process lives
------------------
     ethr =  9.33E-08,  avg # of iterations =  1.1

     total cpu time spent up to now is      301.0 secs

     total energy              =    -723.04737579 Ry
     estimated scf accuracy    <       0.00031692 Ry

     iteration # 27     ecut=    50.00 Ry     beta= 0.30
     Davidson diagonalization with overlap

---- Real-time Memory Report at c_bands before calling an iterative solver
           303 MiB given to the printing process from OS
           196 MiB allocation reported by mallinfo(arena+hblkhd)
        103860 MiB available memory on the node where the printing process lives
------------------
     ethr =  9.33E-08,  avg # of iterations =  8.1

     total cpu time spent up to now is      317.6 secs

     total energy              =    -723.04743254 Ry
     estimated scf accuracy    <       0.00000047 Ry

     iteration # 28     ecut=    50.00 Ry     beta= 0.30
     Davidson diagonalization with overlap

---- Real-time Memory Report at c_bands before calling an iterative solver
           303 MiB given to the printing process from OS
           196 MiB allocation reported by mallinfo(arena+hblkhd)
        103645 MiB available memory on the node where the printing process lives
------------------
     ethr =  6.54E-10,  avg # of iterations = 13.5

     total cpu time spent up to now is      346.7 secs

     total energy              =    -723.04743094 Ry
     estimated scf accuracy    <       0.00001147 Ry

     iteration # 29     ecut=    50.00 Ry     beta= 0.30
     Davidson diagonalization with overlap

---- Real-time Memory Report at c_bands before calling an iterative solver
           303 MiB given to the printing process from OS
           196 MiB allocation reported by mallinfo(arena+hblkhd)
        104155 MiB available memory on the node where the printing process lives
------------------
     c_bands:  1 eigenvalues not converged
     c_bands:  1 eigenvalues not converged
     ethr =  6.54E-10,  avg # of iterations = 13.2

     total cpu time spent up to now is      376.3 secs

     total energy              =    -723.04743388 Ry
     estimated scf accuracy    <       0.00000089 Ry

     iteration # 30     ecut=    50.00 Ry     beta= 0.30
     Davidson diagonalization with overlap

---- Real-time Memory Report at c_bands before calling an iterative solver
           303 MiB given to the printing process from OS
           196 MiB allocation reported by mallinfo(arena+hblkhd)
        103561 MiB available memory on the node where the printing process lives
------------------
     ethr =  6.54E-10,  avg # of iterations =  1.2

     total cpu time spent up to now is      384.7 secs

     total energy              =    -723.04743366 Ry
     estimated scf accuracy    <       0.00000067 Ry

     iteration # 31     ecut=    50.00 Ry     beta= 0.30
     Davidson diagonalization with overlap

---- Real-time Memory Report at c_bands before calling an iterative solver
           303 MiB given to the printing process from OS
           196 MiB allocation reported by mallinfo(arena+hblkhd)
        103288 MiB available memory on the node where the printing process lives
------------------
     ethr =  6.54E-10,  avg # of iterations =  5.5

     total cpu time spent up to now is      397.6 secs

     total energy              =    -723.04743376 Ry
     estimated scf accuracy    <       0.00000005 Ry

     iteration # 32     ecut=    50.00 Ry     beta= 0.30
     Davidson diagonalization with overlap

---- Real-time Memory Report at c_bands before calling an iterative solver
           303 MiB given to the printing process from OS
           196 MiB allocation reported by mallinfo(arena+hblkhd)
        102989 MiB available memory on the node where the printing process lives
------------------
     ethr =  7.36E-11,  avg # of iterations =  6.2

     total cpu time spent up to now is      412.0 secs

     total energy              =    -723.04743378 Ry
     estimated scf accuracy    <       0.00000003 Ry

     iteration # 33     ecut=    50.00 Ry     beta= 0.30
     Davidson diagonalization with overlap

---- Real-time Memory Report at c_bands before calling an iterative solver
           303 MiB given to the printing process from OS
           196 MiB allocation reported by mallinfo(arena+hblkhd)
        103571 MiB available memory on the node where the printing process lives
------------------
     ethr =  4.09E-11,  avg # of iterations =  2.0

     total cpu time spent up to now is      421.7 secs

     total energy              =    -723.04743378 Ry
     estimated scf accuracy    <       0.00000002 Ry

     iteration # 34     ecut=    50.00 Ry     beta= 0.30
     Davidson diagonalization with overlap

---- Real-time Memory Report at c_bands before calling an iterative solver
           303 MiB given to the printing process from OS
           196 MiB allocation reported by mallinfo(arena+hblkhd)
        103639 MiB available memory on the node where the printing process lives
------------------
     ethr =  2.50E-11,  avg # of iterations =  6.9

     total cpu time spent up to now is      438.5 secs

     total energy              =    -723.04743378 Ry
     estimated scf accuracy    <       0.00000007 Ry

     iteration # 35     ecut=    50.00 Ry     beta= 0.30
     Davidson diagonalization with overlap

---- Real-time Memory Report at c_bands before calling an iterative solver
           303 MiB given to the printing process from OS
           196 MiB allocation reported by mallinfo(arena+hblkhd)
        104032 MiB available memory on the node where the printing process lives
------------------
     ethr =  2.50E-11,  avg # of iterations =  4.9

     total cpu time spent up to now is      450.6 secs

     total energy              =    -723.04743378 Ry
     estimated scf accuracy    <       0.00000002 Ry

     iteration # 36     ecut=    50.00 Ry     beta= 0.30
     Davidson diagonalization with overlap

---- Real-time Memory Report at c_bands before calling an iterative solver
           303 MiB given to the printing process from OS
           196 MiB allocation reported by mallinfo(arena+hblkhd)
        104439 MiB available memory on the node where the printing process lives
------------------
     ethr =  2.50E-11,  avg # of iterations =  5.6

     total cpu time spent up to now is      463.0 secs

     End of self-consistent calculation

          k = 0.0000 0.0000 0.0000 (  5441 PWs)   bands (ev):

   -13.0036 -12.7204 -12.6938 -12.6068  -1.8223  -1.8221  -1.8007  -1.7949
    -1.7435  -1.7433  -1.6968  -1.6067  -1.5230  -1.4860  -1.4125  -1.3966
    -1.3965  -1.3442  -1.3210  -1.3210  -1.3196  -1.2966  -1.2842  -1.2568
    -0.3213  -0.0839   0.3692   1.2231   1.7961   2.2202   2.4960   2.6019
     2.6027   2.9009   2.9954   2.9962

     occupation numbers 
     1.0000   1.0000   1.0000   1.0000   1.0000   1.0000   1.0000   1.0000
     1.0000   1.0000   1.0000   1.0000   1.0000   1.0000   1.0000   1.0000
     1.0000   1.0000   1.0000   1.0000   1.0000   1.0000   1.0000   1.0000
     1.0000   1.0000   1.0000   1.0000   1.0000   1.0000   1.0000   1.0000
     1.0000   1.0000   1.0000   1.0000

          k = 0.0000 0.0000 0.1985 (  5456 PWs)   bands (ev):

   -12.9851 -12.7399 -12.6876 -12.6123  -1.8188  -1.8186  -1.8012  -1.7997
    -1.7507  -1.7505  -1.6842  -1.6478  -1.5158  -1.5010  -1.4546  -1.4018
    -1.3902  -1.3902  -1.3247  -1.3247  -1.3189  -1.3002  -1.2901  -1.2571
    -0.1066  -0.1023   0.2915   1.3901   1.8439   2.2679   2.2996   2.4495
     2.6286   2.6293   2.9693   2.9701

     occupation numbers 
     1.0000   1.0000   1.0000   1.0000   1.0000   1.0000   1.0000   1.0000
     1.0000   1.0000   1.0000   1.0000   1.0000   1.0000   1.0000   1.0000
     1.0000   1.0000   1.0000   1.0000   1.0000   1.0000   1.0000   1.0000
     1.0000   1.0000   1.0000   1.0000   1.0000   1.0000   1.0000   1.0000
     1.0000   1.0000   1.0000   1.0000

          k = 0.0000 0.0000 0.3971 (  5488 PWs)   bands (ev):

   -12.9342 -12.7926 -12.6709 -12.6275  -1.8081  -1.8079  -1.8030  -1.7914
    -1.7687  -1.7685  -1.7237  -1.6480  -1.6276  -1.5418  -1.4938  -1.4162
    -1.3738  -1.3738  -1.3359  -1.3359  -1.3170  -1.3071  -1.2853  -1.2600
    -0.1056   0.1273   0.3817   1.6158   1.7598   1.9735   2.2882   2.3224
     2.7012   2.7020   2.8980   2.8988

     occupation numbers 
     1.0000   1.0000   1.0000   1.0000   1.0000   1.0000   1.0000   1.0000
     1.0000   1.0000   1.0000   1.0000   1.0000   1.0000   1.0000   1.0000
     1.0000   1.0000   1.0000   1.0000   1.0000   1.0000   1.0000   1.0000
     1.0000   1.0000   1.0000   1.0000   1.0000   1.0000   1.0000   1.0000
     1.0000   1.0000   1.0000   1.0000

          k = 0.0000 0.0000-0.5956 (  5462 PWs)   bands (ev):

   -12.8639 -12.8638 -12.6488 -12.6488  -1.7901  -1.7901  -1.7899  -1.7899
    -1.7816  -1.7816  -1.7420  -1.7420  -1.5962  -1.5962  -1.4572  -1.4572
    -1.3532  -1.3532  -1.3532  -1.3532  -1.3131  -1.3131  -1.2697  -1.2697
    -0.0232  -0.0232   0.9720   0.9721   2.1139   2.1139   2.1485   2.1486
     2.7999   2.7999   2.8007   2.8007

     occupation numbers 
     1.0000   1.0000   1.0000   1.0000   1.0000   1.0000   1.0000   1.0000
     1.0000   1.0000   1.0000   1.0000   1.0000   1.0000   1.0000   1.0000
     1.0000   1.0000   1.0000   1.0000   1.0000   1.0000   1.0000   1.0000
     1.0000   1.0000   1.0000   1.0000   1.0000   1.0000   1.0000   1.0000
     1.0000   1.0000   1.0000   1.0000

          k = 0.0000 0.3849 0.0000 (  5453 PWs)   bands (ev):

   -12.9346 -12.6961 -12.6857 -12.6056  -1.8313  -1.7797  -1.7793  -1.7630
    -1.7105  -1.6821  -1.6787  -1.5647  -1.5139  -1.4720  -1.4572  -1.4201
    -1.4084  -1.3964  -1.3879  -1.3523  -1.3174  -1.2783  -1.2430  -1.1890
    -0.1246   0.1365   0.4422   1.2218   1.4916   1.7380   2.0184   2.2009
     2.2792   2.3973   2.8331   2.8761

     occupation numbers 
     1.0000   1.0000   1.0000   1.0000   1.0000   1.0000   1.0000   1.0000
     1.0000   1.0000   1.0000   1.0000   1.0000   1.0000   1.0000   1.0000
     1.0000   1.0000   1.0000   1.0000   1.0000   1.0000   1.0000   1.0000
     1.0000   1.0000   1.0000   1.0000   1.0000   1.0000   1.0000   1.0000
     1.0000   1.0000   1.0000   1.0000

          k = 0.0000 0.3849 0.1985 (  5451 PWs)   bands (ev):

   -12.9182 -12.7026 -12.6897 -12.6113  -1.8314  -1.7746  -1.7715  -1.7643
    -1.7165  -1.6902  -1.6821  -1.5969  -1.5217  -1.4796  -1.4723  -1.4667
    -1.4077  -1.3902  -1.3841  -1.3411  -1.3218  -1.2806  -1.2768  -1.1979
     0.0562   0.1060   0.3903   1.3244   1.5981   1.6371   2.0299   2.1524
     2.3148   2.4297   2.7616   2.8442

     occupation numbers 
     1.0000   1.0000   1.0000   1.0000   1.0000   1.0000   1.0000   1.0000
     1.0000   1.0000   1.0000   1.0000   1.0000   1.0000   1.0000   1.0000
     1.0000   1.0000   1.0000   1.0000   1.0000   1.0000   1.0000   1.0000
     1.0000   1.0000   1.0000   1.0000   1.0000   1.0000   1.0000   1.0000
     1.0000   1.0000   1.0000   1.0000

          k = 0.0000 0.3849 0.3971 (  5457 PWs)   bands (ev):

   -12.8731 -12.7486 -12.6724 -12.6271  -1.8249  -1.7717  -1.7599  -1.7551
    -1.7230  -1.7112  -1.6915  -1.6392  -1.6049  -1.5523  -1.5015  -1.4904
    -1.3822  -1.3741  -1.3572  -1.3347  -1.3317  -1.3190  -1.2685  -1.2208
     0.0919   0.2681   0.4547   1.3244   1.5238   1.8760   2.0094   2.1495
     2.3444   2.5178   2.5822   2.7571

     occupation numbers 
     1.0000   1.0000   1.0000   1.0000   1.0000   1.0000   1.0000   1.0000
     1.0000   1.0000   1.0000   1.0000   1.0000   1.0000   1.0000   1.0000
     1.0000   1.0000   1.0000   1.0000   1.0000   1.0000   1.0000   1.0000
     1.0000   1.0000   1.0000   1.0000   1.0000   1.0000   1.0000   1.0000
     1.0000   1.0000   1.0000   1.0000

          k = 0.0000 0.3849-0.5956 (  5454 PWs)   bands (ev):

   -12.8111 -12.8111 -12.6494 -12.6494  -1.7997  -1.7996  -1.7371  -1.7371
    -1.7301  -1.7301  -1.6946  -1.6946  -1.6077  -1.6077  -1.5041  -1.5041
    -1.3537  -1.3536  -1.3507  -1.3507  -1.3363  -1.3363  -1.2481  -1.2481
     0.1512   0.1512   0.9047   0.9047   1.7528   1.7528   2.2094   2.2094
     2.3557   2.3558   2.6377   2.6377

     occupation numbers 
     1.0000   1.0000   1.0000   1.0000   1.0000   1.0000   1.0000   1.0000
     1.0000   1.0000   1.0000   1.0000   1.0000   1.0000   1.0000   1.0000
     1.0000   1.0000   1.0000   1.0000   1.0000   1.0000   1.0000   1.0000
     1.0000   1.0000   1.0000   1.0000   1.0000   1.0000   1.0000   1.0000
     1.0000   1.0000   1.0000   1.0000

          k = 0.0000 0.7698 0.0000 (  5449 PWs)   bands (ev):

   -12.7844 -12.6961 -12.6242 -12.6056  -1.8064  -1.7793  -1.7152  -1.7011
    -1.6788  -1.5647  -1.5603  -1.5514  -1.5139  -1.4720  -1.4643  -1.4572
    -1.4000  -1.3878  -1.3610  -1.3522  -1.3078  -1.2783  -1.2027  -1.1889
     0.1368   0.2189   0.4424   0.6481   1.2158   1.2219   1.4913   1.9969
     2.2006   2.2792   2.5209   2.6253

     occupation numbers 
     1.0000   1.0000   1.0000   1.0000   1.0000   1.0000   1.0000   1.0000
     1.0000   1.0000   1.0000   1.0000   1.0000   1.0000   1.0000   1.0000
     1.0000   1.0000   1.0000   1.0000   1.0000   1.0000   1.0000   1.0000
     1.0000   1.0000   1.0000   1.0000   1.0000   1.0000   1.0000   1.0000
     1.0000   1.0000   1.0000   1.0000

          k = 0.0000 0.7698 0.1985 (  5445 PWs)   bands (ev):

   -12.7735 -12.6897 -12.6348 -12.6113  -1.8092  -1.7715  -1.7151  -1.7053
    -1.6822  -1.5970  -1.5637  -1.5631  -1.5218  -1.4799  -1.4795  -1.4667
    -1.3988  -1.3840  -1.3580  -1.3410  -1.3122  -1.2768  -1.2284  -1.1979
     0.1063   0.2220   0.3905   0.6542   1.3206   1.3244   1.5978   2.0395
     2.1521   2.3148   2.5087   2.5834

     occupation numbers 
     1.0000   1.0000   1.0000   1.0000   1.0000   1.0000   1.0000   1.0000
     1.0000   1.0000   1.0000   1.0000   1.0000   1.0000   1.0000   1.0000
     1.0000   1.0000   1.0000   1.0000   1.0000   1.0000   1.0000   1.0000
     1.0000   1.0000   1.0000   1.0000   1.0000   1.0000   1.0000   1.0000
     1.0000   1.0000   1.0000   1.0000

          k = 0.0000 0.7698 0.3971 (  5445 PWs)   bands (ev):

   -12.7439 -12.6724 -12.6637 -12.6271  -1.8095  -1.7552  -1.7499  -1.6915
    -1.6771  -1.6393  -1.5951  -1.5701  -1.5523  -1.5322  -1.5014  -1.4903
    -1.3693  -1.3572  -1.3493  -1.3317  -1.3234  -1.2766  -1.2684  -1.2207
     0.0921   0.2683   0.2795   0.5566   1.5237   1.6654   1.8758   2.0091
     2.1554   2.3443   2.3893   2.4690

     occupation numbers 
     1.0000   1.0000   1.0000   1.0000   1.0000   1.0000   1.0000   1.0000
     1.0000   1.0000   1.0000   1.0000   1.0000   1.0000   1.0000   1.0000
     1.0000   1.0000   1.0000   1.0000   1.0000   1.0000   1.0000   1.0000
     1.0000   1.0000   1.0000   1.0000   1.0000   1.0000   1.0000   1.0000
     1.0000   1.0000   1.0000   1.0000

          k = 0.0000 0.7698-0.5956 (  5460 PWs)   bands (ev):

   -12.7037 -12.7036 -12.6494 -12.6494  -1.7897  -1.7897  -1.7301  -1.7301
    -1.6373  -1.6373  -1.6078  -1.6077  -1.5660  -1.5660  -1.5040  -1.5040
    -1.3372  -1.3371  -1.3363  -1.3363  -1.3248  -1.3248  -1.2480  -1.2480
     0.1514   0.1514   0.4039   0.4039   1.7526   1.7526   2.0836   2.0836
     2.2093   2.2093   2.3125   2.3126

     occupation numbers 
     1.0000   1.0000   1.0000   1.0000   1.0000   1.0000   1.0000   1.0000
     1.0000   1.0000   1.0000   1.0000   1.0000   1.0000   1.0000   1.0000
     1.0000   1.0000   1.0000   1.0000   1.0000   1.0000   1.0000   1.0000
     1.0000   1.0000   1.0000   1.0000   1.0000   1.0000   1.0000   1.0000
     1.0000   1.0000   1.0000   1.0000

          k = 0.0000-1.1547 0.0000 (  5444 PWs)   bands (ev):

   -12.6938 -12.6937 -12.6069 -12.6068  -1.7949  -1.7949  -1.6970  -1.6970
    -1.6068  -1.6068  -1.5229  -1.5229  -1.4862  -1.4862  -1.4125  -1.4125
    -1.3196  -1.3196  -1.2965  -1.2965  -1.2840  -1.2840  -1.2567  -1.2567
    -0.0834  -0.0834   0.3695   0.3696   1.2231   1.2231   1.7956   1.7956
     2.2202   2.2202   2.4954   2.4955

     occupation numbers 
     1.0000   1.0000   1.0000   1.0000   1.0000   1.0000   1.0000   1.0000
     1.0000   1.0000   1.0000   1.0000   1.0000   1.0000   1.0000   1.0000
     1.0000   1.0000   1.0000   1.0000   1.0000   1.0000   1.0000   1.0000
     1.0000   1.0000   1.0000   1.0000   1.0000   1.0000   1.0000   1.0000
     1.0000   1.0000   1.0000   1.0000

          k = 0.0000-1.1547 0.1985 (  5448 PWs)   bands (ev):

   -12.6877 -12.6876 -12.6123 -12.6122  -1.7997  -1.7997  -1.6844  -1.6844
    -1.6478  -1.6478  -1.5157  -1.5157  -1.5012  -1.5012  -1.4017  -1.4017
    -1.3189  -1.3189  -1.3001  -1.3001  -1.2900  -1.2900  -1.2571  -1.2571
    -0.1063  -0.1062   0.2919   0.2919   1.3901   1.3901   1.8434   1.8434
     2.2679   2.2679   2.4489   2.4489

     occupation numbers 
     1.0000   1.0000   1.0000   1.0000   1.0000   1.0000   1.0000   1.0000
     1.0000   1.0000   1.0000   1.0000   1.0000   1.0000   1.0000   1.0000
     1.0000   1.0000   1.0000   1.0000   1.0000   1.0000   1.0000   1.0000
     1.0000   1.0000   1.0000   1.0000   1.0000   1.0000   1.0000   1.0000
     1.0000   1.0000   1.0000   1.0000

          k = 0.0000-1.1547 0.3971 (  5452 PWs)   bands (ev):

   -12.6710 -12.6709 -12.6275 -12.6274  -1.8030  -1.8030  -1.7238  -1.7238
    -1.6481  -1.6481  -1.5420  -1.5420  -1.4937  -1.4937  -1.4161  -1.4161
    -1.3169  -1.3169  -1.3071  -1.3071  -1.2852  -1.2852  -1.2599  -1.2599
    -0.1053  -0.1053   0.1276   0.1276   1.7598   1.7599   1.9729   1.9730
     2.2882   2.2883   2.3218   2.3219

     occupation numbers 
     1.0000   1.0000   1.0000   1.0000   1.0000   1.0000   1.0000   1.0000
     1.0000   1.0000   1.0000   1.0000   1.0000   1.0000   1.0000   1.0000
     1.0000   1.0000   1.0000   1.0000   1.0000   1.0000   1.0000   1.0000
     1.0000   1.0000   1.0000   1.0000   1.0000   1.0000   1.0000   1.0000
     1.0000   1.0000   1.0000   1.0000

          k = 0.0000-1.1547-0.5956 (  5448 PWs)   bands (ev):

   -12.6489 -12.6488 -12.6488 -12.6488  -1.7816  -1.7816  -1.7816  -1.7816
    -1.5964  -1.5964  -1.5964  -1.5964  -1.4571  -1.4571  -1.4571  -1.4571
    -1.3130  -1.3130  -1.3130  -1.3130  -1.2696  -1.2696  -1.2696  -1.2696
    -0.0229  -0.0229  -0.0229  -0.0229   2.1139   2.1140   2.1140   2.1140
     2.1479   2.1480   2.1480   2.1480

     occupation numbers 
     1.0000   1.0000   1.0000   1.0000   1.0000   1.0000   1.0000   1.0000
     1.0000   1.0000   1.0000   1.0000   1.0000   1.0000   1.0000   1.0000
     1.0000   1.0000   1.0000   1.0000   1.0000   1.0000   1.0000   1.0000
     1.0000   1.0000   1.0000   1.0000   1.0000   1.0000   1.0000   1.0000
     1.0000   1.0000   1.0000   1.0000

          k = 0.1667 0.0962 0.0000 (  5437 PWs)   bands (ev):

   -12.9854 -12.7205 -12.7110 -12.6092  -1.8274  -1.8103  -1.7969  -1.7877
    -1.7376  -1.7270  -1.7008  -1.6424  -1.5094  -1.5028  -1.4456  -1.4030
    -1.3976  -1.3784  -1.3579  -1.3327  -1.3200  -1.3002  -1.2834  -1.2093
    -0.2704   0.0459   0.4399   1.1624   1.8504   2.3224   2.3596   2.4576
     2.5311   2.5472   2.9096   2.9647

     occupation numbers 
     1.0000   1.0000   1.0000   1.0000   1.0000   1.0000   1.0000   1.0000
     1.0000   1.0000   1.0000   1.0000   1.0000   1.0000   1.0000   1.0000
     1.0000   1.0000   1.0000   1.0000   1.0000   1.0000   1.0000   1.0000
     1.0000   1.0000   1.0000   1.0000   1.0000   1.0000   1.0000   1.0000
     1.0000   1.0000   1.0000   1.0000

          k = 0.1667 0.0962 0.1985 (  5455 PWs)   bands (ev):

   -12.9674 -12.7298 -12.7128 -12.6163  -1.8263  -1.8065  -1.8014  -1.7861
    -1.7452  -1.7345  -1.6889  -1.6707  -1.5169  -1.5102  -1.4616  -1.4462
    -1.3953  -1.3911  -1.3522  -1.3315  -1.3240  -1.3108  -1.3041  -1.2238
    -0.0601   0.0160   0.3895   1.3272   1.8968   2.1031   2.3504   2.4447
     2.4858   2.5754   2.8708   2.9370

     occupation numbers 
     1.0000   1.0000   1.0000   1.0000   1.0000   1.0000   1.0000   1.0000
     1.0000   1.0000   1.0000   1.0000   1.0000   1.0000   1.0000   1.0000
     1.0000   1.0000   1.0000   1.0000   1.0000   1.0000   1.0000   1.0000
     1.0000   1.0000   1.0000   1.0000   1.0000   1.0000   1.0000   1.0000
     1.0000   1.0000   1.0000   1.0000

          k = 0.1667 0.0962 0.3971 (  5485 PWs)   bands (ev):

   -12.9180 -12.7808 -12.6918 -12.6360  -1.8186  -1.8042  -1.7947  -1.7763
    -1.7632  -1.7534  -1.7316  -1.6549  -1.6216  -1.5553  -1.5058  -1.4634
    -1.3766  -1.3745  -1.3356  -1.3317  -1.3282  -1.3276  -1.3125  -1.2568
     0.0176   0.2500   0.4053   1.5495   1.7116   2.0226   2.3237   2.3621
     2.5294   2.6524   2.7766   2.8612

     occupation numbers 
     1.0000   1.0000   1.0000   1.0000   1.0000   1.0000   1.0000   1.0000
     1.0000   1.0000   1.0000   1.0000   1.0000   1.0000   1.0000   1.0000
     1.0000   1.0000   1.0000   1.0000   1.0000   1.0000   1.0000   1.0000
     1.0000   1.0000   1.0000   1.0000   1.0000   1.0000   1.0000   1.0000
     1.0000   1.0000   1.0000   1.0000

          k = 0.1667 0.0962-0.5956 (  5476 PWs)   bands (ev):

   -12.8498 -12.8498 -12.6636 -12.6636  -1.7953  -1.7953  -1.7837  -1.7837
    -1.7758  -1.7757  -1.7282  -1.7282  -1.6062  -1.6062  -1.4887  -1.4887
    -1.3538  -1.3538  -1.3533  -1.3533  -1.3210  -1.3209  -1.2935  -1.2935
     0.1046   0.1046   0.9639   0.9639   2.0999   2.0999   2.1929   2.1929
     2.6518   2.6518   2.7571   2.7571

     occupation numbers 
     1.0000   1.0000   1.0000   1.0000   1.0000   1.0000   1.0000   1.0000
     1.0000   1.0000   1.0000   1.0000   1.0000   1.0000   1.0000   1.0000
     1.0000   1.0000   1.0000   1.0000   1.0000   1.0000   1.0000   1.0000
     1.0000   1.0000   1.0000   1.0000   1.0000   1.0000   1.0000   1.0000
     1.0000   1.0000   1.0000   1.0000

          k = 0.1667 0.4811 0.0000 (  5441 PWs)   bands (ev):

   -12.8893 -12.7546 -12.6646 -12.6153  -1.8176  -1.7712  -1.7647  -1.7393
    -1.7052  -1.6885  -1.6404  -1.6359  -1.5864  -1.5130  -1.4516  -1.4298
    -1.4213  -1.4198  -1.3930  -1.3621  -1.3157  -1.2997  -1.2232  -1.1904
     0.0067   0.2602   0.6490   1.2129   1.3946   1.6544   1.6809   2.2547
     2.3693   2.4645   2.7594   2.7608

     occupation numbers 
     1.0000   1.0000   1.0000   1.0000   1.0000   1.0000   1.0000   1.0000
     1.0000   1.0000   1.0000   1.0000   1.0000   1.0000   1.0000   1.0000
     1.0000   1.0000   1.0000   1.0000   1.0000   1.0000   1.0000   1.0000
     1.0000   1.0000   1.0000   1.0000   1.0000   1.0000   1.0000   1.0000
     1.0000   1.0000   1.0000   1.0000

          k = 0.1667 0.4811 0.1985 (  5451 PWs)   bands (ev):

   -12.8743 -12.7451 -12.6797 -12.6244  -1.8182  -1.7652  -1.7607  -1.7410
    -1.7103  -1.6952  -1.6495  -1.6438  -1.5915  -1.5254  -1.4776  -1.4758
    -1.4177  -1.4155  -1.3858  -1.3496  -1.3204  -1.3022  -1.2595  -1.2104
     0.1532   0.2536   0.6127   1.3236   1.3699   1.6906   1.7350   2.2780
     2.3154   2.4750   2.6994   2.7278

     occupation numbers 
     1.0000   1.0000   1.0000   1.0000   1.0000   1.0000   1.0000   1.0000
     1.0000   1.0000   1.0000   1.0000   1.0000   1.0000   1.0000   1.0000
     1.0000   1.0000   1.0000   1.0000   1.0000   1.0000   1.0000   1.0000
     1.0000   1.0000   1.0000   1.0000   1.0000   1.0000   1.0000   1.0000
     1.0000   1.0000   1.0000   1.0000

          k = 0.1667 0.4811 0.3971 (  5457 PWs)   bands (ev):

   -12.8334 -12.7211 -12.7191 -12.6494  -1.8129  -1.7610  -1.7546  -1.7351
    -1.7225  -1.7083  -1.6618  -1.6513  -1.6015  -1.5897  -1.5592  -1.5516
    -1.3839  -1.3731  -1.3709  -1.3377  -1.3334  -1.3061  -1.3055  -1.2531
     0.2843   0.4700   0.5040   1.1084   1.7121   1.8309   1.9278   2.1749
     2.3536   2.4146   2.5199   2.6286

     occupation numbers 
     1.0000   1.0000   1.0000   1.0000   1.0000   1.0000   1.0000   1.0000
     1.0000   1.0000   1.0000   1.0000   1.0000   1.0000   1.0000   1.0000
     1.0000   1.0000   1.0000   1.0000   1.0000   1.0000   1.0000   1.0000
     1.0000   1.0000   1.0000   1.0000   1.0000   1.0000   1.0000   1.0000
     1.0000   1.0000   1.0000   1.0000

          k = 0.1667 0.4811-0.5956 (  5462 PWs)   bands (ev):

   -12.7774 -12.7774 -12.6840 -12.6840  -1.7883  -1.7883  -1.7406  -1.7406
    -1.7175  -1.7175  -1.6606  -1.6606  -1.6248  -1.6248  -1.5835  -1.5835
    -1.3525  -1.3525  -1.3446  -1.3446  -1.3377  -1.3377  -1.2951  -1.2951
     0.3767   0.3768   0.8085   0.8085   1.9442   1.9442   2.1877   2.1877
     2.2154   2.2154   2.4986   2.4986

     occupation numbers 
     1.0000   1.0000   1.0000   1.0000   1.0000   1.0000   1.0000   1.0000
     1.0000   1.0000   1.0000   1.0000   1.0000   1.0000   1.0000   1.0000
     1.0000   1.0000   1.0000   1.0000   1.0000   1.0000   1.0000   1.0000
     1.0000   1.0000   1.0000   1.0000   1.0000   1.0000   1.0000   1.0000
     1.0000   1.0000   1.0000   1.0000

          k = 0.1667 0.8660 0.0000 (  5438 PWs)   bands (ev):

   -12.7423 -12.7422 -12.6129 -12.6128  -1.7888  -1.7888  -1.7077  -1.7077
    -1.6516  -1.6516  -1.5345  -1.5345  -1.5064  -1.5064  -1.4668  -1.4668
    -1.3891  -1.3891  -1.3493  -1.3493  -1.3005  -1.3005  -1.1974  -1.1974
     0.1782   0.1783   0.5243   0.5243   1.1687   1.1688   1.7976   1.7976
     2.4040   2.4041   2.4869   2.4870

     occupation numbers 
     1.0000   1.0000   1.0000   1.0000   1.0000   1.0000   1.0000   1.0000
     1.0000   1.0000   1.0000   1.0000   1.0000   1.0000   1.0000   1.0000
     1.0000   1.0000   1.0000   1.0000   1.0000   1.0000   1.0000   1.0000
     1.0000   1.0000   1.0000   1.0000   1.0000   1.0000   1.0000   1.0000
     1.0000   1.0000   1.0000   1.0000

          k = 0.1667 0.8660 0.1985 (  5432 PWs)   bands (ev):

   -12.7334 -12.7333 -12.6212 -12.6212  -1.7905  -1.7905  -1.7023  -1.7023
    -1.6686  -1.6686  -1.5434  -1.5434  -1.5134  -1.5134  -1.4780  -1.4780
    -1.3869  -1.3868  -1.3431  -1.3431  -1.3035  -1.3035  -1.2161  -1.2161
     0.1492   0.1492   0.5010   0.5010   1.3171   1.3172   1.8452   1.8452
     2.4002   2.4002   2.4574   2.4574

     occupation numbers 
     1.0000   1.0000   1.0000   1.0000   1.0000   1.0000   1.0000   1.0000
     1.0000   1.0000   1.0000   1.0000   1.0000   1.0000   1.0000   1.0000
     1.0000   1.0000   1.0000   1.0000   1.0000   1.0000   1.0000   1.0000
     1.0000   1.0000   1.0000   1.0000   1.0000   1.0000   1.0000   1.0000
     1.0000   1.0000   1.0000   1.0000

          k = 0.1667 0.8660 0.3971 (  5442 PWs)   bands (ev):

   -12.7092 -12.7091 -12.6444 -12.6443  -1.7903  -1.7903  -1.7266  -1.7266
    -1.6623  -1.6623  -1.5725  -1.5725  -1.5272  -1.5272  -1.5127  -1.5127
    -1.3588  -1.3588  -1.3345  -1.3345  -1.3091  -1.3091  -1.2567  -1.2567
     0.1585   0.1585   0.3869   0.3869   1.6819   1.6819   1.9810   1.9811
     2.2781   2.2781   2.3952   2.3952

     occupation numbers 
     1.0000   1.0000   1.0000   1.0000   1.0000   1.0000   1.0000   1.0000
     1.0000   1.0000   1.0000   1.0000   1.0000   1.0000   1.0000   1.0000
     1.0000   1.0000   1.0000   1.0000   1.0000   1.0000   1.0000   1.0000
     1.0000   1.0000   1.0000   1.0000   1.0000   1.0000   1.0000   1.0000
     1.0000   1.0000   1.0000   1.0000

          k = 0.1667 0.8660-0.5956 (  5460 PWs)   bands (ev):

   -12.6766 -12.6765 -12.6764 -12.6764  -1.7706  -1.7706  -1.7706  -1.7706
    -1.6185  -1.6185  -1.6185  -1.6185  -1.5313  -1.5313  -1.5313  -1.5313
    -1.3328  -1.3328  -1.3328  -1.3328  -1.2978  -1.2978  -1.2978  -1.2978
     0.2492   0.2492   0.2492   0.2492   2.0354   2.0354   2.0355   2.0355
     2.2065   2.2065   2.2065   2.2066

     occupation numbers 
     1.0000   1.0000   1.0000   1.0000   1.0000   1.0000   1.0000   1.0000
     1.0000   1.0000   1.0000   1.0000   1.0000   1.0000   1.0000   1.0000
     1.0000   1.0000   1.0000   1.0000   1.0000   1.0000   1.0000   1.0000
     1.0000   1.0000   1.0000   1.0000   1.0000   1.0000   1.0000   1.0000
     1.0000   1.0000   1.0000   1.0000

          k = 0.1667-1.0585 0.0000 (  5448 PWs)   bands (ev):

   -12.6946 -12.6945 -12.6065 -12.6064  -1.7874  -1.7874  -1.6976  -1.6976
    -1.5952  -1.5952  -1.5044  -1.5044  -1.4917  -1.4917  -1.4262  -1.4262
    -1.3386  -1.3386  -1.3312  -1.3312  -1.2813  -1.2813  -1.2224  -1.2224
    -0.0204  -0.0204   0.3967   0.3967   1.2188   1.2188   1.7037   1.7037
     2.2234   2.2234   2.4131   2.4131

     occupation numbers 
     1.0000   1.0000   1.0000   1.0000   1.0000   1.0000   1.0000   1.0000
     1.0000   1.0000   1.0000   1.0000   1.0000   1.0000   1.0000   1.0000
     1.0000   1.0000   1.0000   1.0000   1.0000   1.0000   1.0000   1.0000
     1.0000   1.0000   1.0000   1.0000   1.0000   1.0000   1.0000   1.0000
     1.0000   1.0000   1.0000   1.0000

          k = 0.1667-1.0585 0.1985 (  5436 PWs)   bands (ev):

   -12.6884 -12.6883 -12.6120 -12.6119  -1.7891  -1.7891  -1.6883  -1.6883
    -1.6336  -1.6336  -1.5064  -1.5064  -1.5009  -1.5009  -1.4218  -1.4218
    -1.3387  -1.3387  -1.3285  -1.3285  -1.2809  -1.2809  -1.2286  -1.2286
    -0.0451  -0.0451   0.3265   0.3265   1.3721   1.3722   1.7637   1.7638
     2.2600   2.2601   2.3729   2.3729

     occupation numbers 
     1.0000   1.0000   1.0000   1.0000   1.0000   1.0000   1.0000   1.0000
     1.0000   1.0000   1.0000   1.0000   1.0000   1.0000   1.0000   1.0000
     1.0000   1.0000   1.0000   1.0000   1.0000   1.0000   1.0000   1.0000
     1.0000   1.0000   1.0000   1.0000   1.0000   1.0000   1.0000   1.0000
     1.0000   1.0000   1.0000   1.0000

          k = 0.1667-1.0585 0.3971 (  5454 PWs)   bands (ev):

   -12.6715 -12.6714 -12.6274 -12.6273  -1.7887  -1.7887  -1.7093  -1.7093
    -1.6535  -1.6535  -1.5457  -1.5457  -1.4903  -1.4903  -1.4391  -1.4391
    -1.3308  -1.3308  -1.3240  -1.3240  -1.2755  -1.2755  -1.2432  -1.2432
    -0.0473  -0.0473   0.1731   0.1731   1.6926   1.6927   1.9414   1.9414
     2.1842   2.1842   2.3347   2.3348

     occupation numbers 
     1.0000   1.0000   1.0000   1.0000   1.0000   1.0000   1.0000   1.0000
     1.0000   1.0000   1.0000   1.0000   1.0000   1.0000   1.0000   1.0000
     1.0000   1.0000   1.0000   1.0000   1.0000   1.0000   1.0000   1.0000
     1.0000   1.0000   1.0000   1.0000   1.0000   1.0000   1.0000   1.0000
     1.0000   1.0000   1.0000   1.0000

          k = 0.1667-1.0585-0.5956 (  5448 PWs)   bands (ev):

   -12.6491 -12.6490 -12.6490 -12.6490  -1.7661  -1.7661  -1.7661  -1.7661
    -1.6017  -1.6017  -1.6017  -1.6017  -1.4680  -1.4679  -1.4679  -1.4679
    -1.3245  -1.3245  -1.3245  -1.3245  -1.2605  -1.2605  -1.2605  -1.2605
     0.0303   0.0304   0.0304   0.0304   1.9727   1.9727   1.9727   1.9727
     2.1928   2.1929   2.1929   2.1929

     occupation numbers 
     1.0000   1.0000   1.0000   1.0000   1.0000   1.0000   1.0000   1.0000
     1.0000   1.0000   1.0000   1.0000   1.0000   1.0000   1.0000   1.0000
     1.0000   1.0000   1.0000   1.0000   1.0000   1.0000   1.0000   1.0000
     1.0000   1.0000   1.0000   1.0000   1.0000   1.0000   1.0000   1.0000
     1.0000   1.0000   1.0000   1.0000

          k = 0.1667-0.6736 0.0000 (  5462 PWs)   bands (ev):

   -12.8139 -12.6546 -12.6340 -12.6082  -1.7984  -1.7881  -1.7329  -1.7085
    -1.6226  -1.6172  -1.5674  -1.5382  -1.4713  -1.4505  -1.4389  -1.4308
    -1.4168  -1.3907  -1.3745  -1.3666  -1.3102  -1.2425  -1.2047  -1.1876
     0.1950   0.1956   0.3749   0.8689   0.9409   1.3229   1.5884   1.9606
     2.0046   2.0735   2.6036   2.6142

     occupation numbers 
     1.0000   1.0000   1.0000   1.0000   1.0000   1.0000   1.0000   1.0000
     1.0000   1.0000   1.0000   1.0000   1.0000   1.0000   1.0000   1.0000
     1.0000   1.0000   1.0000   1.0000   1.0000   1.0000   1.0000   1.0000
     1.0000   1.0000   1.0000   1.0000   1.0000   1.0000   1.0000   1.0000
     1.0000   1.0000   1.0000   1.0000

          k = 0.1667-0.6736 0.1985 (  5454 PWs)   bands (ev):

   -12.8018 -12.6511 -12.6459 -12.6109  -1.7997  -1.7728  -1.7309  -1.7120
    -1.6357  -1.6229  -1.5771  -1.5674  -1.4942  -1.4770  -1.4501  -1.4348
    -1.4164  -1.3833  -1.3677  -1.3581  -1.3147  -1.2350  -1.2334  -1.1863
     0.1597   0.2530   0.3204   0.8496   0.9999   1.4104   1.7239   1.8988
     2.0401   2.1468   2.5559   2.5939

     occupation numbers 
     1.0000   1.0000   1.0000   1.0000   1.0000   1.0000   1.0000   1.0000
     1.0000   1.0000   1.0000   1.0000   1.0000   1.0000   1.0000   1.0000
     1.0000   1.0000   1.0000   1.0000   1.0000   1.0000   1.0000   1.0000
     1.0000   1.0000   1.0000   1.0000   1.0000   1.0000   1.0000   1.0000
     1.0000   1.0000   1.0000   1.0000

          k = 0.1667-0.6736 0.3971 (  5436 PWs)   bands (ev):

   -12.7687 -12.6787 -12.6417 -12.6185  -1.7979  -1.7477  -1.7313  -1.6950
    -1.6587  -1.6369  -1.6224  -1.5995  -1.5588  -1.5526  -1.4607  -1.4486
    -1.3797  -1.3667  -1.3559  -1.3520  -1.3259  -1.2828  -1.2166  -1.1876
     0.1146   0.2116   0.3874   0.7309   1.1777   1.6905   1.7118   2.0260
     2.1442   2.2653   2.4108   2.4823

     occupation numbers 
     1.0000   1.0000   1.0000   1.0000   1.0000   1.0000   1.0000   1.0000
     1.0000   1.0000   1.0000   1.0000   1.0000   1.0000   1.0000   1.0000
     1.0000   1.0000   1.0000   1.0000   1.0000   1.0000   1.0000   1.0000
     1.0000   1.0000   1.0000   1.0000   1.0000   1.0000   1.0000   1.0000
     1.0000   1.0000   1.0000   1.0000

          k = 0.1667-0.6736-0.5956 (  5438 PWs)   bands (ev):

   -12.7236 -12.7236 -12.6297 -12.6297  -1.7785  -1.7785  -1.6869  -1.6869
    -1.6624  -1.6624  -1.6194  -1.6194  -1.6057  -1.6057  -1.4588  -1.4588
    -1.3556  -1.3556  -1.3442  -1.3442  -1.3288  -1.3288  -1.1981  -1.1981
     0.1298   0.1299   0.5563   0.5563   1.4320   1.4320   2.0963   2.0963
     2.2413   2.2413   2.3175   2.3175

     occupation numbers 
     1.0000   1.0000   1.0000   1.0000   1.0000   1.0000   1.0000   1.0000
     1.0000   1.0000   1.0000   1.0000   1.0000   1.0000   1.0000   1.0000
     1.0000   1.0000   1.0000   1.0000   1.0000   1.0000   1.0000   1.0000
     1.0000   1.0000   1.0000   1.0000   1.0000   1.0000   1.0000   1.0000
     1.0000   1.0000   1.0000   1.0000

          k = 0.1667-0.2887 0.0000 (  5469 PWs)   bands (ev):

   -12.9509 -12.6936 -12.6704 -12.6062  -1.8281  -1.7921  -1.7826  -1.7673
    -1.7253  -1.6945  -1.6726  -1.5410  -1.4843  -1.4734  -1.4328  -1.4131
    -1.4045  -1.3966  -1.3554  -1.3491  -1.3186  -1.2525  -1.2415  -1.2231
    -0.1717   0.0348   0.3930   1.1635   1.5636   1.9411   2.0877   2.0997
     2.2099   2.4610   2.8596   2.8898

     occupation numbers 
     1.0000   1.0000   1.0000   1.0000   1.0000   1.0000   1.0000   1.0000
     1.0000   1.0000   1.0000   1.0000   1.0000   1.0000   1.0000   1.0000
     1.0000   1.0000   1.0000   1.0000   1.0000   1.0000   1.0000   1.0000
     1.0000   1.0000   1.0000   1.0000   1.0000   1.0000   1.0000   1.0000
     1.0000   1.0000   1.0000   1.0000

          k = 0.1667-0.2887 0.1985 (  5451 PWs)   bands (ev):

   -12.9340 -12.7111 -12.6657 -12.6101  -1.8281  -1.7878  -1.7738  -1.7657
    -1.7338  -1.7017  -1.6738  -1.5872  -1.4982  -1.4730  -1.4700  -1.4293
    -1.4039  -1.3912  -1.3527  -1.3465  -1.3229  -1.2888  -1.2375  -1.2219
     0.0105   0.0196   0.3223   1.2458   1.6868   1.7858   2.0720   2.1438
     2.2300   2.4754   2.7949   2.8591

     occupation numbers 
     1.0000   1.0000   1.0000   1.0000   1.0000   1.0000   1.0000   1.0000
     1.0000   1.0000   1.0000   1.0000   1.0000   1.0000   1.0000   1.0000
     1.0000   1.0000   1.0000   1.0000   1.0000   1.0000   1.0000   1.0000
     1.0000   1.0000   1.0000   1.0000   1.0000   1.0000   1.0000   1.0000
     1.0000   1.0000   1.0000   1.0000

          k = 0.1667-0.2887 0.3971 (  5462 PWs)   bands (ev):

   -12.8875 -12.7588 -12.6531 -12.6210  -1.8215  -1.7769  -1.7565  -1.7562
    -1.7554  -1.7181  -1.6663  -1.6586  -1.6105  -1.5437  -1.4695  -1.4444
    -1.3805  -1.3750  -1.3434  -1.3421  -1.3354  -1.3228  -1.2289  -1.2201
    -0.0024   0.1780   0.4425   1.4040   1.4393   1.9149   1.9709   2.2675
     2.2994   2.5385   2.6485   2.7755

     occupation numbers 
     1.0000   1.0000   1.0000   1.0000   1.0000   1.0000   1.0000   1.0000
     1.0000   1.0000   1.0000   1.0000   1.0000   1.0000   1.0000   1.0000
     1.0000   1.0000   1.0000   1.0000   1.0000   1.0000   1.0000   1.0000
     1.0000   1.0000   1.0000   1.0000   1.0000   1.0000   1.0000   1.0000
     1.0000   1.0000   1.0000   1.0000

          k = 0.1667-0.2887-0.5956 (  5444 PWs)   bands (ev):

   -12.8234 -12.8234 -12.6367 -12.6367  -1.7955  -1.7955  -1.7546  -1.7546
    -1.7258  -1.7258  -1.7038  -1.7038  -1.6081  -1.6080  -1.4599  -1.4599
    -1.3543  -1.3543  -1.3513  -1.3513  -1.3399  -1.3399  -1.2219  -1.2219
     0.0546   0.0546   0.9309   0.9310   1.6807   1.6808   2.2235   2.2235
     2.4433   2.4433   2.6641   2.6641

     occupation numbers 
     1.0000   1.0000   1.0000   1.0000   1.0000   1.0000   1.0000   1.0000
     1.0000   1.0000   1.0000   1.0000   1.0000   1.0000   1.0000   1.0000
     1.0000   1.0000   1.0000   1.0000   1.0000   1.0000   1.0000   1.0000
     1.0000   1.0000   1.0000   1.0000   1.0000   1.0000   1.0000   1.0000
     1.0000   1.0000   1.0000   1.0000

          k = 0.3333 0.1925 0.0000 (  5454 PWs)   bands (ev):

   -12.9346 -12.7844 -12.6857 -12.6242  -1.8315  -1.8065  -1.7795  -1.7630
    -1.7151  -1.7106  -1.7011  -1.6819  -1.5603  -1.5512  -1.4644  -1.4201
    -1.4084  -1.4000  -1.3965  -1.3610  -1.3175  -1.3078  -1.2431  -1.2028
    -0.1246   0.2188   0.6478   1.2155   1.7376   1.9974   2.0180   2.3979
     2.5209   2.6259   2.8331   2.8767

     occupation numbers 
     1.0000   1.0000   1.0000   1.0000   1.0000   1.0000   1.0000   1.0000
     1.0000   1.0000   1.0000   1.0000   1.0000   1.0000   1.0000   1.0000
     1.0000   1.0000   1.0000   1.0000   1.0000   1.0000   1.0000   1.0000
     1.0000   1.0000   1.0000   1.0000   1.0000   1.0000   1.0000   1.0000
     1.0000   1.0000   1.0000   1.0000

          k = 0.3333 0.1925 0.1985 (  5446 PWs)   bands (ev):

   -12.9182 -12.7735 -12.7026 -12.6348  -1.8315  -1.8093  -1.7744  -1.7644
    -1.7166  -1.7151  -1.7051  -1.6901  -1.5637  -1.5630  -1.4800  -1.4723
    -1.4077  -1.3988  -1.3902  -1.3580  -1.3218  -1.3122  -1.2806  -1.2284
     0.0562   0.2217   0.6539   1.3204   1.6368   2.0294   2.0401   2.4302
     2.5086   2.5840   2.7615   2.8448

     occupation numbers 
     1.0000   1.0000   1.0000   1.0000   1.0000   1.0000   1.0000   1.0000
     1.0000   1.0000   1.0000   1.0000   1.0000   1.0000   1.0000   1.0000
     1.0000   1.0000   1.0000   1.0000   1.0000   1.0000   1.0000   1.0000
     1.0000   1.0000   1.0000   1.0000   1.0000   1.0000   1.0000   1.0000
     1.0000   1.0000   1.0000   1.0000

          k = 0.3333 0.1925 0.3971 (  5452 PWs)   bands (ev):

   -12.8731 -12.7486 -12.7439 -12.6637  -1.8250  -1.8096  -1.7718  -1.7597
    -1.7499  -1.7231  -1.7111  -1.6769  -1.6049  -1.5949  -1.5702  -1.5323
    -1.3822  -1.3742  -1.3693  -1.3493  -1.3347  -1.3234  -1.3190  -1.2767
     0.2793   0.4546   0.5563   1.3242   1.6652   2.1490   2.1560   2.3892
     2.4696   2.5184   2.5819   2.7577

     occupation numbers 
     1.0000   1.0000   1.0000   1.0000   1.0000   1.0000   1.0000   1.0000
     1.0000   1.0000   1.0000   1.0000   1.0000   1.0000   1.0000   1.0000
     1.0000   1.0000   1.0000   1.0000   1.0000   1.0000   1.0000   1.0000
     1.0000   1.0000   1.0000   1.0000   1.0000   1.0000   1.0000   1.0000
     1.0000   1.0000   1.0000   1.0000

          k = 0.3333 0.1925-0.5956 (  5470 PWs)   bands (ev):

   -12.8111 -12.8111 -12.7037 -12.7036  -1.7998  -1.7998  -1.7897  -1.7897
    -1.7370  -1.7369  -1.6946  -1.6946  -1.6371  -1.6371  -1.5661  -1.5661
    -1.3537  -1.3537  -1.3507  -1.3507  -1.3372  -1.3372  -1.3248  -1.3248
     0.4036   0.4036   0.9046   0.9046   2.0835   2.0835   2.3131   2.3131
     2.3553   2.3553   2.6383   2.6383

     occupation numbers 
     1.0000   1.0000   1.0000   1.0000   1.0000   1.0000   1.0000   1.0000
     1.0000   1.0000   1.0000   1.0000   1.0000   1.0000   1.0000   1.0000
     1.0000   1.0000   1.0000   1.0000   1.0000   1.0000   1.0000   1.0000
     1.0000   1.0000   1.0000   1.0000   1.0000   1.0000   1.0000   1.0000
     1.0000   1.0000   1.0000   1.0000

          k = 0.3333 0.5774 0.0000 (  5462 PWs)   bands (ev):

   -12.8246 -12.8245 -12.6378 -12.6377  -1.7695  -1.7695  -1.7628  -1.7628
    -1.6979  -1.6979  -1.6513  -1.6513  -1.5724  -1.5724  -1.4398  -1.4398
    -1.4278  -1.4278  -1.3809  -1.3809  -1.3112  -1.3112  -1.2052  -1.2052
     0.1763   0.1763   1.0200   1.0200   1.3419   1.3419   1.9794   1.9794
     2.5675   2.5675   2.6379   2.6380

     occupation numbers 
     1.0000   1.0000   1.0000   1.0000   1.0000   1.0000   1.0000   1.0000
     1.0000   1.0000   1.0000   1.0000   1.0000   1.0000   1.0000   1.0000
     1.0000   1.0000   1.0000   1.0000   1.0000   1.0000   1.0000   1.0000
     1.0000   1.0000   1.0000   1.0000   1.0000   1.0000   1.0000   1.0000
     1.0000   1.0000   1.0000   1.0000

          k = 0.3333 0.5774 0.1985 (  5466 PWs)   bands (ev):

   -12.8120 -12.8120 -12.6503 -12.6502  -1.7723  -1.7723  -1.7575  -1.7575
    -1.7017  -1.7017  -1.6574  -1.6574  -1.5817  -1.5817  -1.4780  -1.4780
    -1.4225  -1.4225  -1.3710  -1.3710  -1.3156  -1.3156  -1.2345  -1.2345
     0.2558   0.2558   0.9622   0.9622   1.4591   1.4592   2.0012   2.0012
     2.5233   2.5233   2.6112   2.6113

     occupation numbers 
     1.0000   1.0000   1.0000   1.0000   1.0000   1.0000   1.0000   1.0000
     1.0000   1.0000   1.0000   1.0000   1.0000   1.0000   1.0000   1.0000
     1.0000   1.0000   1.0000   1.0000   1.0000   1.0000   1.0000   1.0000
     1.0000   1.0000   1.0000   1.0000   1.0000   1.0000   1.0000   1.0000
     1.0000   1.0000   1.0000   1.0000

          k = 0.3333 0.5774 0.3971 (  5466 PWs)   bands (ev):

   -12.7777 -12.7776 -12.6843 -12.6842  -1.7739  -1.7739  -1.7491  -1.7491
    -1.7005  -1.7005  -1.6712  -1.6712  -1.6050  -1.6050  -1.5737  -1.5737
    -1.3820  -1.3820  -1.3578  -1.3577  -1.3266  -1.3266  -1.2836  -1.2836
     0.4282   0.4283   0.8125   0.8125   1.7680   1.7680   2.0843   2.0843
     2.4055   2.4056   2.4704   2.4704

     occupation numbers 
     1.0000   1.0000   1.0000   1.0000   1.0000   1.0000   1.0000   1.0000
     1.0000   1.0000   1.0000   1.0000   1.0000   1.0000   1.0000   1.0000
     1.0000   1.0000   1.0000   1.0000   1.0000   1.0000   1.0000   1.0000
     1.0000   1.0000   1.0000   1.0000   1.0000   1.0000   1.0000   1.0000
     1.0000   1.0000   1.0000   1.0000

          k = 0.3333 0.5774-0.5956 (  5456 PWs)   bands (ev):

   -12.7310 -12.7309 -12.7309 -12.7309  -1.7598  -1.7598  -1.7598  -1.7597
    -1.6864  -1.6864  -1.6864  -1.6864  -1.6203  -1.6202  -1.6202  -1.6202
    -1.3462  -1.3462  -1.3462  -1.3462  -1.3287  -1.3287  -1.3287  -1.3287
     0.6225   0.6225   0.6225   0.6225   2.1224   2.1225   2.1225   2.1225
     2.2738   2.2738   2.2739   2.2739

     occupation numbers 
     1.0000   1.0000   1.0000   1.0000   1.0000   1.0000   1.0000   1.0000
     1.0000   1.0000   1.0000   1.0000   1.0000   1.0000   1.0000   1.0000
     1.0000   1.0000   1.0000   1.0000   1.0000   1.0000   1.0000   1.0000
     1.0000   1.0000   1.0000   1.0000   1.0000   1.0000   1.0000   1.0000
     1.0000   1.0000   1.0000   1.0000

          k = 0.3333-0.9623 0.0000 (  5448 PWs)   bands (ev):

[...]

   -12.8731 -12.7486 -12.6724 -12.6271  -1.8249  -1.7717  -1.7599  -1.7551
    -1.7230  -1.7112  -1.6915  -1.6392  -1.6049  -1.5523  -1.5015  -1.4904
    -1.3822  -1.3741  -1.3572  -1.3347  -1.3318  -1.3190  -1.2685  -1.2208
     0.0919   0.2681   0.4547   1.3244   1.5238   1.8760   2.0094   2.1495
     2.3444   2.5178   2.5822   2.7571

     occupation numbers 
     1.0000   1.0000   1.0000   1.0000   1.0000   1.0000   1.0000   1.0000
     1.0000   1.0000   1.0000   1.0000   1.0000   1.0000   1.0000   1.0000
     1.0000   1.0000   1.0000   1.0000   1.0000   1.0000   1.0000   1.0000
     1.0000   1.0000   1.0000   1.0000   1.0000   1.0000   1.0000   1.0000
     1.0000   1.0000   1.0000   1.0000

          k = 0.6667-0.3849-0.1985 (  5445 PWs)   bands (ev):

   -12.7735 -12.6897 -12.6348 -12.6113  -1.8092  -1.7715  -1.7151  -1.7053
    -1.6822  -1.5970  -1.5637  -1.5631  -1.5218  -1.4799  -1.4795  -1.4667
    -1.3988  -1.3841  -1.3580  -1.3410  -1.3122  -1.2768  -1.2284  -1.1979
     0.1063   0.2220   0.3905   0.6542   1.3206   1.3244   1.5978   2.0395
     2.1521   2.3148   2.5087   2.5834

     occupation numbers 
     1.0000   1.0000   1.0000   1.0000   1.0000   1.0000   1.0000   1.0000
     1.0000   1.0000   1.0000   1.0000   1.0000   1.0000   1.0000   1.0000
     1.0000   1.0000   1.0000   1.0000   1.0000   1.0000   1.0000   1.0000
     1.0000   1.0000   1.0000   1.0000   1.0000   1.0000   1.0000   1.0000
     1.0000   1.0000   1.0000   1.0000

          k = 0.6667-0.3849-0.3971 (  5445 PWs)   bands (ev):

   -12.7439 -12.6724 -12.6637 -12.6271  -1.8095  -1.7552  -1.7499  -1.6915
    -1.6771  -1.6393  -1.5951  -1.5701  -1.5523  -1.5322  -1.5014  -1.4903
    -1.3693  -1.3572  -1.3493  -1.3317  -1.3234  -1.2766  -1.2684  -1.2207
     0.0921   0.2683   0.2795   0.5566   1.5237   1.6654   1.8758   2.0092
     2.1554   2.3443   2.3893   2.4690

     occupation numbers 
     1.0000   1.0000   1.0000   1.0000   1.0000   1.0000   1.0000   1.0000
     1.0000   1.0000   1.0000   1.0000   1.0000   1.0000   1.0000   1.0000
     1.0000   1.0000   1.0000   1.0000   1.0000   1.0000   1.0000   1.0000
     1.0000   1.0000   1.0000   1.0000   1.0000   1.0000   1.0000   1.0000
     1.0000   1.0000   1.0000   1.0000

          k = 0.1667 0.0962-0.1985 (  5455 PWs)   bands (ev):

   -12.9674 -12.7298 -12.7128 -12.6163  -1.8263  -1.8065  -1.8014  -1.7861
    -1.7452  -1.7345  -1.6889  -1.6707  -1.5169  -1.5102  -1.4616  -1.4462
    -1.3953  -1.3911  -1.3522  -1.3315  -1.3240  -1.3108  -1.3041  -1.2238
    -0.0601   0.0160   0.3894   1.3272   1.8968   2.1031   2.3504   2.4447
     2.4858   2.5754   2.8708   2.9370

     occupation numbers 
     1.0000   1.0000   1.0000   1.0000   1.0000   1.0000   1.0000   1.0000
     1.0000   1.0000   1.0000   1.0000   1.0000   1.0000   1.0000   1.0000
     1.0000   1.0000   1.0000   1.0000   1.0000   1.0000   1.0000   1.0000
     1.0000   1.0000   1.0000   1.0000   1.0000   1.0000   1.0000   1.0000
     1.0000   1.0000   1.0000   1.0000

          k = 0.1667 0.0962-0.3971 (  5485 PWs)   bands (ev):

   -12.9180 -12.7808 -12.6918 -12.6360  -1.8186  -1.8042  -1.7947  -1.7762
    -1.7632  -1.7534  -1.7316  -1.6549  -1.6216  -1.5553  -1.5058  -1.4634
    -1.3766  -1.3745  -1.3356  -1.3317  -1.3282  -1.3276  -1.3125  -1.2568
     0.0176   0.2500   0.4053   1.5495   1.7116   2.0226   2.3237   2.3621
     2.5294   2.6524   2.7766   2.8612

     occupation numbers 
     1.0000   1.0000   1.0000   1.0000   1.0000   1.0000   1.0000   1.0000
     1.0000   1.0000   1.0000   1.0000   1.0000   1.0000   1.0000   1.0000
     1.0000   1.0000   1.0000   1.0000   1.0000   1.0000   1.0000   1.0000
     1.0000   1.0000   1.0000   1.0000   1.0000   1.0000   1.0000   1.0000
     1.0000   1.0000   1.0000   1.0000

          k = 0.5000-0.0962-0.1985 (  5451 PWs)   bands (ev):

   -12.8743 -12.7451 -12.6797 -12.6244  -1.8182  -1.7652  -1.7607  -1.7410
    -1.7103  -1.6952  -1.6495  -1.6438  -1.5915  -1.5254  -1.4777  -1.4758
    -1.4177  -1.4155  -1.3858  -1.3496  -1.3204  -1.3022  -1.2595  -1.2104
     0.1532   0.2536   0.6127   1.3236   1.3699   1.6906   1.7350   2.2780
     2.3154   2.4750   2.6994   2.7278

     occupation numbers 
     1.0000   1.0000   1.0000   1.0000   1.0000   1.0000   1.0000   1.0000
     1.0000   1.0000   1.0000   1.0000   1.0000   1.0000   1.0000   1.0000
     1.0000   1.0000   1.0000   1.0000   1.0000   1.0000   1.0000   1.0000
     1.0000   1.0000   1.0000   1.0000   1.0000   1.0000   1.0000   1.0000
     1.0000   1.0000   1.0000   1.0000

          k = 0.5000-0.0962-0.3971 (  5457 PWs)   bands (ev):

   -12.8334 -12.7211 -12.7191 -12.6494  -1.8129  -1.7610  -1.7546  -1.7351
    -1.7225  -1.7083  -1.6618  -1.6513  -1.6015  -1.5897  -1.5592  -1.5516
    -1.3839  -1.3731  -1.3709  -1.3377  -1.3334  -1.3061  -1.3055  -1.2531
     0.2843   0.4700   0.5040   1.1084   1.7121   1.8309   1.9278   2.1749
     2.3536   2.4146   2.5199   2.6286

     occupation numbers 
     1.0000   1.0000   1.0000   1.0000   1.0000   1.0000   1.0000   1.0000
     1.0000   1.0000   1.0000   1.0000   1.0000   1.0000   1.0000   1.0000
     1.0000   1.0000   1.0000   1.0000   1.0000   1.0000   1.0000   1.0000
     1.0000   1.0000   1.0000   1.0000   1.0000   1.0000   1.0000   1.0000
     1.0000   1.0000   1.0000   1.0000

          k =-0.8333 0.6736-0.1985 (  5436 PWs)   bands (ev):

   -12.6884 -12.6883 -12.6120 -12.6119  -1.7891  -1.7891  -1.6883  -1.6883
    -1.6336  -1.6336  -1.5064  -1.5064  -1.5009  -1.5009  -1.4218  -1.4218
    -1.3387  -1.3387  -1.3285  -1.3285  -1.2809  -1.2809  -1.2286  -1.2286
    -0.0451  -0.0451   0.3265   0.3265   1.3721   1.3722   1.7637   1.7637
     2.2600   2.2601   2.3729   2.3729

     occupation numbers 
     1.0000   1.0000   1.0000   1.0000   1.0000   1.0000   1.0000   1.0000
     1.0000   1.0000   1.0000   1.0000   1.0000   1.0000   1.0000   1.0000
     1.0000   1.0000   1.0000   1.0000   1.0000   1.0000   1.0000   1.0000
     1.0000   1.0000   1.0000   1.0000   1.0000   1.0000   1.0000   1.0000
     1.0000   1.0000   1.0000   1.0000

          k =-0.8333 0.6736-0.3971 (  5454 PWs)   bands (ev):

   -12.6715 -12.6714 -12.6274 -12.6273  -1.7887  -1.7887  -1.7093  -1.7093
    -1.6535  -1.6535  -1.5457  -1.5457  -1.4903  -1.4903  -1.4391  -1.4391
    -1.3308  -1.3308  -1.3240  -1.3240  -1.2755  -1.2755  -1.2432  -1.2432
    -0.0473  -0.0473   0.1731   0.1731   1.6926   1.6927   1.9414   1.9414
     2.1842   2.1842   2.3347   2.3348

     occupation numbers 
     1.0000   1.0000   1.0000   1.0000   1.0000   1.0000   1.0000   1.0000
     1.0000   1.0000   1.0000   1.0000   1.0000   1.0000   1.0000   1.0000
     1.0000   1.0000   1.0000   1.0000   1.0000   1.0000   1.0000   1.0000
     1.0000   1.0000   1.0000   1.0000   1.0000   1.0000   1.0000   1.0000
     1.0000   1.0000   1.0000   1.0000

          k =-0.5000 0.4811-0.1985 (  5454 PWs)   bands (ev):

   -12.8018 -12.6511 -12.6459 -12.6109  -1.7997  -1.7728  -1.7309  -1.7120
    -1.6357  -1.6229  -1.5771  -1.5674  -1.4942  -1.4770  -1.4501  -1.4348
    -1.4164  -1.3833  -1.3677  -1.3581  -1.3147  -1.2350  -1.2334  -1.1863
     0.1597   0.2530   0.3204   0.8496   0.9999   1.4104   1.7239   1.8988
     2.0401   2.1468   2.5559   2.5939

     occupation numbers 
     1.0000   1.0000   1.0000   1.0000   1.0000   1.0000   1.0000   1.0000
     1.0000   1.0000   1.0000   1.0000   1.0000   1.0000   1.0000   1.0000
     1.0000   1.0000   1.0000   1.0000   1.0000   1.0000   1.0000   1.0000
     1.0000   1.0000   1.0000   1.0000   1.0000   1.0000   1.0000   1.0000
     1.0000   1.0000   1.0000   1.0000

          k =-0.5000 0.4811-0.3971 (  5436 PWs)   bands (ev):

   -12.7687 -12.6787 -12.6417 -12.6185  -1.7979  -1.7477  -1.7313  -1.6950
    -1.6587  -1.6369  -1.6224  -1.5995  -1.5588  -1.5526  -1.4607  -1.4486
    -1.3797  -1.3667  -1.3559  -1.3520  -1.3259  -1.2828  -1.2166  -1.1876
     0.1146   0.2116   0.3874   0.7309   1.1777   1.6905   1.7118   2.0260
     2.1442   2.2653   2.4109   2.4823

     occupation numbers 
     1.0000   1.0000   1.0000   1.0000   1.0000   1.0000   1.0000   1.0000
     1.0000   1.0000   1.0000   1.0000   1.0000   1.0000   1.0000   1.0000
     1.0000   1.0000   1.0000   1.0000   1.0000   1.0000   1.0000   1.0000
     1.0000   1.0000   1.0000   1.0000   1.0000   1.0000   1.0000   1.0000
     1.0000   1.0000   1.0000   1.0000

          k = 0.3333 0.1925-0.1985 (  5446 PWs)   bands (ev):

   -12.9182 -12.7735 -12.7026 -12.6348  -1.8315  -1.8093  -1.7744  -1.7644
    -1.7166  -1.7151  -1.7051  -1.6901  -1.5637  -1.5630  -1.4800  -1.4723
    -1.4077  -1.3988  -1.3902  -1.3580  -1.3218  -1.3122  -1.2806  -1.2284
     0.0562   0.2217   0.6538   1.3204   1.6368   2.0294   2.0401   2.4302
     2.5086   2.5840   2.7615   2.8448

     occupation numbers 
     1.0000   1.0000   1.0000   1.0000   1.0000   1.0000   1.0000   1.0000
     1.0000   1.0000   1.0000   1.0000   1.0000   1.0000   1.0000   1.0000
     1.0000   1.0000   1.0000   1.0000   1.0000   1.0000   1.0000   1.0000
     1.0000   1.0000   1.0000   1.0000   1.0000   1.0000   1.0000   1.0000
     1.0000   1.0000   1.0000   1.0000

          k = 0.3333 0.1925-0.3971 (  5452 PWs)   bands (ev):

   -12.8731 -12.7486 -12.7439 -12.6637  -1.8250  -1.8096  -1.7718  -1.7597
    -1.7500  -1.7231  -1.7111  -1.6769  -1.6049  -1.5950  -1.5702  -1.5323
    -1.3822  -1.3742  -1.3693  -1.3493  -1.3347  -1.3235  -1.3190  -1.2767
     0.2793   0.4546   0.5563   1.3242   1.6652   2.1490   2.1560   2.3892
     2.4696   2.5184   2.5819   2.7577

     occupation numbers 
     1.0000   1.0000   1.0000   1.0000   1.0000   1.0000   1.0000   1.0000
     1.0000   1.0000   1.0000   1.0000   1.0000   1.0000   1.0000   1.0000
     1.0000   1.0000   1.0000   1.0000   1.0000   1.0000   1.0000   1.0000
     1.0000   1.0000   1.0000   1.0000   1.0000   1.0000   1.0000   1.0000
     1.0000   1.0000   1.0000   1.0000

          k =-0.6667 0.7698-0.1985 (  5450 PWs)   bands (ev):

   -12.6898 -12.6897 -12.6114 -12.6113  -1.7715  -1.7715  -1.6822  -1.6822
    -1.5970  -1.5970  -1.5218  -1.5218  -1.4796  -1.4796  -1.4668  -1.4668
    -1.3841  -1.3841  -1.3410  -1.3410  -1.2767  -1.2767  -1.1978  -1.1978
     0.1064   0.1064   0.3907   0.3907   1.3241   1.3241   1.5978   1.5979
     2.1520   2.1520   2.3147   2.3148

     occupation numbers 
     1.0000   1.0000   1.0000   1.0000   1.0000   1.0000   1.0000   1.0000
     1.0000   1.0000   1.0000   1.0000   1.0000   1.0000   1.0000   1.0000
     1.0000   1.0000   1.0000   1.0000   1.0000   1.0000   1.0000   1.0000
     1.0000   1.0000   1.0000   1.0000   1.0000   1.0000   1.0000   1.0000
     1.0000   1.0000   1.0000   1.0000

          k =-0.6667 0.7698-0.3971 (  5450 PWs)   bands (ev):

   -12.6725 -12.6724 -12.6272 -12.6271  -1.7552  -1.7552  -1.6915  -1.6915
    -1.6393  -1.6393  -1.5523  -1.5523  -1.5014  -1.5014  -1.4904  -1.4904
    -1.3572  -1.3572  -1.3317  -1.3317  -1.2684  -1.2684  -1.2207  -1.2207
     0.0922   0.0922   0.2684   0.2684   1.5234   1.5235   1.8758   1.8758
     2.0090   2.0090   2.3443   2.3444

     occupation numbers 
     1.0000   1.0000   1.0000   1.0000   1.0000   1.0000   1.0000   1.0000
     1.0000   1.0000   1.0000   1.0000   1.0000   1.0000   1.0000   1.0000
     1.0000   1.0000   1.0000   1.0000   1.0000   1.0000   1.0000   1.0000
     1.0000   1.0000   1.0000   1.0000   1.0000   1.0000   1.0000   1.0000
     1.0000   1.0000   1.0000   1.0000

     highest occupied level (ev):     2.9962

!    total energy              =    -723.04743378 Ry
     estimated scf accuracy    <          2.5E-09 Ry

     The total energy is the sum of the following terms:
     one-electron contribution =    -380.60032993 Ry
     hartree contribution      =     262.84381652 Ry
     xc contribution           =    -217.97958400 Ry
     ewald contribution        =    -387.31133637 Ry

     convergence has been achieved in  36 iterations

     Forces acting on atoms (cartesian axes, Ry/au):

     atom    1 type  1   force =    -0.00000220   -0.00000127   -0.00571592
     atom    2 type  1   force =     0.00002848    0.00001645   -0.00571978
     atom    3 type  2   force =    -0.00000978   -0.00000565    0.00571932
     atom    4 type  2   force =     0.00000884    0.00000510    0.00571878
     atom    5 type  1   force =    -0.00001761   -0.00001017   -0.00573001
     atom    6 type  1   force =    -0.00000833   -0.00000481   -0.00571049
     atom    7 type  2   force =    -0.00000949   -0.00000548    0.00571933
     atom    8 type  2   force =     0.00001010    0.00000583    0.00571878
     The non-local contrib.  to forces
     atom    1 type  1   force =     0.00003089    0.00001783    0.08730167
     atom    2 type  1   force =    -0.00001610   -0.00000930    0.08729903
     atom    3 type  2   force =    -0.00020694   -0.00011948    0.11023325
     atom    4 type  2   force =     0.00020251    0.00011692    0.11022860
     atom    5 type  1   force =     0.00002054    0.00001186    0.08729777
     atom    6 type  1   force =    -0.00003602   -0.00002079    0.08730315
     atom    7 type  2   force =    -0.00020721   -0.00011964    0.11023113
     atom    8 type  2   force =     0.00021105    0.00012185    0.11022810
     The ionic contribution  to forces
     atom    1 type  1   force =     0.00000000    0.00000000    0.70254666
     atom    2 type  1   force =     0.00000001    0.00000000    0.70254666
     atom    3 type  2   force =     0.00000000    0.00000000   -0.70254666
     atom    4 type  2   force =     0.00000001    0.00000000   -0.70254666
     atom    5 type  1   force =    -0.00000002   -0.00000000    0.70254666
     atom    6 type  1   force =     0.00000000   -0.00000001    0.70254666
     atom    7 type  2   force =    -0.00000001    0.00000000   -0.70254666
     atom    8 type  2   force =     0.00000000   -0.00000000   -0.70254666
     The local contribution  to forces
     atom    1 type  1   force =    -0.00004242   -0.00002449   -0.79075388
     atom    2 type  1   force =    -0.00000188   -0.00000119   -0.79074750
     atom    3 type  2   force =     0.00018975    0.00010955    0.59907799
     atom    4 type  2   force =    -0.00019755   -0.00011408    0.59907948
     atom    5 type  1   force =    -0.00001577   -0.00000899   -0.79073232
     atom    6 type  1   force =     0.00006064    0.00003490   -0.79076328
     atom    7 type  2   force =     0.00019840    0.00011457    0.59907988
     atom    8 type  2   force =    -0.00019116   -0.00011040    0.59908112
     The core correction contribution to forces
     atom    1 type  1   force =    -0.00000698   -0.00000403   -0.00481383
     atom    2 type  1   force =     0.00000781    0.00000450   -0.00481239
     atom    3 type  2   force =     0.00000233    0.00000134   -0.00104412
     atom    4 type  2   force =    -0.00000228   -0.00000131   -0.00104392
     atom    5 type  1   force =    -0.00000730   -0.00000420   -0.00481463
     atom    6 type  1   force =     0.00000649    0.00000373   -0.00481194
     atom    7 type  2   force =     0.00000234    0.00000135   -0.00104410
     atom    8 type  2   force =    -0.00000238   -0.00000138   -0.00104391
     The Hubbard contrib.    to forces
     atom    1 type  1   force =     0.00000000    0.00000000    0.00000000
     atom    2 type  1   force =     0.00000000    0.00000000    0.00000000
     atom    3 type  2   force =     0.00000000    0.00000000    0.00000000
     atom    4 type  2   force =     0.00000000    0.00000000    0.00000000
     atom    5 type  1   force =     0.00000000    0.00000000    0.00000000
     atom    6 type  1   force =     0.00000000    0.00000000    0.00000000
     atom    7 type  2   force =     0.00000000    0.00000000    0.00000000
     atom    8 type  2   force =     0.00000000    0.00000000    0.00000000
     The SCF correction term to forces
     atom    1 type  1   force =     0.00001631    0.00000942    0.00000260
     atom    2 type  1   force =     0.00003871    0.00002235   -0.00000643
     atom    3 type  2   force =     0.00000509    0.00000294   -0.00000199
     atom    4 type  2   force =     0.00000617    0.00000356    0.00000043
     atom    5 type  1   force =    -0.00001511   -0.00000873   -0.00002834
     atom    6 type  1   force =    -0.00003937   -0.00002273    0.00001407
     atom    7 type  2   force =    -0.00000300   -0.00000173   -0.00000177
     atom    8 type  2   force =    -0.00000739   -0.00000426   -0.00000073

     Total force =     0.016176     Total SCF correction =     0.000077

     init_run     :      9.40s CPU      9.87s WALL (       1 calls)
     electrons    :    423.43s CPU    452.84s WALL (       1 calls)
     forces       :      4.52s CPU      4.63s WALL (       1 calls)

     Called by init_run:
     wfcinit      :      4.28s CPU      4.55s WALL (       1 calls)
     wfcinit:atom :      0.12s CPU      0.12s WALL (      20 calls)
     wfcinit:wfcr :      3.07s CPU      3.33s WALL (      20 calls)
     potinit      :      1.44s CPU      1.50s WALL (       1 calls)
     hinit0       :      3.27s CPU      3.30s WALL (       1 calls)

     Called by electrons:
     c_bands      :    352.93s CPU    378.77s WALL (      36 calls)
     sum_band     :     40.10s CPU     40.79s WALL (      36 calls)
     v_of_rho     :     12.36s CPU     12.47s WALL (      37 calls)
     v_h          :      0.64s CPU      0.65s WALL (      37 calls)
     v_xc         :     12.03s CPU     12.15s WALL (      38 calls)
     newd         :     10.27s CPU     13.15s WALL (      37 calls)
     mix_rho      :      1.96s CPU      1.99s WALL (      36 calls)

     Called by c_bands:
     init_us_2    :      9.78s CPU      9.84s WALL (    1480 calls)
     init_us_2:cp :      9.77s CPU      9.83s WALL (    1480 calls)
     cegterg      :    303.30s CPU    328.95s WALL (     720 calls)

     Called by sum_band:
     sum_band:wei :      0.04s CPU      0.04s WALL (      36 calls)
     sum_band:loo :     31.48s CPU     31.62s WALL (      36 calls)
     sum_band:buf :      0.95s CPU      1.02s WALL (     720 calls)
     sum_band:ini :      4.66s CPU      4.67s WALL (     720 calls)
     sum_band:cal :      6.04s CPU      6.04s WALL (     720 calls)
     sum_band:bec :      0.05s CPU      0.05s WALL (     720 calls)
     addusdens    :      3.75s CPU      3.99s WALL (      36 calls)
     addusd:skk   :      0.02s CPU      0.02s WALL (      72 calls)
     addusd:dgemm :      0.65s CPU      0.68s WALL (      72 calls)
     addusd:qvan2 :      1.86s CPU      1.87s WALL (      72 calls)

     Called by *egterg:
     cdiaghg      :     14.53s CPU     14.58s WALL (    3978 calls)
     cegterg:over :     16.69s CPU     16.78s WALL (    3258 calls)
     cegterg:upda :     17.30s CPU     22.03s WALL (    3258 calls)
     cegterg:last :     45.95s CPU     59.07s WALL (    1731 calls)
     h_psi        :    159.40s CPU    159.85s WALL (    3998 calls)
     s_psi        :     18.93s CPU     18.99s WALL (    3998 calls)
     g_psi        :      3.16s CPU      3.20s WALL (    3258 calls)

     Called by h_psi:
     h_psi:calbec :     22.78s CPU     22.84s WALL (    3998 calls)
     vloc_psi     :    113.64s CPU    113.96s WALL (    3998 calls)
     add_vuspsi   :     22.13s CPU     22.18s WALL (    3998 calls)

     General routines
     calbec       :     30.26s CPU     30.35s WALL (    4798 calls)
     fft          :      5.89s CPU      5.90s WALL (     490 calls)
     ffts         :      0.65s CPU      0.66s WALL (      73 calls)
     fftw         :    115.21s CPU    115.47s WALL (   45732 calls)
     interpolate  :      1.10s CPU      1.10s WALL (      37 calls)

     Parallel routines

     PWSCF        :   7m18.11s CPU   7m48.14s WALL


   This run was terminated on:   2:24: 8  27Aug2025            

=------------------------------------------------------------------------------=
   JOB DONE.
=------------------------------------------------------------------------------=
