
     Program PWSCF v.7.2 starts on 11Sep2025 at  0:21:24 

     This program is part of the open-source Quantum ESPRESSO suite
     for quantum simulation of materials; please cite
         "P. Giannozzi et al., J. Phys.:Condens. Matter 21 395502 (2009);
         "P. Giannozzi et al., J. Phys.:Condens. Matter 29 465901 (2017);
         "P. Giannozzi et al., J. Chem. Phys. 152 154105 (2020);
          URL http://www.quantum-espresso.org", 
     in publications or presentations arising from this work. More details at
     http://www.quantum-espresso.org/quote

     Parallel version (MPI), running on    32 processors

     MPI processes distributed on     1 nodes
     116452 MiB available memory on the printing compute node when the environment starts

     Reading input from /home/jvc/QEspresso7.2/ZnO_database/scripts/cell222.in/ZnO-3.47-1.68-222.in
Warning: card &CELL ignored
Warning: card / ignored
Warning: card &FCP ignored
Warning: card / ignored
Warning: card &RISM ignored
Warning: card / ignored

     Current dimensions of program PWSCF are:
     Max number of different atomic species (ntypx) = 10
     Max number of k-points (npk) =  40000
     Max angular momentum in pseudopotentials (lmaxx) =  4
     file Zn.upf: wavefunction(s)  3D renormalized
     Found identity + (  0.0000  0.0000  0.5000) symmetry
     This is a supercell, fractional translations are disabled
     Message from routine setup:
     using ibrav=0 with symmetry is DISCOURAGED, use correct ibrav instead

     K-points division:     npool     =       2
     R & G space division:  proc/nbgrp/npool/nimage =      16
     Subspace diagonalization in iterative solution of the eigenvalue problem:
     a serial algorithm will be used


     Parallelization info
     --------------------
     sticks:   dense  smooth     PW     G-vecs:    dense   smooth      PW
     Min         296     147     40                27604     9759    1410
     Max         297     150     41                27607     9762    1419
     Sum        4741    2371    649               441681   156177   22635

     Using Slab Decomposition



     bravais-lattice index     =            0
     lattice parameter (alat)  =      13.0992  a.u.
     unit-cell volume          =    3268.0997 (a.u.)^3
     number of atoms/cell      =           32
     number of atomic types    =            2
     number of electrons       =       288.00
     number of Kohn-Sham states=          144
     kinetic-energy cutoff     =      50.0000  Ry
     charge density cutoff     =     400.0000  Ry
     scf convergence threshold =      1.0E-08
     mixing beta               =       0.3000
     number of iterations used =            8  plain     mixing
     Exchange-correlation= PBE
                           (   1   4   3   4   0   0   0)

     celldm(1)=  13.099170  celldm(2)=   0.000000  celldm(3)=   0.000000
     celldm(4)=   0.000000  celldm(5)=   0.000000  celldm(6)=   0.000000

     crystal axes: (cart. coord. in units of alat)
               a(1) = (   1.000000   0.000000   0.000000 )  
               a(2) = (  -0.500000   0.866025   0.000000 )  
               a(3) = (   0.000000   0.000000   1.678933 )  

     reciprocal axes: (cart. coord. in units 2 pi/alat)
               b(1) = (  1.000000  0.577350 -0.000000 )  
               b(2) = (  0.000000  1.154701  0.000000 )  
               b(3) = (  0.000000 -0.000000  0.595616 )  


     PseudoPot. # 1 for Zn read from file:
     /home/jvc/QEspresso7.2/ZnO_database/pseudos/Zn.upf
     MD5 check sum: 7f56cabf9682ed8c977c2f7d0c5985c5
     Pseudo is Ultrasoft + core correction, Zval = 12.0
     Generated using &quot;atomic&quot; code by A. Dal Corso  v.6.2.2
     Using radial grid of 1201 points,  6 beta functions with: 
                l(1) =   0
                l(2) =   0
                l(3) =   1
                l(4) =   1
                l(5) =   2
                l(6) =   2
     Q(r) pseudized with 0 coefficients 


     PseudoPot. # 2 for O  read from file:
     /home/jvc/QEspresso7.2/ZnO_database/pseudos/O.upf
     MD5 check sum: 91400c9766925bcf19f520983a725ff0
     Pseudo is Ultrasoft + core correction, Zval =  6.0
     Generated using &quot;atomic&quot; code by A. Dal Corso  v.6.3MaX
     Using radial grid of 1095 points,  4 beta functions with: 
                l(1) =   0
                l(2) =   0
                l(3) =   1
                l(4) =   1
     Q(r) pseudized with 0 coefficients 


     atomic species   valence    mass     pseudopotential
        Zn            12.00    65.38000     Zn( 1.00)
        O              6.00    15.99900     O ( 1.00)

      6 Sym. Ops. (no inversion) found


                                    s                        frac. trans.

      isym =  1     identity                                     

 cryst.   s( 1) = (     1          0          0      )
                  (     0          1          0      )
                  (     0          0          1      )

 cart.    s( 1) = (  1.0000000  0.0000000  0.0000000 )
                  (  0.0000000  1.0000000  0.0000000 )
                  (  0.0000000  0.0000000  1.0000000 )


      isym =  2     120 deg rotation - cryst. axis [0,0,1]       

 cryst.   s( 2) = (     0          1          0      )
                  (    -1         -1          0      )
                  (     0          0          1      )

 cart.    s( 2) = ( -0.5000000 -0.8660254  0.0000000 )
                  (  0.8660254 -0.5000000  0.0000000 )
                  (  0.0000000  0.0000000  1.0000000 )


      isym =  3     120 deg rotation - cryst. axis [0,0,-1]      

 cryst.   s( 3) = (    -1         -1          0      )
                  (     1          0          0      )
                  (     0          0          1      )

 cart.    s( 3) = ( -0.5000000  0.8660254  0.0000000 )
                  ( -0.8660254 -0.5000000  0.0000000 )
                  (  0.0000000  0.0000000  1.0000000 )


      isym =  4     inv. 180 deg rotation - cart. axis [1,0,0]   

 cryst.   s( 4) = (    -1          0          0      )
                  (     1          1          0      )
                  (     0          0          1      )

 cart.    s( 4) = ( -1.0000000  0.0000000  0.0000000 )
                  (  0.0000000  1.0000000  0.0000000 )
                  (  0.0000000  0.0000000  1.0000000 )


      isym =  5     inv. 180 deg rotation - cryst. axis [0,1,0]  

 cryst.   s( 5) = (     1          1          0      )
                  (     0         -1          0      )
                  (     0          0          1      )

 cart.    s( 5) = (  0.5000000  0.8660254  0.0000000 )
                  (  0.8660254 -0.5000000  0.0000000 )
                  (  0.0000000  0.0000000  1.0000000 )


      isym =  6     inv. 180 deg rotation - cryst. axis [1,1,0]  

 cryst.   s( 6) = (     0         -1          0      )
                  (    -1          0          0      )
                  (     0          0          1      )

 cart.    s( 6) = (  0.5000000 -0.8660254  0.0000000 )
                  ( -0.8660254 -0.5000000  0.0000000 )
                  (  0.0000000  0.0000000  1.0000000 )


   Cartesian axes

     site n.     atom                  positions (alat units)
         1           Zn  tau(   1) = (   0.2500000   0.1443376   0.4202650  )
         2           Zn  tau(   2) = (  -0.0000000   0.2886751   0.0005319  )
         3           O   tau(   3) = (   0.2500000   0.1443376   0.7384587  )
         4           O   tau(   4) = (  -0.0000000   0.2886751   0.3187256  )
         5           Zn  tau(   5) = (   0.2500000   0.1443376   1.2597314  )
         6           Zn  tau(   6) = (  -0.0000000   0.2886751   0.8399982  )
         7           O   tau(   7) = (   0.2500000   0.1443376   1.5779251  )
         8           O   tau(   8) = (  -0.0000000   0.2886751   1.1581919  )
         9           Zn  tau(   9) = (   0.0000000   0.5773503   0.4202650  )
        10           Zn  tau(  10) = (  -0.2500000   0.7216878   0.0005319  )
        11           O   tau(  11) = (   0.0000000   0.5773503   0.7384587  )
        12           O   tau(  12) = (  -0.2500000   0.7216878   0.3187256  )
        13           Zn  tau(  13) = (   0.0000000   0.5773503   1.2597314  )
        14           Zn  tau(  14) = (  -0.2500000   0.7216878   0.8399982  )
        15           O   tau(  15) = (   0.0000000   0.5773503   1.5779251  )
        16           O   tau(  16) = (  -0.2500000   0.7216878   1.1581919  )
        17           Zn  tau(  17) = (   0.7500000   0.1443376   0.4202650  )
        18           Zn  tau(  18) = (   0.5000000   0.2886751   0.0005319  )
        19           O   tau(  19) = (   0.7500000   0.1443376   0.7384587  )
        20           O   tau(  20) = (   0.5000000   0.2886751   0.3187256  )
        21           Zn  tau(  21) = (   0.7500000   0.1443376   1.2597314  )
        22           Zn  tau(  22) = (   0.5000000   0.2886751   0.8399982  )
        23           O   tau(  23) = (   0.7500000   0.1443376   1.5779251  )
        24           O   tau(  24) = (   0.5000000   0.2886751   1.1581919  )
        25           Zn  tau(  25) = (   0.5000000   0.5773503   0.4202650  )
        26           Zn  tau(  26) = (   0.2500000   0.7216878   0.0005319  )
        27           O   tau(  27) = (   0.5000000   0.5773503   0.7384587  )
        28           O   tau(  28) = (   0.2500000   0.7216878   0.3187256  )
        29           Zn  tau(  29) = (   0.5000000   0.5773503   1.2597314  )
        30           Zn  tau(  30) = (   0.2500000   0.7216878   0.8399982  )
        31           O   tau(  31) = (   0.5000000   0.5773503   1.5779251  )
        32           O   tau(  32) = (   0.2500000   0.7216878   1.1581919  )

   Crystallographic axes

     site n.     atom                  positions (cryst. coord.)
         1           Zn  tau(   1) = (  0.3333333  0.1666667  0.2503168  )
         2           Zn  tau(   2) = (  0.1666667  0.3333333  0.0003168  )
         3           O   tau(   3) = (  0.3333333  0.1666667  0.4398382  )
         4           O   tau(   4) = (  0.1666667  0.3333333  0.1898382  )
         5           Zn  tau(   5) = (  0.3333333  0.1666667  0.7503168  )
         6           Zn  tau(   6) = (  0.1666667  0.3333333  0.5003168  )
         7           O   tau(   7) = (  0.3333333  0.1666667  0.9398382  )
         8           O   tau(   8) = (  0.1666667  0.3333333  0.6898382  )
         9           Zn  tau(   9) = (  0.3333333  0.6666667  0.2503168  )
        10           Zn  tau(  10) = (  0.1666667  0.8333333  0.0003168  )
        11           O   tau(  11) = (  0.3333333  0.6666667  0.4398382  )
        12           O   tau(  12) = (  0.1666667  0.8333333  0.1898382  )
        13           Zn  tau(  13) = (  0.3333333  0.6666667  0.7503168  )
        14           Zn  tau(  14) = (  0.1666667  0.8333333  0.5003168  )
        15           O   tau(  15) = (  0.3333333  0.6666667  0.9398382  )
        16           O   tau(  16) = (  0.1666667  0.8333333  0.6898382  )
        17           Zn  tau(  17) = (  0.8333333  0.1666667  0.2503168  )
        18           Zn  tau(  18) = (  0.6666667  0.3333333  0.0003168  )
        19           O   tau(  19) = (  0.8333333  0.1666667  0.4398382  )
        20           O   tau(  20) = (  0.6666667  0.3333333  0.1898382  )
        21           Zn  tau(  21) = (  0.8333333  0.1666667  0.7503168  )
        22           Zn  tau(  22) = (  0.6666667  0.3333333  0.5003168  )
        23           O   tau(  23) = (  0.8333333  0.1666667  0.9398382  )
        24           O   tau(  24) = (  0.6666667  0.3333333  0.6898382  )
        25           Zn  tau(  25) = (  0.8333333  0.6666667  0.2503168  )
        26           Zn  tau(  26) = (  0.6666667  0.8333333  0.0003168  )
        27           O   tau(  27) = (  0.8333333  0.6666667  0.4398382  )
        28           O   tau(  28) = (  0.6666667  0.8333333  0.1898382  )
        29           Zn  tau(  29) = (  0.8333333  0.6666667  0.7503168  )
        30           Zn  tau(  30) = (  0.6666667  0.8333333  0.5003168  )
        31           O   tau(  31) = (  0.8333333  0.6666667  0.9398382  )
        32           O   tau(  32) = (  0.6666667  0.8333333  0.6898382  )

     number of k points=    34
                       cart. coord. in units 2pi/alat
        k(    1) = (   0.0000000   0.0000000   0.0000000), wk =   0.0092593
        k(    2) = (   0.0000000   0.0000000   0.0992694), wk =   0.0185185
        k(    3) = (   0.0000000   0.0000000   0.1985388), wk =   0.0185185
        k(    4) = (   0.0000000   0.0000000  -0.2978082), wk =   0.0092593
        k(    5) = (   0.0000000   0.1924501   0.0000000), wk =   0.0555556
        k(    6) = (   0.0000000   0.1924501   0.0992694), wk =   0.0555556
        k(    7) = (   0.0000000   0.1924501   0.1985388), wk =   0.0555556
        k(    8) = (   0.0000000   0.1924501  -0.2978082), wk =   0.0555556
        k(    9) = (   0.0000000   0.3849002   0.0000000), wk =   0.0555556
        k(   10) = (   0.0000000   0.3849002   0.0992694), wk =   0.0555556
        k(   11) = (   0.0000000   0.3849002   0.1985388), wk =   0.0555556
        k(   12) = (   0.0000000   0.3849002  -0.2978082), wk =   0.0555556
        k(   13) = (   0.0000000  -0.5773503   0.0000000), wk =   0.0277778
        k(   14) = (   0.0000000  -0.5773503   0.0992694), wk =   0.0555556
        k(   15) = (   0.0000000  -0.5773503   0.1985388), wk =   0.0555556
        k(   16) = (   0.0000000  -0.5773503  -0.2978082), wk =   0.0277778
        k(   17) = (   0.1666667   0.2886751   0.0000000), wk =   0.0555556
        k(   18) = (   0.1666667   0.2886751   0.0992694), wk =   0.1111111
        k(   19) = (   0.1666667   0.2886751   0.1985388), wk =   0.1111111
        k(   20) = (   0.1666667   0.2886751  -0.2978082), wk =   0.0555556
        k(   21) = (   0.1666667   0.4811252   0.0000000), wk =   0.1111111
        k(   22) = (   0.1666667   0.4811252   0.0992694), wk =   0.1111111
        k(   23) = (   0.1666667   0.4811252   0.1985388), wk =   0.1111111
        k(   24) = (   0.1666667   0.4811252  -0.2978082), wk =   0.1111111
        k(   25) = (   0.3333333   0.5773503   0.0000000), wk =   0.0185185
        k(   26) = (   0.3333333   0.5773503   0.0992694), wk =   0.0370370
        k(   27) = (   0.3333333   0.5773503   0.1985388), wk =   0.0370370
        k(   28) = (   0.3333333   0.5773503  -0.2978082), wk =   0.0185185
        k(   29) = (   0.0000000  -0.1924501   0.0992694), wk =   0.0555556
        k(   30) = (   0.0000000  -0.1924501   0.1985388), wk =   0.0555556
        k(   31) = (   0.0000000  -0.3849002   0.0992694), wk =   0.0555556
        k(   32) = (   0.0000000  -0.3849002   0.1985388), wk =   0.0555556
        k(   33) = (  -0.1666667  -0.4811252   0.0992694), wk =   0.1111111
        k(   34) = (  -0.1666667  -0.4811252   0.1985388), wk =   0.1111111

                       cryst. coord.
        k(    1) = (   0.0000000   0.0000000   0.0000000), wk =   0.0092593
        k(    2) = (   0.0000000   0.0000000   0.1666667), wk =   0.0185185
        k(    3) = (   0.0000000   0.0000000   0.3333333), wk =   0.0185185
        k(    4) = (   0.0000000   0.0000000  -0.5000000), wk =   0.0092593
        k(    5) = (   0.0000000   0.1666667   0.0000000), wk =   0.0555556
        k(    6) = (   0.0000000   0.1666667   0.1666667), wk =   0.0555556
        k(    7) = (   0.0000000   0.1666667   0.3333333), wk =   0.0555556
        k(    8) = (   0.0000000   0.1666667  -0.5000000), wk =   0.0555556
        k(    9) = (   0.0000000   0.3333333   0.0000000), wk =   0.0555556
        k(   10) = (   0.0000000   0.3333333   0.1666667), wk =   0.0555556
        k(   11) = (   0.0000000   0.3333333   0.3333333), wk =   0.0555556
        k(   12) = (   0.0000000   0.3333333  -0.5000000), wk =   0.0555556
        k(   13) = (   0.0000000  -0.5000000   0.0000000), wk =   0.0277778
        k(   14) = (   0.0000000  -0.5000000   0.1666667), wk =   0.0555556
        k(   15) = (   0.0000000  -0.5000000   0.3333333), wk =   0.0555556
        k(   16) = (   0.0000000  -0.5000000  -0.5000000), wk =   0.0277778
        k(   17) = (   0.1666667   0.1666667   0.0000000), wk =   0.0555556
        k(   18) = (   0.1666667   0.1666667   0.1666667), wk =   0.1111111
        k(   19) = (   0.1666667   0.1666667   0.3333333), wk =   0.1111111
        k(   20) = (   0.1666667   0.1666667  -0.5000000), wk =   0.0555556
        k(   21) = (   0.1666667   0.3333333   0.0000000), wk =   0.1111111
        k(   22) = (   0.1666667   0.3333333   0.1666667), wk =   0.1111111
        k(   23) = (   0.1666667   0.3333333   0.3333333), wk =   0.1111111
        k(   24) = (   0.1666667   0.3333333  -0.5000000), wk =   0.1111111
        k(   25) = (   0.3333333   0.3333333   0.0000000), wk =   0.0185185
        k(   26) = (   0.3333333   0.3333333   0.1666667), wk =   0.0370370
        k(   27) = (   0.3333333   0.3333333   0.3333333), wk =   0.0370370
        k(   28) = (   0.3333333   0.3333333  -0.5000000), wk =   0.0185185
        k(   29) = (   0.0000000  -0.1666667   0.1666667), wk =   0.0555556
        k(   30) = (   0.0000000  -0.1666667   0.3333333), wk =   0.0555556
        k(   31) = (   0.0000000  -0.3333333   0.1666667), wk =   0.0555556
        k(   32) = (   0.0000000  -0.3333333   0.3333333), wk =   0.0555556
        k(   33) = (  -0.1666667  -0.3333333   0.1666667), wk =   0.1111111
        k(   34) = (  -0.1666667  -0.3333333   0.3333333), wk =   0.1111111

     Dense  grid:   441681 G-vectors     FFT dimensions: (  90,  90, 144)

     Smooth grid:   156177 G-vectors     FFT dimensions: (  60,  60, 100)

     Dynamical RAM for                 wfc:       2.68 MB

     Dynamical RAM for     wfc (w. buffer):      48.21 MB

     Dynamical RAM for           str. fact:       0.84 MB

     Dynamical RAM for           local pot:       0.00 MB

     Dynamical RAM for          nlocal pot:       7.74 MB

     Dynamical RAM for                qrad:       3.21 MB

     Dynamical RAM for          rho,v,vnew:       2.93 MB

     Dynamical RAM for               rhoin:       0.98 MB

     Dynamical RAM for            rho*nmix:       6.74 MB

     Dynamical RAM for           G-vectors:       1.65 MB

     Dynamical RAM for          h,s,v(r/c):       3.80 MB

     Dynamical RAM for          <psi|beta>:       0.91 MB

     Dynamical RAM for                 psi:       5.36 MB

     Dynamical RAM for                hpsi:       5.36 MB

     Dynamical RAM for                spsi:       5.36 MB

     Dynamical RAM for      wfcinit/wfcrot:       8.73 MB

     Dynamical RAM for           addusdens:      42.76 MB

     Dynamical RAM for          addusforce:      49.14 MB

     Estimated static dynamical RAM per process >      69.61 MB

     Estimated max dynamical RAM per process >     125.49 MB

     Estimated total dynamical RAM >       3.82 GB

     Check: negative core charge=   -0.000002

     Initial potential from superposition of free atoms

     starting charge     287.9404, renormalised to     288.0000
     Starting wfcs are  208 randomized atomic wfcs

     total cpu time spent up to now is       16.6 secs

     Self-consistent Calculation

     iteration #  1     ecut=    50.00 Ry     beta= 0.30
     Davidson diagonalization with overlap

---- Real-time Memory Report at c_bands before calling an iterative solver
           118 MiB given to the printing process from OS
             0 MiB allocation reported by mallinfo(arena+hblkhd)
        113885 MiB available memory on the node where the printing process lives
------------------
     ethr =  1.00E-02,  avg # of iterations =  1.9

     total cpu time spent up to now is       41.6 secs

     total energy              =   -2891.14137057 Ry
     estimated scf accuracy    <       6.39411266 Ry

     iteration #  2     ecut=    50.00 Ry     beta= 0.30
     Davidson diagonalization with overlap

---- Real-time Memory Report at c_bands before calling an iterative solver
           162 MiB given to the printing process from OS
             0 MiB allocation reported by mallinfo(arena+hblkhd)
        112503 MiB available memory on the node where the printing process lives
------------------
     ethr =  2.22E-03,  avg # of iterations =  2.4

     total cpu time spent up to now is       73.5 secs

     total energy              =   -2892.09654540 Ry
     estimated scf accuracy    <       0.73604585 Ry

     iteration #  3     ecut=    50.00 Ry     beta= 0.30
     Davidson diagonalization with overlap

---- Real-time Memory Report at c_bands before calling an iterative solver
           163 MiB given to the printing process from OS
             0 MiB allocation reported by mallinfo(arena+hblkhd)
        112473 MiB available memory on the node where the printing process lives
------------------
     ethr =  2.56E-04,  avg # of iterations =  8.7

     total cpu time spent up to now is      134.0 secs

     total energy              =   -2892.11670661 Ry
     estimated scf accuracy    <       1.06477941 Ry

     iteration #  4     ecut=    50.00 Ry     beta= 0.30
     Davidson diagonalization with overlap

---- Real-time Memory Report at c_bands before calling an iterative solver
           163 MiB given to the printing process from OS
             0 MiB allocation reported by mallinfo(arena+hblkhd)
        112520 MiB available memory on the node where the printing process lives
------------------
     ethr =  2.56E-04,  avg # of iterations = 12.3

     total cpu time spent up to now is      222.5 secs

     total energy              =   -2893.05988992 Ry
     estimated scf accuracy    <       3.73728076 Ry

     iteration #  5     ecut=    50.00 Ry     beta= 0.30
     Davidson diagonalization with overlap

---- Real-time Memory Report at c_bands before calling an iterative solver
           163 MiB given to the printing process from OS
             0 MiB allocation reported by mallinfo(arena+hblkhd)
        112505 MiB available memory on the node where the printing process lives
------------------
     ethr =  2.56E-04,  avg # of iterations =  1.1

     total cpu time spent up to now is      246.5 secs

     total energy              =   -2891.47417363 Ry
     estimated scf accuracy    <       2.62838481 Ry

     iteration #  6     ecut=    50.00 Ry     beta= 0.30
     Davidson diagonalization with overlap

---- Real-time Memory Report at c_bands before calling an iterative solver
           163 MiB given to the printing process from OS
             0 MiB allocation reported by mallinfo(arena+hblkhd)
        112507 MiB available memory on the node where the printing process lives
------------------
     ethr =  2.56E-04,  avg # of iterations = 11.4

     total cpu time spent up to now is      312.6 secs

     total energy              =   -2892.67584308 Ry
     estimated scf accuracy    <       1.65874420 Ry

     iteration #  7     ecut=    50.00 Ry     beta= 0.30
     Davidson diagonalization with overlap

---- Real-time Memory Report at c_bands before calling an iterative solver
           164 MiB given to the printing process from OS
             0 MiB allocation reported by mallinfo(arena+hblkhd)
        112492 MiB available memory on the node where the printing process lives
------------------
     ethr =  2.56E-04,  avg # of iterations =  2.0

     total cpu time spent up to now is      339.7 secs

     total energy              =   -2892.62311711 Ry
     estimated scf accuracy    <       0.81548886 Ry

     iteration #  8     ecut=    50.00 Ry     beta= 0.30
     Davidson diagonalization with overlap

---- Real-time Memory Report at c_bands before calling an iterative solver
           164 MiB given to the printing process from OS
             0 MiB allocation reported by mallinfo(arena+hblkhd)
        112499 MiB available memory on the node where the printing process lives
------------------
     ethr =  2.56E-04,  avg # of iterations =  2.0

     total cpu time spent up to now is      368.3 secs

     total energy              =   -2892.68940247 Ry
     estimated scf accuracy    <       0.41212541 Ry

     iteration #  9     ecut=    50.00 Ry     beta= 0.30
     Davidson diagonalization with overlap

---- Real-time Memory Report at c_bands before calling an iterative solver
           164 MiB given to the printing process from OS
             0 MiB allocation reported by mallinfo(arena+hblkhd)
        112470 MiB available memory on the node where the printing process lives
------------------
     ethr =  1.43E-04,  avg # of iterations =  1.9

     total cpu time spent up to now is      394.2 secs

     total energy              =   -2892.69450582 Ry
     estimated scf accuracy    <       0.39317229 Ry

     iteration # 10     ecut=    50.00 Ry     beta= 0.30
     Davidson diagonalization with overlap

---- Real-time Memory Report at c_bands before calling an iterative solver
           164 MiB given to the printing process from OS
             0 MiB allocation reported by mallinfo(arena+hblkhd)
        112461 MiB available memory on the node where the printing process lives
------------------
     ethr =  1.37E-04,  avg # of iterations =  2.5

     total cpu time spent up to now is      421.4 secs

     total energy              =   -2892.64655020 Ry
     estimated scf accuracy    <       0.29412112 Ry

     iteration # 11     ecut=    50.00 Ry     beta= 0.30
     Davidson diagonalization with overlap

---- Real-time Memory Report at c_bands before calling an iterative solver
           165 MiB given to the printing process from OS
             0 MiB allocation reported by mallinfo(arena+hblkhd)
        112473 MiB available memory on the node where the printing process lives
------------------
     ethr =  1.02E-04,  avg # of iterations =  2.6

     total cpu time spent up to now is      450.1 secs

     total energy              =   -2892.68352275 Ry
     estimated scf accuracy    <       0.13791391 Ry

     iteration # 12     ecut=    50.00 Ry     beta= 0.30
     Davidson diagonalization with overlap

---- Real-time Memory Report at c_bands before calling an iterative solver
           165 MiB given to the printing process from OS
             0 MiB allocation reported by mallinfo(arena+hblkhd)
        112465 MiB available memory on the node where the printing process lives
------------------
     ethr =  4.79E-05,  avg # of iterations =  4.1

     total cpu time spent up to now is      480.0 secs

     total energy              =   -2892.64151625 Ry
     estimated scf accuracy    <       0.15460648 Ry

     iteration # 13     ecut=    50.00 Ry     beta= 0.30
     Davidson diagonalization with overlap

---- Real-time Memory Report at c_bands before calling an iterative solver
           166 MiB given to the printing process from OS
             0 MiB allocation reported by mallinfo(arena+hblkhd)
        112476 MiB available memory on the node where the printing process lives
------------------
     ethr =  4.79E-05,  avg # of iterations =  6.3

     total cpu time spent up to now is      516.6 secs

     total energy              =   -2892.65204091 Ry
     estimated scf accuracy    <       0.03163570 Ry

     iteration # 14     ecut=    50.00 Ry     beta= 0.30
     Davidson diagonalization with overlap

---- Real-time Memory Report at c_bands before calling an iterative solver
           166 MiB given to the printing process from OS
             0 MiB allocation reported by mallinfo(arena+hblkhd)
        112448 MiB available memory on the node where the printing process lives
------------------
     ethr =  1.10E-05,  avg # of iterations =  8.0

     total cpu time spent up to now is      569.2 secs

     total energy              =   -2892.68422004 Ry
     estimated scf accuracy    <       0.00472549 Ry

     iteration # 15     ecut=    50.00 Ry     beta= 0.30
     Davidson diagonalization with overlap

---- Real-time Memory Report at c_bands before calling an iterative solver
           166 MiB given to the printing process from OS
             0 MiB allocation reported by mallinfo(arena+hblkhd)
        112500 MiB available memory on the node where the printing process lives
------------------
     c_bands:  1 eigenvalues not converged
     ethr =  1.64E-06,  avg # of iterations = 13.3

     total cpu time spent up to now is      653.4 secs

     total energy              =   -2892.70729563 Ry
     estimated scf accuracy    <       0.08182340 Ry

     iteration # 16     ecut=    50.00 Ry     beta= 0.30
     Davidson diagonalization with overlap

---- Real-time Memory Report at c_bands before calling an iterative solver
           166 MiB given to the printing process from OS
             0 MiB allocation reported by mallinfo(arena+hblkhd)
        112465 MiB available memory on the node where the printing process lives
------------------
     ethr =  1.64E-06,  avg # of iterations =  6.8

     total cpu time spent up to now is      699.5 secs

     total energy              =   -2892.70694448 Ry
     estimated scf accuracy    <       0.14093656 Ry

     iteration # 17     ecut=    50.00 Ry     beta= 0.30
     Davidson diagonalization with overlap

---- Real-time Memory Report at c_bands before calling an iterative solver
           166 MiB given to the printing process from OS
             0 MiB allocation reported by mallinfo(arena+hblkhd)
        112471 MiB available memory on the node where the printing process lives
------------------
     ethr =  1.64E-06,  avg # of iterations =  2.0

     total cpu time spent up to now is      725.9 secs

     total energy              =   -2892.66673628 Ry
     estimated scf accuracy    <       0.13958042 Ry

     iteration # 18     ecut=    50.00 Ry     beta= 0.30
     Davidson diagonalization with overlap

---- Real-time Memory Report at c_bands before calling an iterative solver
           166 MiB given to the printing process from OS
             0 MiB allocation reported by mallinfo(arena+hblkhd)
        112477 MiB available memory on the node where the printing process lives
------------------
     ethr =  1.64E-06,  avg # of iterations = 11.8

     total cpu time spent up to now is      808.9 secs

     total energy              =   -2892.66945566 Ry
     estimated scf accuracy    <       0.01603979 Ry

     iteration # 19     ecut=    50.00 Ry     beta= 0.30
     Davidson diagonalization with overlap

---- Real-time Memory Report at c_bands before calling an iterative solver
           166 MiB given to the printing process from OS
             0 MiB allocation reported by mallinfo(arena+hblkhd)
        112456 MiB available memory on the node where the printing process lives
------------------
     ethr =  1.64E-06,  avg # of iterations =  9.5

     total cpu time spent up to now is      871.3 secs

     total energy              =   -2892.67590424 Ry
     estimated scf accuracy    <       0.00219083 Ry

     iteration # 20     ecut=    50.00 Ry     beta= 0.30
     Davidson diagonalization with overlap

---- Real-time Memory Report at c_bands before calling an iterative solver
           166 MiB given to the printing process from OS
             0 MiB allocation reported by mallinfo(arena+hblkhd)
        112487 MiB available memory on the node where the printing process lives
------------------
     ethr =  7.61E-07,  avg # of iterations =  4.6

     total cpu time spent up to now is      904.5 secs

     total energy              =   -2892.67526189 Ry
     estimated scf accuracy    <       0.00480159 Ry

     iteration # 21     ecut=    50.00 Ry     beta= 0.30
     Davidson diagonalization with overlap

---- Real-time Memory Report at c_bands before calling an iterative solver
           166 MiB given to the printing process from OS
             0 MiB allocation reported by mallinfo(arena+hblkhd)
        112455 MiB available memory on the node where the printing process lives
------------------
     ethr =  7.61E-07,  avg # of iterations =  1.0

     total cpu time spent up to now is      928.0 secs

     total energy              =   -2892.67343208 Ry
     estimated scf accuracy    <       0.00345926 Ry

     iteration # 22     ecut=    50.00 Ry     beta= 0.30
     Davidson diagonalization with overlap

---- Real-time Memory Report at c_bands before calling an iterative solver
           166 MiB given to the printing process from OS
             0 MiB allocation reported by mallinfo(arena+hblkhd)
        112458 MiB available memory on the node where the printing process lives
------------------
     ethr =  7.61E-07,  avg # of iterations =  7.8

     total cpu time spent up to now is      979.6 secs

     total energy              =   -2892.67463822 Ry
     estimated scf accuracy    <       0.00050753 Ry

     iteration # 23     ecut=    50.00 Ry     beta= 0.30
     Davidson diagonalization with overlap

---- Real-time Memory Report at c_bands before calling an iterative solver
           166 MiB given to the printing process from OS
             0 MiB allocation reported by mallinfo(arena+hblkhd)
        112472 MiB available memory on the node where the printing process lives
------------------
     ethr =  1.76E-07,  avg # of iterations =  2.6

     total cpu time spent up to now is     1007.2 secs

     total energy              =   -2892.67437292 Ry
     estimated scf accuracy    <       0.00040218 Ry

     iteration # 24     ecut=    50.00 Ry     beta= 0.30
     Davidson diagonalization with overlap

---- Real-time Memory Report at c_bands before calling an iterative solver
           166 MiB given to the printing process from OS
             0 MiB allocation reported by mallinfo(arena+hblkhd)
        112439 MiB available memory on the node where the printing process lives
------------------
     ethr =  1.40E-07,  avg # of iterations =  8.0

     total cpu time spent up to now is     1061.5 secs

     total energy              =   -2892.67464906 Ry
     estimated scf accuracy    <       0.00041318 Ry

     iteration # 25     ecut=    50.00 Ry     beta= 0.30
     Davidson diagonalization with overlap

---- Real-time Memory Report at c_bands before calling an iterative solver
           166 MiB given to the printing process from OS
             0 MiB allocation reported by mallinfo(arena+hblkhd)
        112487 MiB available memory on the node where the printing process lives
------------------
     ethr =  1.40E-07,  avg # of iterations =  1.0

     total cpu time spent up to now is     1085.1 secs

     total energy              =   -2892.67456980 Ry
     estimated scf accuracy    <       0.00037089 Ry

     iteration # 26     ecut=    50.00 Ry     beta= 0.30
     Davidson diagonalization with overlap

---- Real-time Memory Report at c_bands before calling an iterative solver
           166 MiB given to the printing process from OS
             0 MiB allocation reported by mallinfo(arena+hblkhd)
        112499 MiB available memory on the node where the printing process lives
------------------
     ethr =  1.29E-07,  avg # of iterations =  1.1

     total cpu time spent up to now is     1109.0 secs

     total energy              =   -2892.67457634 Ry
     estimated scf accuracy    <       0.00020447 Ry

     iteration # 27     ecut=    50.00 Ry     beta= 0.30
     Davidson diagonalization with overlap

---- Real-time Memory Report at c_bands before calling an iterative solver
           166 MiB given to the printing process from OS
             0 MiB allocation reported by mallinfo(arena+hblkhd)
        112498 MiB available memory on the node where the printing process lives
------------------
     ethr =  7.10E-08,  avg # of iterations =  1.0

     total cpu time spent up to now is     1132.6 secs

     total energy              =   -2892.67454499 Ry
     estimated scf accuracy    <       0.00019575 Ry

     iteration # 28     ecut=    50.00 Ry     beta= 0.30
     Davidson diagonalization with overlap

---- Real-time Memory Report at c_bands before calling an iterative solver
           166 MiB given to the printing process from OS
             0 MiB allocation reported by mallinfo(arena+hblkhd)
        112484 MiB available memory on the node where the printing process lives
------------------
     ethr =  6.80E-08,  avg # of iterations =  1.1

     total cpu time spent up to now is     1156.7 secs

     total energy              =   -2892.67450888 Ry
     estimated scf accuracy    <       0.00011551 Ry

     iteration # 29     ecut=    50.00 Ry     beta= 0.30
     Davidson diagonalization with overlap

---- Real-time Memory Report at c_bands before calling an iterative solver
           166 MiB given to the printing process from OS
             0 MiB allocation reported by mallinfo(arena+hblkhd)
        112483 MiB available memory on the node where the printing process lives
------------------
     ethr =  4.01E-08,  avg # of iterations =  6.6

     total cpu time spent up to now is     1201.8 secs

     total energy              =   -2892.67456771 Ry
     estimated scf accuracy    <       0.00001501 Ry

     iteration # 30     ecut=    50.00 Ry     beta= 0.30
     Davidson diagonalization with overlap

---- Real-time Memory Report at c_bands before calling an iterative solver
           166 MiB given to the printing process from OS
             0 MiB allocation reported by mallinfo(arena+hblkhd)
        112474 MiB available memory on the node where the printing process lives
------------------
     ethr =  5.21E-09,  avg # of iterations =  4.6

     total cpu time spent up to now is     1233.9 secs

     total energy              =   -2892.67456601 Ry
     estimated scf accuracy    <       0.00001544 Ry

     iteration # 31     ecut=    50.00 Ry     beta= 0.30
     Davidson diagonalization with overlap

---- Real-time Memory Report at c_bands before calling an iterative solver
           166 MiB given to the printing process from OS
             0 MiB allocation reported by mallinfo(arena+hblkhd)
        112497 MiB available memory on the node where the printing process lives
------------------
     ethr =  5.21E-09,  avg # of iterations =  1.4

     total cpu time spent up to now is     1258.7 secs

     total energy              =   -2892.67456795 Ry
     estimated scf accuracy    <       0.00001067 Ry

     iteration # 32     ecut=    50.00 Ry     beta= 0.30
     Davidson diagonalization with overlap

---- Real-time Memory Report at c_bands before calling an iterative solver
           166 MiB given to the printing process from OS
             0 MiB allocation reported by mallinfo(arena+hblkhd)
        112488 MiB available memory on the node where the printing process lives
------------------
     ethr =  3.70E-09,  avg # of iterations =  1.9

     total cpu time spent up to now is     1284.5 secs

     total energy              =   -2892.67456070 Ry
     estimated scf accuracy    <       0.00001434 Ry

     iteration # 33     ecut=    50.00 Ry     beta= 0.30
     Davidson diagonalization with overlap

---- Real-time Memory Report at c_bands before calling an iterative solver
           166 MiB given to the printing process from OS
             0 MiB allocation reported by mallinfo(arena+hblkhd)
        112486 MiB available memory on the node where the printing process lives
------------------
     ethr =  3.70E-09,  avg # of iterations =  6.3

     total cpu time spent up to now is     1328.6 secs

     total energy              =   -2892.67456394 Ry
     estimated scf accuracy    <       0.00000035 Ry

     iteration # 34     ecut=    50.00 Ry     beta= 0.30
     Davidson diagonalization with overlap

---- Real-time Memory Report at c_bands before calling an iterative solver
           166 MiB given to the printing process from OS
             0 MiB allocation reported by mallinfo(arena+hblkhd)
        112446 MiB available memory on the node where the printing process lives
------------------
     ethr =  1.20E-10,  avg # of iterations =  8.8

     total cpu time spent up to now is     1390.1 secs

     total energy              =   -2892.67456444 Ry
     estimated scf accuracy    <       0.00000002 Ry

     iteration # 35     ecut=    50.00 Ry     beta= 0.30
     Davidson diagonalization with overlap

---- Real-time Memory Report at c_bands before calling an iterative solver
           166 MiB given to the printing process from OS
             0 MiB allocation reported by mallinfo(arena+hblkhd)
        112483 MiB available memory on the node where the printing process lives
------------------
     c_bands:  1 eigenvalues not converged
     c_bands:  1 eigenvalues not converged
     c_bands:  1 eigenvalues not converged
     c_bands:  1 eigenvalues not converged
     c_bands:  1 eigenvalues not converged
     ethr =  6.65E-12,  avg # of iterations = 17.4

     total cpu time spent up to now is     1505.7 secs

     total energy              =   -2892.67456443 Ry
     estimated scf accuracy    <       0.00000132 Ry

     iteration # 36     ecut=    50.00 Ry     beta= 0.30
     Davidson diagonalization with overlap

---- Real-time Memory Report at c_bands before calling an iterative solver
           166 MiB given to the printing process from OS
             0 MiB allocation reported by mallinfo(arena+hblkhd)
        112483 MiB available memory on the node where the printing process lives
------------------
     ethr =  6.65E-12,  avg # of iterations = 10.2

     total cpu time spent up to now is     1575.8 secs

     total energy              =   -2892.67456426 Ry
     estimated scf accuracy    <       0.00000054 Ry

     iteration # 37     ecut=    50.00 Ry     beta= 0.30
     Davidson diagonalization with overlap

---- Real-time Memory Report at c_bands before calling an iterative solver
           166 MiB given to the printing process from OS
             0 MiB allocation reported by mallinfo(arena+hblkhd)
        112504 MiB available memory on the node where the printing process lives
------------------
     c_bands:  1 eigenvalues not converged
     c_bands:  1 eigenvalues not converged
     ethr =  6.65E-12,  avg # of iterations = 15.0

     total cpu time spent up to now is     1670.9 secs

     End of self-consistent calculation

          k = 0.0000 0.0000 0.0000 ( 19507 PWs)   bands (ev):

   -12.3689 -12.1839 -12.1838 -11.9922 -11.9590 -11.9590 -11.9590 -11.8992
   -11.8992 -11.8992 -11.8991 -11.8991 -11.8991 -11.8440 -11.8440 -11.8440
    -0.8133  -0.8133  -0.8133  -0.8133  -0.8133  -0.8133  -0.8062  -0.8062
    -0.8062  -0.7959  -0.7959  -0.7625  -0.7545  -0.7545  -0.7530  -0.7530
    -0.7530  -0.7530  -0.6904  -0.6904  -0.6258  -0.6258  -0.6258  -0.5768
    -0.5768  -0.5768  -0.4917  -0.4917  -0.4917  -0.4917  -0.4917  -0.4917
    -0.3822  -0.3822  -0.3822  -0.3374  -0.3374  -0.3373  -0.3257  -0.3257
    -0.3257  -0.3257  -0.3257  -0.3257  -0.2524  -0.2278  -0.2278  -0.2278
    -0.1784  -0.1784  -0.1197  -0.1197  -0.1197  -0.1197  -0.0785  -0.0785
    -0.0785  -0.0773  -0.0773  -0.0773  -0.0762  -0.0762  -0.0684  -0.0684
    -0.0684  -0.0684  -0.0684  -0.0684  -0.0449  -0.0449  -0.0449  -0.0142
    -0.0142  -0.0142  -0.0142  -0.0142  -0.0142   0.0065   0.0065   0.0065
     0.4420   0.7446   0.7446   0.7446   0.8359   0.8359   0.8359   0.8359
     0.8359   0.8359   1.2319   1.2319   1.2319   2.0037   2.0037   2.0566
     2.0566   2.0566   2.6916   2.6916   2.6916   3.0914   3.0914   3.0914
     3.0914   3.0914   3.0914   3.1285   3.1285   3.1285   3.1285   3.1285
     3.1285   3.2116   3.2116   3.2116   3.5486   3.5486   3.5486   3.6800
     3.6800   3.9204   3.9204   3.9205   3.9205   4.0445   4.1572   4.1572

     occupation numbers 
     1.0000   1.0000   1.0000   1.0000   1.0000   1.0000   1.0000   1.0000
     1.0000   1.0000   1.0000   1.0000   1.0000   1.0000   1.0000   1.0000
     1.0000   1.0000   1.0000   1.0000   1.0000   1.0000   1.0000   1.0000
     1.0000   1.0000   1.0000   1.0000   1.0000   1.0000   1.0000   1.0000
     1.0000   1.0000   1.0000   1.0000   1.0000   1.0000   1.0000   1.0000
     1.0000   1.0000   1.0000   1.0000   1.0000   1.0000   1.0000   1.0000
     1.0000   1.0000   1.0000   1.0000   1.0000   1.0000   1.0000   1.0000
     1.0000   1.0000   1.0000   1.0000   1.0000   1.0000   1.0000   1.0000
     1.0000   1.0000   1.0000   1.0000   1.0000   1.0000   1.0000   1.0000
     1.0000   1.0000   1.0000   1.0000   1.0000   1.0000   1.0000   1.0000
     1.0000   1.0000   1.0000   1.0000   1.0000   1.0000   1.0000   1.0000
     1.0000   1.0000   1.0000   1.0000   1.0000   1.0000   1.0000   1.0000
     1.0000   1.0000   1.0000   1.0000   1.0000   1.0000   1.0000   1.0000
     1.0000   1.0000   1.0000   1.0000   1.0000   1.0000   1.0000   1.0000
     1.0000   1.0000   1.0000   1.0000   1.0000   1.0000   1.0000   1.0000
     1.0000   1.0000   1.0000   1.0000   1.0000   1.0000   1.0000   1.0000
     1.0000   1.0000   1.0000   1.0000   1.0000   1.0000   1.0000   1.0000
     1.0000   1.0000   1.0000   1.0000   1.0000   1.0000   1.0000   1.0000

          k = 0.0000 0.0000 0.0993 ( 19483 PWs)   bands (ev):

   -12.3627 -12.2324 -12.1349 -11.9988 -11.9569 -11.9569 -11.9569 -11.9142
   -11.9142 -11.9142 -11.8844 -11.8844 -11.8844 -11.8458 -11.8458 -11.8458
    -0.8294  -0.8294  -0.8294  -0.8092  -0.8092  -0.8092  -0.7946  -0.7946
    -0.7822  -0.7822  -0.7822  -0.7767  -0.7657  -0.7657  -0.7650  -0.7387
    -0.7387  -0.7105  -0.6929  -0.6929  -0.6217  -0.6217  -0.6217  -0.5919
    -0.5919  -0.5919  -0.5282  -0.5282  -0.5282  -0.4535  -0.4535  -0.4535
    -0.3812  -0.3812  -0.3812  -0.3458  -0.3458  -0.3458  -0.3430  -0.3430
    -0.3430  -0.3103  -0.3011  -0.3011  -0.3011  -0.2279  -0.2279  -0.2279
    -0.1761  -0.1761  -0.1334  -0.1334  -0.1069  -0.1069  -0.0783  -0.0783
    -0.0783  -0.0773  -0.0773  -0.0767  -0.0767  -0.0767  -0.0716  -0.0716
    -0.0716  -0.0643  -0.0643  -0.0643  -0.0464  -0.0464  -0.0464  -0.0272
    -0.0272  -0.0272  -0.0047  -0.0047  -0.0047   0.0064   0.0064   0.0064
     0.5326   0.7378   0.7378   0.7378   0.7792   0.7792   0.7792   0.9078
     0.9078   0.9078   1.2110   1.2110   1.2110   1.6613   2.1094   2.1094
     2.1094   2.3555   2.7069   2.7069   2.7069   2.9043   2.9043   2.9043
     3.0177   3.0177   3.0177   3.2235   3.2235   3.2235   3.2281   3.2281
     3.2281   3.2381   3.2381   3.2381   3.5344   3.5344   3.5344   3.6882
     3.6882   3.8147   3.8586   3.8586   3.9821   3.9821   4.1492   4.1492

     occupation numbers 
     1.0000   1.0000   1.0000   1.0000   1.0000   1.0000   1.0000   1.0000
     1.0000   1.0000   1.0000   1.0000   1.0000   1.0000   1.0000   1.0000
     1.0000   1.0000   1.0000   1.0000   1.0000   1.0000   1.0000   1.0000
     1.0000   1.0000   1.0000   1.0000   1.0000   1.0000   1.0000   1.0000
     1.0000   1.0000   1.0000   1.0000   1.0000   1.0000   1.0000   1.0000
     1.0000   1.0000   1.0000   1.0000   1.0000   1.0000   1.0000   1.0000
     1.0000   1.0000   1.0000   1.0000   1.0000   1.0000   1.0000   1.0000
     1.0000   1.0000   1.0000   1.0000   1.0000   1.0000   1.0000   1.0000
     1.0000   1.0000   1.0000   1.0000   1.0000   1.0000   1.0000   1.0000
     1.0000   1.0000   1.0000   1.0000   1.0000   1.0000   1.0000   1.0000
     1.0000   1.0000   1.0000   1.0000   1.0000   1.0000   1.0000   1.0000
     1.0000   1.0000   1.0000   1.0000   1.0000   1.0000   1.0000   1.0000
     1.0000   1.0000   1.0000   1.0000   1.0000   1.0000   1.0000   1.0000
     1.0000   1.0000   1.0000   1.0000   1.0000   1.0000   1.0000   1.0000
     1.0000   1.0000   1.0000   1.0000   1.0000   1.0000   1.0000   1.0000
     1.0000   1.0000   1.0000   1.0000   1.0000   1.0000   1.0000   1.0000
     1.0000   1.0000   1.0000   1.0000   1.0000   1.0000   1.0000   1.0000
     1.0000   1.0000   1.0000   1.0000   1.0000   1.0000   1.0000   1.0000

          k = 0.0000 0.0000 0.1985 ( 19508 PWs)   bands (ev):

   -12.3445 -12.2772 -12.0888 -12.0182 -11.9508 -11.9508 -11.9508 -11.9285
   -11.9285 -11.9285 -11.8709 -11.8709 -11.8709 -11.8511 -11.8511 -11.8511
    -0.8323  -0.8323  -0.8323  -0.8171  -0.8171  -0.8171  -0.7911  -0.7911
    -0.7832  -0.7765  -0.7765  -0.7722  -0.7374  -0.7374  -0.7374  -0.7242
    -0.7242  -0.7000  -0.7000  -0.6410  -0.6319  -0.6319  -0.6319  -0.6091
    -0.6091  -0.6091  -0.5612  -0.5612  -0.5612  -0.4278  -0.4168  -0.4168
    -0.4168  -0.3779  -0.3779  -0.3779  -0.3611  -0.3611  -0.3611  -0.3590
    -0.3590  -0.3590  -0.2745  -0.2745  -0.2745  -0.2334  -0.2334  -0.2334
    -0.1697  -0.1697  -0.1472  -0.1472  -0.0955  -0.0955  -0.0810  -0.0810
    -0.0775  -0.0775  -0.0775  -0.0742  -0.0742  -0.0742  -0.0717  -0.0717
    -0.0717  -0.0597  -0.0597  -0.0597  -0.0500  -0.0500  -0.0500  -0.0432
    -0.0432  -0.0432   0.0013   0.0013   0.0013   0.0060   0.0060   0.0060
     0.7260   0.7260   0.7260   0.7413   0.7413   0.7413   0.7477   0.9902
     0.9902   0.9902   1.1543   1.1543   1.1543   1.3321   2.2534   2.2534
     2.2534   2.6835   2.6835   2.6835   2.7146   2.7518   2.7518   2.7518
     2.9133   2.9133   2.9133   3.2660   3.2660   3.2660   3.2902   3.2902
     3.2902   3.3396   3.3396   3.3396   3.4515   3.4927   3.4927   3.4927
     3.7124   3.7124   3.8007   3.8007   4.0393   4.0393   4.1257   4.1257

     occupation numbers 
     1.0000   1.0000   1.0000   1.0000   1.0000   1.0000   1.0000   1.0000
     1.0000   1.0000   1.0000   1.0000   1.0000   1.0000   1.0000   1.0000
     1.0000   1.0000   1.0000   1.0000   1.0000   1.0000   1.0000   1.0000
     1.0000   1.0000   1.0000   1.0000   1.0000   1.0000   1.0000   1.0000
     1.0000   1.0000   1.0000   1.0000   1.0000   1.0000   1.0000   1.0000
     1.0000   1.0000   1.0000   1.0000   1.0000   1.0000   1.0000   1.0000
     1.0000   1.0000   1.0000   1.0000   1.0000   1.0000   1.0000   1.0000
     1.0000   1.0000   1.0000   1.0000   1.0000   1.0000   1.0000   1.0000
     1.0000   1.0000   1.0000   1.0000   1.0000   1.0000   1.0000   1.0000
     1.0000   1.0000   1.0000   1.0000   1.0000   1.0000   1.0000   1.0000
     1.0000   1.0000   1.0000   1.0000   1.0000   1.0000   1.0000   1.0000
     1.0000   1.0000   1.0000   1.0000   1.0000   1.0000   1.0000   1.0000
     1.0000   1.0000   1.0000   1.0000   1.0000   1.0000   1.0000   1.0000
     1.0000   1.0000   1.0000   1.0000   1.0000   1.0000   1.0000   1.0000
     1.0000   1.0000   1.0000   1.0000   1.0000   1.0000   1.0000   1.0000
     1.0000   1.0000   1.0000   1.0000   1.0000   1.0000   1.0000   1.0000
     1.0000   1.0000   1.0000   1.0000   1.0000   1.0000   1.0000   1.0000
     1.0000   1.0000   1.0000   1.0000   1.0000   1.0000   1.0000   1.0000

          k = 0.0000 0.0000-0.2978 ( 19526 PWs)   bands (ev):

   -12.3154 -12.3154 -12.0490 -12.0490 -11.9411 -11.9411 -11.9411 -11.9410
   -11.9410 -11.9410 -11.8596 -11.8596 -11.8596 -11.8596 -11.8596 -11.8596
    -0.8265  -0.8265  -0.8265  -0.8265  -0.8265  -0.8265  -0.7851  -0.7851
    -0.7851  -0.7851  -0.7798  -0.7798  -0.7109  -0.7109  -0.7108  -0.7108
    -0.6844  -0.6844  -0.6844  -0.6844  -0.6844  -0.6844  -0.5886  -0.5886
    -0.5886  -0.5886  -0.5886  -0.5886  -0.5451  -0.5451  -0.3843  -0.3843
    -0.3843  -0.3843  -0.3843  -0.3843  -0.3715  -0.3715  -0.3715  -0.3715
    -0.3715  -0.3715  -0.2499  -0.2499  -0.2499  -0.2499  -0.2499  -0.2499
    -0.1597  -0.1597  -0.1597  -0.1597  -0.0868  -0.0868  -0.0868  -0.0868
    -0.0761  -0.0761  -0.0761  -0.0761  -0.0761  -0.0761  -0.0597  -0.0597
    -0.0597  -0.0597  -0.0597  -0.0597  -0.0547  -0.0547  -0.0547  -0.0547
    -0.0547  -0.0547   0.0045   0.0045   0.0045   0.0045   0.0045   0.0045
     0.7241   0.7241   0.7241   0.7241   0.7241   0.7241   1.0234   1.0234
     1.0759   1.0759   1.0759   1.0759   1.0759   1.0759   2.4562   2.4562
     2.4562   2.4562   2.4562   2.4562   2.8224   2.8224   2.8224   2.8224
     2.8224   2.8224   3.0805   3.0805   3.2971   3.2971   3.2971   3.2971
     3.2971   3.2971   3.4263   3.4263   3.4263   3.4263   3.4263   3.4263
     3.7508   3.7508   3.7508   3.7508   4.0882   4.0882   4.0882   4.0882

     occupation numbers 
     1.0000   1.0000   1.0000   1.0000   1.0000   1.0000   1.0000   1.0000
     1.0000   1.0000   1.0000   1.0000   1.0000   1.0000   1.0000   1.0000
     1.0000   1.0000   1.0000   1.0000   1.0000   1.0000   1.0000   1.0000
     1.0000   1.0000   1.0000   1.0000   1.0000   1.0000   1.0000   1.0000
     1.0000   1.0000   1.0000   1.0000   1.0000   1.0000   1.0000   1.0000
     1.0000   1.0000   1.0000   1.0000   1.0000   1.0000   1.0000   1.0000
     1.0000   1.0000   1.0000   1.0000   1.0000   1.0000   1.0000   1.0000
     1.0000   1.0000   1.0000   1.0000   1.0000   1.0000   1.0000   1.0000
     1.0000   1.0000   1.0000   1.0000   1.0000   1.0000   1.0000   1.0000
     1.0000   1.0000   1.0000   1.0000   1.0000   1.0000   1.0000   1.0000
     1.0000   1.0000   1.0000   1.0000   1.0000   1.0000   1.0000   1.0000
     1.0000   1.0000   1.0000   1.0000   1.0000   1.0000   1.0000   1.0000
     1.0000   1.0000   1.0000   1.0000   1.0000   1.0000   1.0000   1.0000
     1.0000   1.0000   1.0000   1.0000   1.0000   1.0000   1.0000   1.0000
     1.0000   1.0000   1.0000   1.0000   1.0000   1.0000   1.0000   1.0000
     1.0000   1.0000   1.0000   1.0000   1.0000   1.0000   1.0000   1.0000
     1.0000   1.0000   1.0000   1.0000   1.0000   1.0000   1.0000   1.0000
     1.0000   1.0000   1.0000   1.0000   1.0000   1.0000   1.0000   1.0000

          k = 0.0000 0.1925 0.0000 ( 19519 PWs)   bands (ev):

   -12.3450 -12.1654 -12.1653 -11.9948 -11.9798 -11.9603 -11.9603 -11.9188
   -11.9188 -11.8995 -11.8995 -11.8995 -11.8995 -11.8468 -11.8433 -11.8433
    -0.8187  -0.8187  -0.8153  -0.8091  -0.7932  -0.7932  -0.7910  -0.7910
    -0.7900  -0.7900  -0.7900  -0.7900  -0.7806  -0.7464  -0.7344  -0.7344
    -0.7084  -0.7084  -0.6856  -0.6692  -0.6320  -0.6282  -0.6282  -0.6190
    -0.5528  -0.5528  -0.5062  -0.5062  -0.4994  -0.4994  -0.4994  -0.4994
    -0.3739  -0.3739  -0.3659  -0.3627  -0.3576  -0.3576  -0.3448  -0.3448
    -0.3428  -0.3428  -0.3428  -0.3428  -0.2923  -0.2657  -0.2595  -0.2595
    -0.1869  -0.1796  -0.1491  -0.1297  -0.1297  -0.1203  -0.1203  -0.1196
    -0.1196  -0.0963  -0.0963  -0.0961  -0.0846  -0.0846  -0.0846  -0.0846
    -0.0787  -0.0787  -0.0747  -0.0499  -0.0495  -0.0494  -0.0385  -0.0309
    -0.0309  -0.0028  -0.0028  -0.0028  -0.0028   0.0496   0.0496   0.0734
     0.4795   0.8046   0.8046   0.8824   0.9007   0.9007   0.9007   0.9007
     1.0088   1.0088   1.2659   1.2659   1.3062   2.0008   2.0008   2.0178
     2.0534   2.0534   2.5876   2.5876   2.7605   2.9334   2.9334   2.9334
     2.9334   3.0767   3.0767   3.1747   3.1747   3.1747   3.1747   3.1836
     3.1836   3.2117   3.2117   3.3311   3.4456   3.4591   3.4591   3.5920
     3.6137   3.6179   3.7501   3.7501   3.8684   3.8684   4.0337   4.1193

     occupation numbers 
     1.0000   1.0000   1.0000   1.0000   1.0000   1.0000   1.0000   1.0000
     1.0000   1.0000   1.0000   1.0000   1.0000   1.0000   1.0000   1.0000
     1.0000   1.0000   1.0000   1.0000   1.0000   1.0000   1.0000   1.0000
     1.0000   1.0000   1.0000   1.0000   1.0000   1.0000   1.0000   1.0000
     1.0000   1.0000   1.0000   1.0000   1.0000   1.0000   1.0000   1.0000
     1.0000   1.0000   1.0000   1.0000   1.0000   1.0000   1.0000   1.0000
     1.0000   1.0000   1.0000   1.0000   1.0000   1.0000   1.0000   1.0000
     1.0000   1.0000   1.0000   1.0000   1.0000   1.0000   1.0000   1.0000
     1.0000   1.0000   1.0000   1.0000   1.0000   1.0000   1.0000   1.0000
     1.0000   1.0000   1.0000   1.0000   1.0000   1.0000   1.0000   1.0000
     1.0000   1.0000   1.0000   1.0000   1.0000   1.0000   1.0000   1.0000
     1.0000   1.0000   1.0000   1.0000   1.0000   1.0000   1.0000   1.0000
     1.0000   1.0000   1.0000   1.0000   1.0000   1.0000   1.0000   1.0000
     1.0000   1.0000   1.0000   1.0000   1.0000   1.0000   1.0000   1.0000
     1.0000   1.0000   1.0000   1.0000   1.0000   1.0000   1.0000   1.0000
     1.0000   1.0000   1.0000   1.0000   1.0000   1.0000   1.0000   1.0000
     1.0000   1.0000   1.0000   1.0000   1.0000   1.0000   1.0000   1.0000
     1.0000   1.0000   1.0000   1.0000   1.0000   1.0000   1.0000   1.0000

          k = 0.0000 0.1925 0.0993 ( 19515 PWs)   bands (ev):

   -12.3390 -12.2124 -12.1179 -11.9922 -11.9862 -11.9581 -11.9581 -11.9381
   -11.9148 -11.9148 -11.8998 -11.8845 -11.8845 -11.8492 -11.8452 -11.8452
    -0.8352  -0.8181  -0.8097  -0.8082  -0.8072  -0.8072  -0.7953  -0.7953
    -0.7885  -0.7793  -0.7649  -0.7580  -0.7580  -0.7480  -0.7475  -0.7265
    -0.7195  -0.6886  -0.6761  -0.6720  -0.6295  -0.6279  -0.6253  -0.6253
    -0.5671  -0.5671  -0.5404  -0.5372  -0.5372  -0.4707  -0.4592  -0.4592
    -0.3798  -0.3678  -0.3673  -0.3626  -0.3588  -0.3588  -0.3528  -0.3528
    -0.3491  -0.3491  -0.3285  -0.3285  -0.3132  -0.2971  -0.2624  -0.2624
    -0.1844  -0.1773  -0.1459  -0.1356  -0.1343  -0.1268  -0.1268  -0.1070
    -0.1045  -0.0956  -0.0951  -0.0951  -0.0889  -0.0889  -0.0839  -0.0829
    -0.0829  -0.0761  -0.0744  -0.0729  -0.0512  -0.0508  -0.0311  -0.0311
    -0.0238  -0.0153  -0.0153   0.0103   0.0103   0.0477   0.0477   0.0672
     0.5702   0.7972   0.7972   0.8430   0.8430   0.8730   0.9434   0.9719
     0.9719   1.0844   1.2495   1.2495   1.3055   1.6749   2.0618   2.1012
     2.1012   2.3288   2.6062   2.6062   2.7753   2.7816   2.7816   2.8665
     3.0168   3.0168   3.0761   3.0788   3.0788   3.2263   3.2263   3.2369
     3.2839   3.2839   3.2901   3.3420   3.4352   3.4453   3.4453   3.5398
     3.5782   3.6224   3.6754   3.8028   3.8254   3.9337   4.0269   4.1108

     occupation numbers 
     1.0000   1.0000   1.0000   1.0000   1.0000   1.0000   1.0000   1.0000
     1.0000   1.0000   1.0000   1.0000   1.0000   1.0000   1.0000   1.0000
     1.0000   1.0000   1.0000   1.0000   1.0000   1.0000   1.0000   1.0000
     1.0000   1.0000   1.0000   1.0000   1.0000   1.0000   1.0000   1.0000
     1.0000   1.0000   1.0000   1.0000   1.0000   1.0000   1.0000   1.0000
     1.0000   1.0000   1.0000   1.0000   1.0000   1.0000   1.0000   1.0000
     1.0000   1.0000   1.0000   1.0000   1.0000   1.0000   1.0000   1.0000
     1.0000   1.0000   1.0000   1.0000   1.0000   1.0000   1.0000   1.0000
     1.0000   1.0000   1.0000   1.0000   1.0000   1.0000   1.0000   1.0000
     1.0000   1.0000   1.0000   1.0000   1.0000   1.0000   1.0000   1.0000
     1.0000   1.0000   1.0000   1.0000   1.0000   1.0000   1.0000   1.0000
     1.0000   1.0000   1.0000   1.0000   1.0000   1.0000   1.0000   1.0000
     1.0000   1.0000   1.0000   1.0000   1.0000   1.0000   1.0000   1.0000
     1.0000   1.0000   1.0000   1.0000   1.0000   1.0000   1.0000   1.0000
     1.0000   1.0000   1.0000   1.0000   1.0000   1.0000   1.0000   1.0000
     1.0000   1.0000   1.0000   1.0000   1.0000   1.0000   1.0000   1.0000
     1.0000   1.0000   1.0000   1.0000   1.0000   1.0000   1.0000   1.0000
     1.0000   1.0000   1.0000   1.0000   1.0000   1.0000   1.0000   1.0000

          k = 0.0000 0.1925 0.1985 ( 19525 PWs)   bands (ev):

   -12.3213 -12.2559 -12.0733 -12.0050 -11.9844 -11.9564 -11.9519 -11.9519
   -11.9293 -11.9293 -11.8823 -11.8708 -11.8708 -11.8562 -11.8506 -11.8506
    -0.8389  -0.8255  -0.8146  -0.8117  -0.8116  -0.8116  -0.8009  -0.8009
    -0.7754  -0.7597  -0.7491  -0.7470  -0.7467  -0.7286  -0.7128  -0.7128
    -0.7044  -0.6973  -0.6793  -0.6588  -0.6196  -0.6196  -0.6187  -0.6160
    -0.6017  -0.6017  -0.5712  -0.5700  -0.5700  -0.4365  -0.4207  -0.4207
    -0.4196  -0.3827  -0.3804  -0.3715  -0.3657  -0.3657  -0.3586  -0.3586
    -0.3581  -0.3581  -0.3470  -0.3108  -0.3108  -0.3104  -0.2732  -0.2732
    -0.1770  -0.1709  -0.1513  -0.1483  -0.1360  -0.1183  -0.1183  -0.0982
    -0.0959  -0.0959  -0.0956  -0.0940  -0.0919  -0.0919  -0.0910  -0.0882
    -0.0843  -0.0843  -0.0799  -0.0667  -0.0665  -0.0550  -0.0313  -0.0313
    -0.0250  -0.0250   0.0021   0.0226   0.0226   0.0422   0.0422   0.0506
     0.7837   0.7848   0.7848   0.8031   0.8031   0.8603   0.8938   1.0513
     1.0513   1.1633   1.2019   1.2019   1.2860   1.3570   2.1928   2.2316
     2.2316   2.6055   2.6055   2.6290   2.6542   2.6612   2.6612   2.8187
     2.8757   2.8757   2.9749   3.1821   3.1821   3.2553   3.2553   3.2584
     3.3342   3.3437   3.3437   3.3639   3.3887   3.4085   3.4085   3.5098
     3.5377   3.6067   3.6480   3.7415   3.8959   3.9943   4.0013   4.0859

     occupation numbers 
     1.0000   1.0000   1.0000   1.0000   1.0000   1.0000   1.0000   1.0000
     1.0000   1.0000   1.0000   1.0000   1.0000   1.0000   1.0000   1.0000
     1.0000   1.0000   1.0000   1.0000   1.0000   1.0000   1.0000   1.0000
     1.0000   1.0000   1.0000   1.0000   1.0000   1.0000   1.0000   1.0000
     1.0000   1.0000   1.0000   1.0000   1.0000   1.0000   1.0000   1.0000
     1.0000   1.0000   1.0000   1.0000   1.0000   1.0000   1.0000   1.0000
     1.0000   1.0000   1.0000   1.0000   1.0000   1.0000   1.0000   1.0000
     1.0000   1.0000   1.0000   1.0000   1.0000   1.0000   1.0000   1.0000
     1.0000   1.0000   1.0000   1.0000   1.0000   1.0000   1.0000   1.0000
     1.0000   1.0000   1.0000   1.0000   1.0000   1.0000   1.0000   1.0000
     1.0000   1.0000   1.0000   1.0000   1.0000   1.0000   1.0000   1.0000
     1.0000   1.0000   1.0000   1.0000   1.0000   1.0000   1.0000   1.0000
     1.0000   1.0000   1.0000   1.0000   1.0000   1.0000   1.0000   1.0000
     1.0000   1.0000   1.0000   1.0000   1.0000   1.0000   1.0000   1.0000
     1.0000   1.0000   1.0000   1.0000   1.0000   1.0000   1.0000   1.0000
     1.0000   1.0000   1.0000   1.0000   1.0000   1.0000   1.0000   1.0000
     1.0000   1.0000   1.0000   1.0000   1.0000   1.0000   1.0000   1.0000
     1.0000   1.0000   1.0000   1.0000   1.0000   1.0000   1.0000   1.0000

          k = 0.0000 0.1925-0.2978 ( 19526 PWs)   bands (ev):

   -12.2930 -12.2930 -12.0348 -12.0348 -11.9722 -11.9722 -11.9420 -11.9420
   -11.9420 -11.9420 -11.8675 -11.8674 -11.8593 -11.8593 -11.8593 -11.8593
    -0.8341  -0.8341  -0.8142  -0.8142  -0.8077  -0.8077  -0.8077  -0.8077
    -0.7688  -0.7688  -0.7484  -0.7484  -0.7115  -0.7115  -0.7008  -0.7008
    -0.6905  -0.6905  -0.6601  -0.6601  -0.6601  -0.6601  -0.5969  -0.5969
    -0.5951  -0.5951  -0.5951  -0.5951  -0.5302  -0.5302  -0.4063  -0.4063
    -0.3882  -0.3882  -0.3882  -0.3882  -0.3768  -0.3768  -0.3603  -0.3603
    -0.3603  -0.3603  -0.3286  -0.3286  -0.2910  -0.2910  -0.2910  -0.2910
    -0.1655  -0.1655  -0.1608  -0.1608  -0.1194  -0.1194  -0.1065  -0.1065
    -0.1065  -0.1065  -0.0917  -0.0917  -0.0879  -0.0879  -0.0879  -0.0879
    -0.0862  -0.0862  -0.0789  -0.0789  -0.0605  -0.0605  -0.0300  -0.0300
    -0.0300  -0.0300   0.0275   0.0275   0.0335   0.0335   0.0335   0.0335
     0.7838   0.7838   0.7838   0.7838   0.8652   0.8652   1.0554   1.0554
     1.1316   1.1316   1.1316   1.1316   1.2351   1.2351   2.3931   2.3931
     2.4125   2.4125   2.4125   2.4125   2.7517   2.7517   2.7517   2.7517
     2.8869   2.8869   2.9699   2.9699   3.2528   3.2528   3.2528   3.2528
     3.3707   3.3707   3.3707   3.3707   3.3707   3.3707   3.4731   3.4731
     3.5491   3.5491   3.6887   3.6887   3.9563   3.9563   4.0462   4.0462

     occupation numbers 
     1.0000   1.0000   1.0000   1.0000   1.0000   1.0000   1.0000   1.0000
     1.0000   1.0000   1.0000   1.0000   1.0000   1.0000   1.0000   1.0000
     1.0000   1.0000   1.0000   1.0000   1.0000   1.0000   1.0000   1.0000
     1.0000   1.0000   1.0000   1.0000   1.0000   1.0000   1.0000   1.0000
     1.0000   1.0000   1.0000   1.0000   1.0000   1.0000   1.0000   1.0000
     1.0000   1.0000   1.0000   1.0000   1.0000   1.0000   1.0000   1.0000
     1.0000   1.0000   1.0000   1.0000   1.0000   1.0000   1.0000   1.0000
     1.0000   1.0000   1.0000   1.0000   1.0000   1.0000   1.0000   1.0000
     1.0000   1.0000   1.0000   1.0000   1.0000   1.0000   1.0000   1.0000
     1.0000   1.0000   1.0000   1.0000   1.0000   1.0000   1.0000   1.0000
     1.0000   1.0000   1.0000   1.0000   1.0000   1.0000   1.0000   1.0000
     1.0000   1.0000   1.0000   1.0000   1.0000   1.0000   1.0000   1.0000
     1.0000   1.0000   1.0000   1.0000   1.0000   1.0000   1.0000   1.0000
     1.0000   1.0000   1.0000   1.0000   1.0000   1.0000   1.0000   1.0000
     1.0000   1.0000   1.0000   1.0000   1.0000   1.0000   1.0000   1.0000
     1.0000   1.0000   1.0000   1.0000   1.0000   1.0000   1.0000   1.0000
     1.0000   1.0000   1.0000   1.0000   1.0000   1.0000   1.0000   1.0000
     1.0000   1.0000   1.0000   1.0000   1.0000   1.0000   1.0000   1.0000

          k = 0.0000 0.3849 0.0000 ( 19506 PWs)   bands (ev):

   -12.2784 -12.1144 -12.1144 -12.0799 -11.9722 -11.9721 -11.9627 -11.9627
   -11.9467 -11.9001 -11.9001 -11.9001 -11.9001 -11.8663 -11.8421 -11.8421
    -0.8384  -0.8346  -0.8296  -0.8296  -0.8194  -0.8194  -0.7674  -0.7674
    -0.7401  -0.7342  -0.7342  -0.7342  -0.7342  -0.7187  -0.6839  -0.6839
    -0.6739  -0.6551  -0.6527  -0.6513  -0.6513  -0.6147  -0.6147  -0.6099
    -0.5499  -0.5499  -0.5131  -0.5131  -0.5130  -0.5130  -0.5005  -0.5005
    -0.4786  -0.4786  -0.4599  -0.4321  -0.3927  -0.3927  -0.3927  -0.3927
    -0.3915  -0.3915  -0.3218  -0.3218  -0.2931  -0.2929  -0.2929  -0.2762
    -0.2100  -0.2022  -0.1822  -0.1822  -0.1784  -0.1335  -0.1289  -0.1289
    -0.1203  -0.1203  -0.1177  -0.1177  -0.1015  -0.1015  -0.1015  -0.1015
    -0.0995  -0.0995  -0.0894  -0.0894  -0.0715  -0.0592  -0.0261  -0.0261
     0.0122   0.0122   0.0122   0.0122   0.0256   0.0816   0.1003   0.1003
     0.6068   0.9476   0.9476   1.0208   1.0479   1.0479   1.0479   1.0479
     1.3424   1.3424   1.3834   1.3834   1.5483   1.9519   1.9519   2.0536
     2.0536   2.1643   2.3441   2.3441   2.6783   2.6783   2.6784   2.6784
     2.8141   2.9449   3.0609   3.0609   3.0926   3.1911   3.1911   3.1911
     3.1911   3.1957   3.1957   3.3015   3.3015   3.3318   3.3318   3.3986
     3.3986   3.4343   3.5661   3.7086   3.7260   3.7260   3.9410   4.0132

     occupation numbers 
     1.0000   1.0000   1.0000   1.0000   1.0000   1.0000   1.0000   1.0000
     1.0000   1.0000   1.0000   1.0000   1.0000   1.0000   1.0000   1.0000
     1.0000   1.0000   1.0000   1.0000   1.0000   1.0000   1.0000   1.0000
     1.0000   1.0000   1.0000   1.0000   1.0000   1.0000   1.0000   1.0000
     1.0000   1.0000   1.0000   1.0000   1.0000   1.0000   1.0000   1.0000
     1.0000   1.0000   1.0000   1.0000   1.0000   1.0000   1.0000   1.0000
     1.0000   1.0000   1.0000   1.0000   1.0000   1.0000   1.0000   1.0000
     1.0000   1.0000   1.0000   1.0000   1.0000   1.0000   1.0000   1.0000
     1.0000   1.0000   1.0000   1.0000   1.0000   1.0000   1.0000   1.0000
     1.0000   1.0000   1.0000   1.0000   1.0000   1.0000   1.0000   1.0000
     1.0000   1.0000   1.0000   1.0000   1.0000   1.0000   1.0000   1.0000
     1.0000   1.0000   1.0000   1.0000   1.0000   1.0000   1.0000   1.0000
     1.0000   1.0000   1.0000   1.0000   1.0000   1.0000   1.0000   1.0000
     1.0000   1.0000   1.0000   1.0000   1.0000   1.0000   1.0000   1.0000
     1.0000   1.0000   1.0000   1.0000   1.0000   1.0000   1.0000   1.0000
     1.0000   1.0000   1.0000   1.0000   1.0000   1.0000   1.0000   1.0000
     1.0000   1.0000   1.0000   1.0000   1.0000   1.0000   1.0000   1.0000
     1.0000   1.0000   1.0000   1.0000   1.0000   1.0000   1.0000   1.0000

          k = 0.0000 0.3849 0.0993 ( 19504 PWs)   bands (ev):

   -12.2728 -12.1572 -12.0762 -12.0714 -11.9999 -11.9605 -11.9605 -11.9525
   -11.9445 -11.9159 -11.9159 -11.8846 -11.8846 -11.8699 -11.8440 -11.8440
    -0.8478  -0.8404  -0.8375  -0.8360  -0.7997  -0.7908  -0.7663  -0.7663
    -0.7510  -0.7510  -0.7383  -0.7205  -0.7057  -0.7057  -0.7001  -0.6800
    -0.6687  -0.6666  -0.6578  -0.6494  -0.6207  -0.6170  -0.6170  -0.6127
    -0.5779  -0.5470  -0.5470  -0.5208  -0.5118  -0.5118  -0.4840  -0.4716
    -0.4716  -0.4624  -0.4619  -0.4362  -0.3978  -0.3978  -0.3931  -0.3931
    -0.3826  -0.3826  -0.3271  -0.3271  -0.3109  -0.3038  -0.3001  -0.3001
    -0.2058  -0.2022  -0.1833  -0.1833  -0.1762  -0.1391  -0.1345  -0.1323
    -0.1216  -0.1216  -0.1202  -0.1142  -0.1142  -0.1087  -0.1067  -0.0969
    -0.0953  -0.0953  -0.0900  -0.0728  -0.0606  -0.0581  -0.0260  -0.0260
    -0.0044  -0.0044   0.0030   0.0321   0.0321   0.0688   0.0969   0.0969
     0.6906   0.9407   0.9407   0.9933   0.9933   1.0380   1.1127   1.1127
     1.2968   1.3334   1.3334   1.4707   1.5696   1.6859   2.0852   2.0852
     2.1750   2.2015   2.3751   2.3751   2.5403   2.5403   2.8036   2.8036
     2.8041   2.8239   2.9584   3.0428   3.0428   3.0764   3.1896   3.1896
     3.2330   3.2644   3.2753   3.2993   3.2993   3.3052   3.3052   3.4299
     3.4444   3.5295   3.5651   3.6510   3.6959   3.8007   3.9206   4.0035

     occupation numbers 
     1.0000   1.0000   1.0000   1.0000   1.0000   1.0000   1.0000   1.0000
     1.0000   1.0000   1.0000   1.0000   1.0000   1.0000   1.0000   1.0000
     1.0000   1.0000   1.0000   1.0000   1.0000   1.0000   1.0000   1.0000
     1.0000   1.0000   1.0000   1.0000   1.0000   1.0000   1.0000   1.0000
     1.0000   1.0000   1.0000   1.0000   1.0000   1.0000   1.0000   1.0000
     1.0000   1.0000   1.0000   1.0000   1.0000   1.0000   1.0000   1.0000
     1.0000   1.0000   1.0000   1.0000   1.0000   1.0000   1.0000   1.0000
     1.0000   1.0000   1.0000   1.0000   1.0000   1.0000   1.0000   1.0000
     1.0000   1.0000   1.0000   1.0000   1.0000   1.0000   1.0000   1.0000
     1.0000   1.0000   1.0000   1.0000   1.0000   1.0000   1.0000   1.0000
     1.0000   1.0000   1.0000   1.0000   1.0000   1.0000   1.0000   1.0000
     1.0000   1.0000   1.0000   1.0000   1.0000   1.0000   1.0000   1.0000
     1.0000   1.0000   1.0000   1.0000   1.0000   1.0000   1.0000   1.0000
     1.0000   1.0000   1.0000   1.0000   1.0000   1.0000   1.0000   1.0000
     1.0000   1.0000   1.0000   1.0000   1.0000   1.0000   1.0000   1.0000
     1.0000   1.0000   1.0000   1.0000   1.0000   1.0000   1.0000   1.0000
     1.0000   1.0000   1.0000   1.0000   1.0000   1.0000   1.0000   1.0000
     1.0000   1.0000   1.0000   1.0000   1.0000   1.0000   1.0000   1.0000

          k = 0.0000 0.3849 0.1985 ( 19497 PWs)   bands (ev):

   -12.2566 -12.1969 -12.0653 -12.0310 -12.0258 -11.9694 -11.9540 -11.9540
   -11.9308 -11.9308 -11.9189 -11.8804 -11.8705 -11.8705 -11.8496 -11.8496
    -0.8542  -0.8460  -0.8445  -0.8397  -0.7636  -0.7636  -0.7628  -0.7597
    -0.7581  -0.7581  -0.7335  -0.7259  -0.7142  -0.6980  -0.6759  -0.6694
    -0.6694  -0.6650  -0.6494  -0.6396  -0.6235  -0.6235  -0.6209  -0.6030
    -0.5697  -0.5675  -0.5675  -0.5393  -0.5393  -0.4928  -0.4818  -0.4678
    -0.4487  -0.4323  -0.4290  -0.4290  -0.3974  -0.3974  -0.3962  -0.3959
    -0.3959  -0.3679  -0.3679  -0.3438  -0.3438  -0.3391  -0.3227  -0.3227
    -0.1951  -0.1947  -0.1749  -0.1749  -0.1701  -0.1601  -0.1497  -0.1484
    -0.1330  -0.1330  -0.1290  -0.1169  -0.1089  -0.1089  -0.0947  -0.0947
    -0.0947  -0.0806  -0.0772  -0.0768  -0.0652  -0.0307  -0.0265  -0.0252
    -0.0252  -0.0158  -0.0158   0.0393   0.0528   0.0528   0.0871   0.0871
     0.8896   0.9303   0.9303   0.9535   0.9535   1.0824   1.1823   1.1823
     1.2158   1.3023   1.3023   1.4116   1.5491   1.6048   2.1683   2.1683
     2.2306   2.4052   2.4052   2.4272   2.4702   2.4702   2.5810   2.7488
     2.7942   2.7942   2.9889   2.9889   2.9977   3.0607   3.1403   3.1524
     3.1524   3.1698   3.3264   3.3264   3.3510   3.3510   3.4163   3.4737
     3.5209   3.5533   3.5808   3.6574   3.6584   3.8619   3.8700   3.9749

     occupation numbers 
     1.0000   1.0000   1.0000   1.0000   1.0000   1.0000   1.0000   1.0000
     1.0000   1.0000   1.0000   1.0000   1.0000   1.0000   1.0000   1.0000
     1.0000   1.0000   1.0000   1.0000   1.0000   1.0000   1.0000   1.0000
     1.0000   1.0000   1.0000   1.0000   1.0000   1.0000   1.0000   1.0000
     1.0000   1.0000   1.0000   1.0000   1.0000   1.0000   1.0000   1.0000
     1.0000   1.0000   1.0000   1.0000   1.0000   1.0000   1.0000   1.0000
     1.0000   1.0000   1.0000   1.0000   1.0000   1.0000   1.0000   1.0000
     1.0000   1.0000   1.0000   1.0000   1.0000   1.0000   1.0000   1.0000
     1.0000   1.0000   1.0000   1.0000   1.0000   1.0000   1.0000   1.0000
     1.0000   1.0000   1.0000   1.0000   1.0000   1.0000   1.0000   1.0000
     1.0000   1.0000   1.0000   1.0000   1.0000   1.0000   1.0000   1.0000
     1.0000   1.0000   1.0000   1.0000   1.0000   1.0000   1.0000   1.0000
     1.0000   1.0000   1.0000   1.0000   1.0000   1.0000   1.0000   1.0000
     1.0000   1.0000   1.0000   1.0000   1.0000   1.0000   1.0000   1.0000
     1.0000   1.0000   1.0000   1.0000   1.0000   1.0000   1.0000   1.0000
     1.0000   1.0000   1.0000   1.0000   1.0000   1.0000   1.0000   1.0000
     1.0000   1.0000   1.0000   1.0000   1.0000   1.0000   1.0000   1.0000
     1.0000   1.0000   1.0000   1.0000   1.0000   1.0000   1.0000   1.0000

          k = 0.0000 0.3849-0.2978 ( 19490 PWs)   bands (ev):

   -12.2308 -12.2308 -12.0481 -12.0481 -11.9962 -11.9962 -11.9439 -11.9439
   -11.9439 -11.9439 -11.8971 -11.8971 -11.8586 -11.8586 -11.8586 -11.8586
    -0.8519  -0.8519  -0.8438  -0.8438  -0.7610  -0.7610  -0.7609  -0.7609
    -0.7374  -0.7374  -0.7266  -0.7266  -0.7254  -0.7254  -0.6733  -0.6733
    -0.6383  -0.6383  -0.6383  -0.6383  -0.6337  -0.6337  -0.6239  -0.6239
    -0.5652  -0.5652  -0.5652  -0.5652  -0.4922  -0.4922  -0.4752  -0.4752
    -0.4680  -0.4680  -0.4046  -0.4046  -0.4046  -0.4046  -0.3882  -0.3882
    -0.3737  -0.3737  -0.3737  -0.3737  -0.3483  -0.3483  -0.3483  -0.3483
    -0.1795  -0.1795  -0.1757  -0.1757  -0.1606  -0.1606  -0.1553  -0.1553
    -0.1553  -0.1553  -0.1238  -0.1238  -0.0993  -0.0993  -0.0993  -0.0993
    -0.0847  -0.0847  -0.0720  -0.0720  -0.0560  -0.0560  -0.0223  -0.0223
    -0.0223  -0.0223   0.0060   0.0061   0.0718   0.0718   0.0718   0.0718
     0.9322   0.9322   0.9322   0.9322   1.1404   1.1404   1.1435   1.1435
     1.2489   1.2489   1.2489   1.2489   1.6012   1.6012   2.2794   2.2794
     2.2794   2.2794   2.3692   2.3692   2.6172   2.6172   2.6229   2.6229
     2.6229   2.6229   3.0599   3.0599   3.0775   3.0775   3.0775   3.0775
     3.0931   3.0931   3.3525   3.3525   3.3525   3.3525   3.5101   3.5101
     3.5203   3.5203   3.5988   3.5988   3.7714   3.7714   3.9294   3.9295

     occupation numbers 
     1.0000   1.0000   1.0000   1.0000   1.0000   1.0000   1.0000   1.0000
     1.0000   1.0000   1.0000   1.0000   1.0000   1.0000   1.0000   1.0000
     1.0000   1.0000   1.0000   1.0000   1.0000   1.0000   1.0000   1.0000
     1.0000   1.0000   1.0000   1.0000   1.0000   1.0000   1.0000   1.0000
     1.0000   1.0000   1.0000   1.0000   1.0000   1.0000   1.0000   1.0000
     1.0000   1.0000   1.0000   1.0000   1.0000   1.0000   1.0000   1.0000
     1.0000   1.0000   1.0000   1.0000   1.0000   1.0000   1.0000   1.0000
     1.0000   1.0000   1.0000   1.0000   1.0000   1.0000   1.0000   1.0000
     1.0000   1.0000   1.0000   1.0000   1.0000   1.0000   1.0000   1.0000
     1.0000   1.0000   1.0000   1.0000   1.0000   1.0000   1.0000   1.0000
     1.0000   1.0000   1.0000   1.0000   1.0000   1.0000   1.0000   1.0000
     1.0000   1.0000   1.0000   1.0000   1.0000   1.0000   1.0000   1.0000
     1.0000   1.0000   1.0000   1.0000   1.0000   1.0000   1.0000   1.0000
     1.0000   1.0000   1.0000   1.0000   1.0000   1.0000   1.0000   1.0000
     1.0000   1.0000   1.0000   1.0000   1.0000   1.0000   1.0000   1.0000
     1.0000   1.0000   1.0000   1.0000   1.0000   1.0000   1.0000   1.0000
     1.0000   1.0000   1.0000   1.0000   1.0000   1.0000   1.0000   1.0000
     1.0000   1.0000   1.0000   1.0000   1.0000   1.0000   1.0000   1.0000

          k = 0.0000-0.5774 0.0000 ( 19508 PWs)   bands (ev):

   -12.1830 -12.1830 -12.0439 -12.0439 -12.0439 -12.0439 -11.9638 -11.9638
   -11.9039 -11.9039 -11.9004 -11.9004 -11.9004 -11.9004 -11.8416 -11.8416
    -0.8500  -0.8500  -0.8329  -0.8329  -0.8329  -0.8329  -0.7567  -0.7567
    -0.7007  -0.7007  -0.6983  -0.6983  -0.6983  -0.6983  -0.6912  -0.6912
    -0.6154  -0.6154  -0.6154  -0.6154  -0.5864  -0.5864  -0.5764  -0.5764
    -0.5764  -0.5764  -0.5758  -0.5758  -0.5237  -0.5237  -0.5186  -0.5186
    -0.5186  -0.5186  -0.4673  -0.4673  -0.4503  -0.4503  -0.4286  -0.4286
    -0.4286  -0.4286  -0.3304  -0.3304  -0.2665  -0.2665  -0.2430  -0.2430
    -0.2355  -0.2355  -0.2339  -0.2339  -0.1647  -0.1647  -0.1434  -0.1434
    -0.1148  -0.1148  -0.1148  -0.1148  -0.1095  -0.1095  -0.1095  -0.1095
    -0.1060  -0.1060  -0.1060  -0.1060  -0.0664  -0.0664  -0.0248  -0.0248
     0.0185   0.0185   0.0185   0.0185   0.0654   0.0654   0.1191   0.1191
     0.8235   0.8235   1.0395   1.0395   1.1357   1.1357   1.1357   1.1357
     1.3843   1.3843   1.7512   1.7512   1.7512   1.7512   2.0701   2.0701
     2.1292   2.1292   2.1868   2.1868   2.5425   2.5425   2.5426   2.5426
     2.5796   2.5796   3.1345   3.1345   3.1352   3.1352   3.1352   3.1352
     3.1909   3.1909   3.1947   3.1947   3.1947   3.1947   3.2744   3.2744
     3.5303   3.5303   3.5303   3.5303   3.7838   3.7838   3.8635   3.8635

     occupation numbers 
     1.0000   1.0000   1.0000   1.0000   1.0000   1.0000   1.0000   1.0000
     1.0000   1.0000   1.0000   1.0000   1.0000   1.0000   1.0000   1.0000
     1.0000   1.0000   1.0000   1.0000   1.0000   1.0000   1.0000   1.0000
     1.0000   1.0000   1.0000   1.0000   1.0000   1.0000   1.0000   1.0000
     1.0000   1.0000   1.0000   1.0000   1.0000   1.0000   1.0000   1.0000
     1.0000   1.0000   1.0000   1.0000   1.0000   1.0000   1.0000   1.0000
     1.0000   1.0000   1.0000   1.0000   1.0000   1.0000   1.0000   1.0000
     1.0000   1.0000   1.0000   1.0000   1.0000   1.0000   1.0000   1.0000
     1.0000   1.0000   1.0000   1.0000   1.0000   1.0000   1.0000   1.0000
     1.0000   1.0000   1.0000   1.0000   1.0000   1.0000   1.0000   1.0000
     1.0000   1.0000   1.0000   1.0000   1.0000   1.0000   1.0000   1.0000
     1.0000   1.0000   1.0000   1.0000   1.0000   1.0000   1.0000   1.0000
     1.0000   1.0000   1.0000   1.0000   1.0000   1.0000   1.0000   1.0000
     1.0000   1.0000   1.0000   1.0000   1.0000   1.0000   1.0000   1.0000
     1.0000   1.0000   1.0000   1.0000   1.0000   1.0000   1.0000   1.0000
     1.0000   1.0000   1.0000   1.0000   1.0000   1.0000   1.0000   1.0000
     1.0000   1.0000   1.0000   1.0000   1.0000   1.0000   1.0000   1.0000
     1.0000   1.0000   1.0000   1.0000   1.0000   1.0000   1.0000   1.0000

          k = 0.0000-0.5774 0.0993 ( 19528 PWs)   bands (ev):

   -12.1782 -12.1782 -12.0800 -12.0800 -12.0077 -12.0077 -11.9616 -11.9616
   -11.9164 -11.9164 -11.9087 -11.9087 -11.8847 -11.8847 -11.8435 -11.8435
    -0.8523  -0.8523  -0.8515  -0.8515  -0.8028  -0.8028  -0.7532  -0.7532
    -0.7046  -0.7046  -0.7046  -0.7046  -0.6889  -0.6889  -0.6889  -0.6889
    -0.6364  -0.6364  -0.5942  -0.5942  -0.5934  -0.5934  -0.5897  -0.5897
    -0.5779  -0.5779  -0.5501  -0.5501  -0.5272  -0.5272  -0.5244  -0.5244
    -0.5022  -0.5022  -0.4713  -0.4713  -0.4541  -0.4541  -0.4285  -0.4285
    -0.4168  -0.4168  -0.3367  -0.3366  -0.2942  -0.2942  -0.2584  -0.2584
    -0.2330  -0.2330  -0.2277  -0.2277  -0.1630  -0.1630  -0.1376  -0.1376
    -0.1315  -0.1315  -0.1277  -0.1277  -0.1218  -0.1218  -0.1024  -0.1024
    -0.0982  -0.0982  -0.0817  -0.0817  -0.0681  -0.0681  -0.0246  -0.0246
    -0.0001  -0.0001   0.0408   0.0408   0.0456   0.0456   0.1152   0.1152
     0.8853   0.8853   1.0350   1.0350   1.0878   1.0878   1.1919   1.1919
     1.3759   1.3759   1.5906   1.5906   1.8943   1.8943   2.0808   2.0808
     2.1348   2.1348   2.2381   2.2381   2.4082   2.4082   2.5732   2.5732
     2.6705   2.6705   2.9326   2.9326   3.0405   3.0405   3.1155   3.1155
     3.2026   3.2026   3.2895   3.2895   3.3042   3.3042   3.3341   3.3342
     3.4432   3.4432   3.6169   3.6169   3.7707   3.7707   3.8522   3.8522

     occupation numbers 
     1.0000   1.0000   1.0000   1.0000   1.0000   1.0000   1.0000   1.0000
[...]
     atom   14 type  1   force =     0.00000158   -0.00000091   -0.00191801
     atom   15 type  2   force =     0.00000000    0.00000000    0.00192445
     atom   16 type  2   force =     0.00000010   -0.00000006    0.00192493
     atom   17 type  1   force =    -0.00000137    0.00000079   -0.00192792
     atom   18 type  1   force =     0.00000000    0.00000000   -0.00192180
     atom   19 type  2   force =    -0.00000006    0.00000003    0.00192442
     atom   20 type  2   force =     0.00000000    0.00000000    0.00192479
     atom   21 type  1   force =     0.00000060   -0.00000035   -0.00193069
     atom   22 type  1   force =     0.00000000    0.00000000   -0.00191763
     atom   23 type  2   force =    -0.00000006    0.00000004    0.00192437
     atom   24 type  2   force =     0.00000000    0.00000000    0.00192482
     atom   25 type  1   force =    -0.00000000   -0.00000158   -0.00192792
     atom   26 type  1   force =    -0.00000041   -0.00000024   -0.00192253
     atom   27 type  2   force =     0.00000000   -0.00000007    0.00192442
     atom   28 type  2   force =     0.00000012    0.00000007    0.00192469
     atom   29 type  1   force =     0.00000000    0.00000069   -0.00193069
     atom   30 type  1   force =    -0.00000158   -0.00000091   -0.00191801
     atom   31 type  2   force =     0.00000000   -0.00000007    0.00192437
     atom   32 type  2   force =    -0.00000010   -0.00000006    0.00192493
     The non-local contrib.  to forces
     atom    1 type  1   force =     0.00000095    0.00000055    0.09340776
     atom    2 type  1   force =     0.00000000    0.00000009    0.09341119
     atom    3 type  2   force =     0.00000038    0.00000022    0.10769545
     atom    4 type  2   force =     0.00000000   -0.00000070    0.10769817
     atom    5 type  1   force =    -0.00000080   -0.00000046    0.09340563
     atom    6 type  1   force =     0.00000000    0.00000005    0.09341458
     atom    7 type  2   force =     0.00000046    0.00000026    0.10769710
     atom    8 type  2   force =     0.00000000    0.00000038    0.10769901
     atom    9 type  1   force =     0.00000000    0.00000000    0.09340815
     atom   10 type  1   force =     0.00000007   -0.00000004    0.09341119
     atom   11 type  2   force =     0.00000000    0.00000000    0.10769615
     atom   12 type  2   force =    -0.00000061    0.00000035    0.10769817
     atom   13 type  1   force =     0.00000000    0.00000000    0.09340497
     atom   14 type  1   force =     0.00000005   -0.00000003    0.09341458
     atom   15 type  2   force =     0.00000000   -0.00000000    0.10769685
     atom   16 type  2   force =     0.00000033   -0.00000019    0.10769901
     atom   17 type  1   force =    -0.00000095    0.00000055    0.09340776
     atom   18 type  1   force =     0.00000000    0.00000000    0.09341174
     atom   19 type  2   force =    -0.00000038    0.00000022    0.10769545
     atom   20 type  2   force =     0.00000000   -0.00000000    0.10769809
     atom   21 type  1   force =     0.00000080   -0.00000046    0.09340563
     atom   22 type  1   force =     0.00000000    0.00000000    0.09341436
     atom   23 type  2   force =    -0.00000046    0.00000026    0.10769710
     atom   24 type  2   force =     0.00000000    0.00000000    0.10769832
     atom   25 type  1   force =     0.00000000   -0.00000109    0.09340776
     atom   26 type  1   force =    -0.00000007   -0.00000004    0.09341119
     atom   27 type  2   force =     0.00000000   -0.00000044    0.10769545
     atom   28 type  2   force =     0.00000061    0.00000035    0.10769817
     atom   29 type  1   force =     0.00000000    0.00000093    0.09340563
     atom   30 type  1   force =    -0.00000005   -0.00000003    0.09341458
     atom   31 type  2   force =     0.00000000   -0.00000053    0.10769710
     atom   32 type  2   force =    -0.00000033   -0.00000019    0.10769901
     The ionic contribution  to forces
     atom    1 type  1   force =    -0.00000000    0.00000001    0.75656947
     atom    2 type  1   force =     0.00000002   -0.00000000    0.75656947
     atom    3 type  2   force =    -0.00000000    0.00000001   -0.75656947
     atom    4 type  2   force =     0.00000001   -0.00000000   -0.75656947
     atom    5 type  1   force =    -0.00000000    0.00000001    0.75656947
     atom    6 type  1   force =     0.00000002   -0.00000000    0.75656947
     atom    7 type  2   force =    -0.00000000    0.00000001   -0.75656947
     atom    8 type  2   force =     0.00000001   -0.00000000   -0.75656947
     atom    9 type  1   force =    -0.00000001    0.00000000    0.75656947
     atom   10 type  1   force =     0.00000001    0.00000000    0.75656947
     atom   11 type  2   force =    -0.00000001    0.00000000   -0.75656947
     atom   12 type  2   force =     0.00000001   -0.00000000   -0.75656947
     atom   13 type  1   force =    -0.00000001    0.00000000    0.75656947
     atom   14 type  1   force =     0.00000001    0.00000000    0.75656947
     atom   15 type  2   force =    -0.00000001    0.00000000   -0.75656947
     atom   16 type  2   force =     0.00000001   -0.00000000   -0.75656947
     atom   17 type  1   force =    -0.00000000   -0.00000000    0.75656947
     atom   18 type  1   force =    -0.00000001   -0.00000000    0.75656947
     atom   19 type  2   force =    -0.00000000   -0.00000000   -0.75656947
     atom   20 type  2   force =    -0.00000000   -0.00000000   -0.75656947
     atom   21 type  1   force =    -0.00000000   -0.00000000    0.75656947
     atom   22 type  1   force =    -0.00000001   -0.00000000    0.75656947
     atom   23 type  2   force =    -0.00000000   -0.00000000   -0.75656947
     atom   24 type  2   force =    -0.00000000   -0.00000000   -0.75656947
     atom   25 type  1   force =    -0.00000001    0.00000000    0.75656947
     atom   26 type  1   force =     0.00000001   -0.00000001    0.75656947
     atom   27 type  2   force =    -0.00000001    0.00000000   -0.75656947
     atom   28 type  2   force =     0.00000001   -0.00000000   -0.75656947
     atom   29 type  1   force =    -0.00000001    0.00000000    0.75656947
     atom   30 type  1   force =     0.00000001   -0.00000001    0.75656947
     atom   31 type  2   force =    -0.00000001    0.00000000   -0.75656947
     atom   32 type  2   force =     0.00000001   -0.00000000   -0.75656947
     The local contribution  to forces
     atom    1 type  1   force =    -0.00000334   -0.00000172   -0.84629094
     atom    2 type  1   force =     0.00000009    0.00000026   -0.84630093
     atom    3 type  2   force =     0.00000031    0.00000023    0.65176961
     atom    4 type  2   force =     0.00000002   -0.00000247    0.65177632
     atom    5 type  1   force =     0.00000284    0.00000185   -0.84628509
     atom    6 type  1   force =     0.00000009   -0.00000074   -0.84630984
     atom    7 type  2   force =     0.00000027    0.00000021    0.65177214
     atom    8 type  2   force =     0.00000002    0.00000132    0.65177892
     atom    9 type  1   force =    -0.00000018    0.00000011   -0.84629303
     atom   10 type  1   force =     0.00000027   -0.00000005   -0.84630093
     atom   11 type  2   force =    -0.00000005    0.00000003    0.65177142
     atom   12 type  2   force =    -0.00000212    0.00000125    0.65177632
     atom   13 type  1   force =    -0.00000018    0.00000011   -0.84628260
     atom   14 type  1   force =    -0.00000060    0.00000045   -0.84630984
     atom   15 type  2   force =    -0.00000005    0.00000003    0.65177044
     atom   16 type  2   force =     0.00000115   -0.00000064    0.65177892
     atom   17 type  1   force =     0.00000298   -0.00000172   -0.84629094
     atom   18 type  1   force =    -0.00000009    0.00000005   -0.84630305
     atom   19 type  2   force =    -0.00000040    0.00000023    0.65176961
     atom   20 type  2   force =    -0.00000002    0.00000001    0.65177665
     atom   21 type  1   force =    -0.00000321    0.00000185   -0.84628509
     atom   22 type  1   force =    -0.00000009    0.00000005   -0.84630794
     atom   23 type  2   force =    -0.00000036    0.00000021    0.65177214
     atom   24 type  2   force =    -0.00000002    0.00000001    0.65177792
     atom   25 type  1   force =    -0.00000018    0.00000375   -0.84629094
     atom   26 type  1   force =    -0.00000009   -0.00000005   -0.84630093
     atom   27 type  2   force =    -0.00000005   -0.00000038    0.65176961
     atom   28 type  2   force =     0.00000217    0.00000125    0.65177632
     atom   29 type  1   force =    -0.00000018   -0.00000339   -0.84628509
     atom   30 type  1   force =     0.00000078    0.00000045   -0.84630984
     atom   31 type  2   force =    -0.00000005   -0.00000033    0.65177214
     atom   32 type  2   force =    -0.00000110   -0.00000064    0.65177892
     The core correction contribution to forces
     atom    1 type  1   force =     0.00000005    0.00000006   -0.00560849
     atom    2 type  1   force =     0.00000001   -0.00000003   -0.00560834
     atom    3 type  2   force =    -0.00000000   -0.00000000   -0.00097653
     atom    4 type  2   force =    -0.00000000    0.00000000   -0.00097655
     atom    5 type  1   force =    -0.00000013   -0.00000005   -0.00560859
     atom    6 type  1   force =     0.00000001    0.00000002   -0.00560820
     atom    7 type  2   force =    -0.00000000   -0.00000000   -0.00097655
     atom    8 type  2   force =    -0.00000000   -0.00000000   -0.00097656
     atom    9 type  1   force =    -0.00000002    0.00000001   -0.00560846
     atom   10 type  1   force =    -0.00000002    0.00000003   -0.00560834
     atom   11 type  2   force =     0.00000000   -0.00000000   -0.00097653
     atom   12 type  2   force =     0.00000000   -0.00000000   -0.00097655
     atom   13 type  1   force =    -0.00000002    0.00000001   -0.00560866
     atom   14 type  1   force =     0.00000002    0.00000000   -0.00560820
     atom   15 type  2   force =     0.00000000   -0.00000000   -0.00097655
     atom   16 type  2   force =    -0.00000000    0.00000000   -0.00097656
     atom   17 type  1   force =    -0.00000010    0.00000006   -0.00560849
     atom   18 type  1   force =    -0.00000001    0.00000001   -0.00560827
     atom   19 type  2   force =     0.00000000   -0.00000000   -0.00097653
     atom   20 type  2   force =     0.00000000   -0.00000000   -0.00097655
     atom   21 type  1   force =     0.00000008   -0.00000005   -0.00560859
     atom   22 type  1   force =    -0.00000001    0.00000001   -0.00560833
     atom   23 type  2   force =     0.00000000   -0.00000000   -0.00097655
     atom   24 type  2   force =     0.00000000   -0.00000000   -0.00097655
     atom   25 type  1   force =    -0.00000002   -0.00000008   -0.00560849
     atom   26 type  1   force =     0.00000004    0.00000003   -0.00560834
     atom   27 type  2   force =     0.00000000    0.00000000   -0.00097653
     atom   28 type  2   force =    -0.00000000   -0.00000000   -0.00097655
     atom   29 type  1   force =    -0.00000002    0.00000014   -0.00560859
     atom   30 type  1   force =     0.00000000    0.00000000   -0.00560820
     atom   31 type  2   force =     0.00000000    0.00000001   -0.00097655
     atom   32 type  2   force =     0.00000000    0.00000000   -0.00097656
     The Hubbard contrib.    to forces
     atom    1 type  1   force =     0.00000000    0.00000000    0.00000000
     atom    2 type  1   force =     0.00000000    0.00000000    0.00000000
     atom    3 type  2   force =     0.00000000    0.00000000    0.00000000
     atom    4 type  2   force =     0.00000000    0.00000000    0.00000000
     atom    5 type  1   force =     0.00000000    0.00000000    0.00000000
     atom    6 type  1   force =     0.00000000    0.00000000    0.00000000
     atom    7 type  2   force =     0.00000000    0.00000000    0.00000000
     atom    8 type  2   force =     0.00000000    0.00000000    0.00000000
     atom    9 type  1   force =     0.00000000    0.00000000    0.00000000
     atom   10 type  1   force =     0.00000000    0.00000000    0.00000000
     atom   11 type  2   force =     0.00000000    0.00000000    0.00000000
     atom   12 type  2   force =     0.00000000    0.00000000    0.00000000
     atom   13 type  1   force =     0.00000000    0.00000000    0.00000000
     atom   14 type  1   force =     0.00000000    0.00000000    0.00000000
     atom   15 type  2   force =     0.00000000    0.00000000    0.00000000
     atom   16 type  2   force =     0.00000000    0.00000000    0.00000000
     atom   17 type  1   force =     0.00000000    0.00000000    0.00000000
     atom   18 type  1   force =     0.00000000    0.00000000    0.00000000
     atom   19 type  2   force =     0.00000000    0.00000000    0.00000000
     atom   20 type  2   force =     0.00000000    0.00000000    0.00000000
     atom   21 type  1   force =     0.00000000    0.00000000    0.00000000
     atom   22 type  1   force =     0.00000000    0.00000000    0.00000000
     atom   23 type  2   force =     0.00000000    0.00000000    0.00000000
     atom   24 type  2   force =     0.00000000    0.00000000    0.00000000
     atom   25 type  1   force =     0.00000000    0.00000000    0.00000000
     atom   26 type  1   force =     0.00000000    0.00000000    0.00000000
     atom   27 type  2   force =     0.00000000    0.00000000    0.00000000
     atom   28 type  2   force =     0.00000000    0.00000000    0.00000000
     atom   29 type  1   force =     0.00000000    0.00000000    0.00000000
     atom   30 type  1   force =     0.00000000    0.00000000    0.00000000
     atom   31 type  2   force =     0.00000000    0.00000000    0.00000000
     atom   32 type  2   force =     0.00000000    0.00000000    0.00000000
     The SCF correction term to forces
     atom    1 type  1   force =     0.00000351    0.00000203   -0.00000560
     atom    2 type  1   force =    -0.00000000    0.00000022    0.00000619
     atom    3 type  2   force =    -0.00000068   -0.00000039    0.00000548
     atom    4 type  2   force =    -0.00000000    0.00000304   -0.00000367
     atom    5 type  1   force =    -0.00000271   -0.00000157   -0.00001200
     atom    6 type  1   force =    -0.00000000    0.00000256    0.00001610
     atom    7 type  2   force =    -0.00000070   -0.00000041    0.00000126
     atom    8 type  2   force =    -0.00000000   -0.00000157   -0.00000686
     atom    9 type  1   force =     0.00000000   -0.00000000   -0.00000126
     atom   10 type  1   force =     0.00000019   -0.00000011    0.00000619
     atom   11 type  2   force =     0.00000000   -0.00000000    0.00000326
     atom   12 type  2   force =     0.00000263   -0.00000152   -0.00000367
     atom   13 type  1   force =     0.00000000   -0.00000000   -0.00001490
     atom   14 type  1   force =     0.00000222   -0.00000128    0.00001610
     atom   15 type  2   force =     0.00000000   -0.00000000    0.00000329
     atom   16 type  2   force =    -0.00000136    0.00000079   -0.00000686
     atom   17 type  1   force =    -0.00000351    0.00000203   -0.00000560
     atom   18 type  1   force =     0.00000000   -0.00000000    0.00000844
     atom   19 type  2   force =     0.00000068   -0.00000039    0.00000548
     atom   20 type  2   force =     0.00000000   -0.00000000   -0.00000382
     atom   21 type  1   force =     0.00000271   -0.00000157   -0.00001200
     atom   22 type  1   force =     0.00000000   -0.00000000    0.00001493
     atom   23 type  2   force =     0.00000070   -0.00000041    0.00000126
     atom   24 type  2   force =     0.00000000   -0.00000000   -0.00000528
     atom   25 type  1   force =     0.00000000   -0.00000405   -0.00000560
     atom   26 type  1   force =    -0.00000019   -0.00000011    0.00000619
     atom   27 type  2   force =     0.00000000    0.00000078    0.00000548
     atom   28 type  2   force =    -0.00000263   -0.00000152   -0.00000367
     atom   29 type  1   force =     0.00000000    0.00000313   -0.00001200
     atom   30 type  1   force =    -0.00000222   -0.00000128    0.00001610
     atom   31 type  2   force =     0.00000000    0.00000081    0.00000126
     atom   32 type  2   force =     0.00000136    0.00000079   -0.00000686

     Total force =     0.010887     Total SCF correction =     0.000049

     init_run     :     19.77s CPU     16.17s WALL (       1 calls)
     electrons    :   2250.13s CPU   1654.41s WALL (       1 calls)
     forces       :      8.80s CPU      6.06s WALL (       1 calls)

     Called by init_run:
     wfcinit      :     16.36s CPU     12.70s WALL (       1 calls)
     wfcinit:atom :      0.14s CPU      0.11s WALL (      17 calls)
     wfcinit:wfcr :     15.47s CPU     11.95s WALL (      17 calls)
     potinit      :      1.12s CPU      1.14s WALL (       1 calls)
     hinit0       :      1.86s CPU      1.87s WALL (       1 calls)

     Called by electrons:
     c_bands      :   2080.12s CPU   1507.14s WALL (      37 calls)
     sum_band     :    158.81s CPU    136.12s WALL (      37 calls)
     v_of_rho     :      3.78s CPU      3.67s WALL (      38 calls)
     v_h          :      0.20s CPU      0.24s WALL (      38 calls)
     v_xc         :      3.66s CPU      3.53s WALL (      39 calls)
     newd         :      6.71s CPU      6.81s WALL (      38 calls)
     mix_rho      :      0.62s CPU      0.55s WALL (      37 calls)

     Called by c_bands:
     init_us_2    :      7.43s CPU      6.45s WALL (    1292 calls)
     init_us_2:cp :      7.41s CPU      6.44s WALL (    1292 calls)
     cegterg      :   2002.94s CPU   1436.79s WALL (     629 calls)

     Called by sum_band:
     sum_band:wei :      0.00s CPU      0.00s WALL (      37 calls)
     sum_band:loo :    150.62s CPU    128.23s WALL (      37 calls)
     sum_band:buf :      1.22s CPU      1.04s WALL (     629 calls)
     sum_band:ini :      3.17s CPU      2.70s WALL (     629 calls)
     sum_band:cal :     50.82s CPU     27.84s WALL (     629 calls)
     sum_band:bec :      0.88s CPU      0.76s WALL (     629 calls)
     addusdens    :      7.58s CPU      7.26s WALL (      37 calls)
                                        0.00s GPU  (      37 calls)
     addusd:skk   :      0.20s CPU      0.29s WALL (      74 calls)
                                        0.00s GPU  (      74 calls)

     Called by *egterg:
     cdiaghg      :    476.34s CPU    347.40s WALL (    4408 calls)
     cegterg:over :    160.69s CPU     88.44s WALL (    3779 calls)
     cegterg:upda :     91.24s CPU     48.25s WALL (    3779 calls)
     cegterg:last :    214.77s CPU    110.77s WALL (    1829 calls)
     h_psi        :    845.92s CPU    721.85s WALL (    4425 calls)
     s_psi        :    167.51s CPU     85.45s WALL (    4425 calls)
     g_psi        :      3.21s CPU      2.65s WALL (    3779 calls)

     Called by h_psi:
     h_psi:calbec :    170.32s CPU     93.23s WALL (    4425 calls)
     vloc_psi     :    501.94s CPU    535.65s WALL (    4425 calls)
     add_vuspsi   :    170.18s CPU     87.22s WALL (    4425 calls)

     General routines
     calbec       :    226.67s CPU    124.06s WALL (    5122 calls)
     fft          :      2.49s CPU      2.70s WALL (     503 calls)
     ffts         :      0.36s CPU      0.37s WALL (      75 calls)
     fftw         :    514.18s CPU    550.25s WALL (  671060 calls)
     interpolate  :      0.45s CPU      0.49s WALL (      38 calls)

     Parallel routines

     PWSCF        :  37m59.09s CPU  27m57.05s WALL


   This run was terminated on:   0:49:21  11Sep2025            

=------------------------------------------------------------------------------=
   JOB DONE.
=------------------------------------------------------------------------------=
Note: The following floating-point exceptions are signalling: IEEE_INVALID_FLAG
Note: The following floating-point exceptions are signalling: IEEE_INVALID_FLAG
