
     Program PWSCF v.7.2 starts on  9Sep2025 at  2:25:54 

     This program is part of the open-source Quantum ESPRESSO suite
     for quantum simulation of materials; please cite
         "P. Giannozzi et al., J. Phys.:Condens. Matter 21 395502 (2009);
         "P. Giannozzi et al., J. Phys.:Condens. Matter 29 465901 (2017);
         "P. Giannozzi et al., J. Chem. Phys. 152 154105 (2020);
          URL http://www.quantum-espresso.org", 
     in publications or presentations arising from this work. More details at
     http://www.quantum-espresso.org/quote

     Parallel version (MPI), running on    32 processors

     MPI processes distributed on     1 nodes
     117117 MiB available memory on the printing compute node when the environment starts

     Reading input from /home/jvc/QEspresso7.2/ZnO_database/scripts/cell222.in/ZnO-3.07-1.74-222.in
Warning: card &CELL ignored
Warning: card / ignored
Warning: card &FCP ignored
Warning: card / ignored
Warning: card &RISM ignored
Warning: card / ignored

     Current dimensions of program PWSCF are:
     Max number of different atomic species (ntypx) = 10
     Max number of k-points (npk) =  40000
     Max angular momentum in pseudopotentials (lmaxx) =  4
     file Zn.upf: wavefunction(s)  3D renormalized
     Found identity + (  0.0000  0.0000  0.5000) symmetry
     This is a supercell, fractional translations are disabled
     Message from routine setup:
     using ibrav=0 with symmetry is DISCOURAGED, use correct ibrav instead

     K-points division:     npool     =       2
     R & G space division:  proc/nbgrp/npool/nimage =      16
     Subspace diagonalization in iterative solution of the eigenvalue problem:
     a serial algorithm will be used


     Parallelization info
     --------------------
     sticks:   dense  smooth     PW     G-vecs:    dense   smooth      PW
     Min         231     116     31                19965     7067    1031
     Max         232     117     32                19969     7071    1044
     Sum        3697    1867    511               319473   113089   16615

     Using Slab Decomposition



     bravais-lattice index     =            0
     lattice parameter (alat)  =      11.6162  a.u.
     unit-cell volume          =    2366.7461 (a.u.)^3
     number of atoms/cell      =           32
     number of atomic types    =            2
     number of electrons       =       288.00
     number of Kohn-Sham states=          144
     kinetic-energy cutoff     =      50.0000  Ry
     charge density cutoff     =     400.0000  Ry
     scf convergence threshold =      1.0E-08
     mixing beta               =       0.3000
     number of iterations used =            8  plain     mixing
     Exchange-correlation= PBE
                           (   1   4   3   4   0   0   0)

     celldm(1)=  11.616245  celldm(2)=   0.000000  celldm(3)=   0.000000
     celldm(4)=   0.000000  celldm(5)=   0.000000  celldm(6)=   0.000000

     crystal axes: (cart. coord. in units of alat)
               a(1) = (   1.000000   0.000000   0.000000 )  
               a(2) = (  -0.500000   0.866025   0.000000 )  
               a(3) = (   0.000000   0.000000   1.743507 )  

     reciprocal axes: (cart. coord. in units 2 pi/alat)
               b(1) = (  1.000000  0.577350 -0.000000 )  
               b(2) = (  0.000000  1.154701  0.000000 )  
               b(3) = (  0.000000 -0.000000  0.573557 )  


     PseudoPot. # 1 for Zn read from file:
     /home/jvc/QEspresso7.2/ZnO_database/pseudos/Zn.upf
     MD5 check sum: 7f56cabf9682ed8c977c2f7d0c5985c5
     Pseudo is Ultrasoft + core correction, Zval = 12.0
     Generated using &quot;atomic&quot; code by A. Dal Corso  v.6.2.2
     Using radial grid of 1201 points,  6 beta functions with: 
                l(1) =   0
                l(2) =   0
                l(3) =   1
                l(4) =   1
                l(5) =   2
                l(6) =   2
     Q(r) pseudized with 0 coefficients 


     PseudoPot. # 2 for O  read from file:
     /home/jvc/QEspresso7.2/ZnO_database/pseudos/O.upf
     MD5 check sum: 91400c9766925bcf19f520983a725ff0
     Pseudo is Ultrasoft + core correction, Zval =  6.0
     Generated using &quot;atomic&quot; code by A. Dal Corso  v.6.3MaX
     Using radial grid of 1095 points,  4 beta functions with: 
                l(1) =   0
                l(2) =   0
                l(3) =   1
                l(4) =   1
     Q(r) pseudized with 0 coefficients 


     atomic species   valence    mass     pseudopotential
        Zn            12.00    65.38000     Zn( 1.00)
        O              6.00    15.99900     O ( 1.00)

      6 Sym. Ops. (no inversion) found


                                    s                        frac. trans.

      isym =  1     identity                                     

 cryst.   s( 1) = (     1          0          0      )
                  (     0          1          0      )
                  (     0          0          1      )

 cart.    s( 1) = (  1.0000000  0.0000000  0.0000000 )
                  (  0.0000000  1.0000000  0.0000000 )
                  (  0.0000000  0.0000000  1.0000000 )


      isym =  2     120 deg rotation - cryst. axis [0,0,1]       

 cryst.   s( 2) = (     0          1          0      )
                  (    -1         -1          0      )
                  (     0          0          1      )

 cart.    s( 2) = ( -0.5000000 -0.8660254  0.0000000 )
                  (  0.8660254 -0.5000000  0.0000000 )
                  (  0.0000000  0.0000000  1.0000000 )


      isym =  3     120 deg rotation - cryst. axis [0,0,-1]      

 cryst.   s( 3) = (    -1         -1          0      )
                  (     1          0          0      )
                  (     0          0          1      )

 cart.    s( 3) = ( -0.5000000  0.8660254  0.0000000 )
                  ( -0.8660254 -0.5000000  0.0000000 )
                  (  0.0000000  0.0000000  1.0000000 )


      isym =  4     inv. 180 deg rotation - cart. axis [1,0,0]   

 cryst.   s( 4) = (    -1          0          0      )
                  (     1          1          0      )
                  (     0          0          1      )

 cart.    s( 4) = ( -1.0000000  0.0000000  0.0000000 )
                  (  0.0000000  1.0000000  0.0000000 )
                  (  0.0000000  0.0000000  1.0000000 )


      isym =  5     inv. 180 deg rotation - cryst. axis [0,1,0]  

 cryst.   s( 5) = (     1          1          0      )
                  (     0         -1          0      )
                  (     0          0          1      )

 cart.    s( 5) = (  0.5000000  0.8660254  0.0000000 )
                  (  0.8660254 -0.5000000  0.0000000 )
                  (  0.0000000  0.0000000  1.0000000 )


      isym =  6     inv. 180 deg rotation - cryst. axis [1,1,0]  

 cryst.   s( 6) = (     0         -1          0      )
                  (    -1          0          0      )
                  (     0          0          1      )

 cart.    s( 6) = (  0.5000000 -0.8660254  0.0000000 )
                  ( -0.8660254 -0.5000000  0.0000000 )
                  (  0.0000000  0.0000000  1.0000000 )


   Cartesian axes

     site n.     atom                  positions (alat units)
         1           Zn  tau(   1) = (   0.2500000   0.1443376   0.4364291  )
         2           Zn  tau(   2) = (  -0.0000000   0.2886751   0.0005523  )
         3           O   tau(   3) = (   0.2500000   0.1443376   0.7668610  )
         4           O   tau(   4) = (  -0.0000000   0.2886751   0.3309842  )
         5           Zn  tau(   5) = (   0.2500000   0.1443376   1.3081826  )
         6           Zn  tau(   6) = (  -0.0000000   0.2886751   0.8723058  )
         7           O   tau(   7) = (   0.2500000   0.1443376   1.6386145  )
         8           O   tau(   8) = (  -0.0000000   0.2886751   1.2027378  )
         9           Zn  tau(   9) = (  -0.0000000   0.5773503   0.4364291  )
        10           Zn  tau(  10) = (  -0.2500000   0.7216878   0.0005523  )
        11           O   tau(  11) = (  -0.0000000   0.5773503   0.7668610  )
        12           O   tau(  12) = (  -0.2500000   0.7216878   0.3309842  )
        13           Zn  tau(  13) = (  -0.0000000   0.5773503   1.3081826  )
        14           Zn  tau(  14) = (  -0.2500000   0.7216878   0.8723058  )
        15           O   tau(  15) = (  -0.0000000   0.5773503   1.6386145  )
        16           O   tau(  16) = (  -0.2500000   0.7216878   1.2027378  )
        17           Zn  tau(  17) = (   0.7500000   0.1443376   0.4364291  )
        18           Zn  tau(  18) = (   0.5000000   0.2886751   0.0005523  )
        19           O   tau(  19) = (   0.7500000   0.1443376   0.7668610  )
        20           O   tau(  20) = (   0.5000000   0.2886751   0.3309842  )
        21           Zn  tau(  21) = (   0.7500000   0.1443376   1.3081826  )
        22           Zn  tau(  22) = (   0.5000000   0.2886751   0.8723058  )
        23           O   tau(  23) = (   0.7500000   0.1443376   1.6386145  )
        24           O   tau(  24) = (   0.5000000   0.2886751   1.2027378  )
        25           Zn  tau(  25) = (   0.5000000   0.5773503   0.4364291  )
        26           Zn  tau(  26) = (   0.2500000   0.7216878   0.0005523  )
        27           O   tau(  27) = (   0.5000000   0.5773503   0.7668610  )
        28           O   tau(  28) = (   0.2500000   0.7216878   0.3309842  )
        29           Zn  tau(  29) = (   0.5000000   0.5773503   1.3081826  )
        30           Zn  tau(  30) = (   0.2500000   0.7216878   0.8723058  )
        31           O   tau(  31) = (   0.5000000   0.5773503   1.6386145  )
        32           O   tau(  32) = (   0.2500000   0.7216878   1.2027378  )

   Crystallographic axes

     site n.     atom                  positions (cryst. coord.)
         1           Zn  tau(   1) = (  0.3333333  0.1666667  0.2503168  )
         2           Zn  tau(   2) = (  0.1666667  0.3333333  0.0003168  )
         3           O   tau(   3) = (  0.3333333  0.1666667  0.4398382  )
         4           O   tau(   4) = (  0.1666667  0.3333333  0.1898382  )
         5           Zn  tau(   5) = (  0.3333333  0.1666667  0.7503168  )
         6           Zn  tau(   6) = (  0.1666667  0.3333333  0.5003168  )
         7           O   tau(   7) = (  0.3333333  0.1666667  0.9398382  )
         8           O   tau(   8) = (  0.1666667  0.3333333  0.6898382  )
         9           Zn  tau(   9) = (  0.3333333  0.6666667  0.2503168  )
        10           Zn  tau(  10) = (  0.1666667  0.8333333  0.0003168  )
        11           O   tau(  11) = (  0.3333333  0.6666667  0.4398382  )
        12           O   tau(  12) = (  0.1666667  0.8333333  0.1898382  )
        13           Zn  tau(  13) = (  0.3333333  0.6666667  0.7503168  )
        14           Zn  tau(  14) = (  0.1666667  0.8333333  0.5003168  )
        15           O   tau(  15) = (  0.3333333  0.6666667  0.9398382  )
        16           O   tau(  16) = (  0.1666667  0.8333333  0.6898382  )
        17           Zn  tau(  17) = (  0.8333333  0.1666667  0.2503168  )
        18           Zn  tau(  18) = (  0.6666667  0.3333333  0.0003168  )
        19           O   tau(  19) = (  0.8333333  0.1666667  0.4398382  )
        20           O   tau(  20) = (  0.6666667  0.3333333  0.1898382  )
        21           Zn  tau(  21) = (  0.8333333  0.1666667  0.7503168  )
        22           Zn  tau(  22) = (  0.6666667  0.3333333  0.5003168  )
        23           O   tau(  23) = (  0.8333333  0.1666667  0.9398382  )
        24           O   tau(  24) = (  0.6666667  0.3333333  0.6898382  )
        25           Zn  tau(  25) = (  0.8333333  0.6666667  0.2503168  )
        26           Zn  tau(  26) = (  0.6666667  0.8333333  0.0003168  )
        27           O   tau(  27) = (  0.8333333  0.6666667  0.4398382  )
        28           O   tau(  28) = (  0.6666667  0.8333333  0.1898382  )
        29           Zn  tau(  29) = (  0.8333333  0.6666667  0.7503168  )
        30           Zn  tau(  30) = (  0.6666667  0.8333333  0.5003168  )
        31           O   tau(  31) = (  0.8333333  0.6666667  0.9398382  )
        32           O   tau(  32) = (  0.6666667  0.8333333  0.6898382  )

     number of k points=    34
                       cart. coord. in units 2pi/alat
        k(    1) = (   0.0000000   0.0000000   0.0000000), wk =   0.0092593
        k(    2) = (   0.0000000   0.0000000   0.0955928), wk =   0.0185185
        k(    3) = (   0.0000000   0.0000000   0.1911855), wk =   0.0185185
        k(    4) = (   0.0000000   0.0000000  -0.2867783), wk =   0.0092593
        k(    5) = (   0.0000000   0.1924501   0.0000000), wk =   0.0555556
        k(    6) = (   0.0000000   0.1924501   0.0955928), wk =   0.0555556
        k(    7) = (   0.0000000   0.1924501   0.1911855), wk =   0.0555556
        k(    8) = (   0.0000000   0.1924501  -0.2867783), wk =   0.0555556
        k(    9) = (   0.0000000   0.3849002   0.0000000), wk =   0.0555556
        k(   10) = (   0.0000000   0.3849002   0.0955928), wk =   0.0555556
        k(   11) = (   0.0000000   0.3849002   0.1911855), wk =   0.0555556
        k(   12) = (   0.0000000   0.3849002  -0.2867783), wk =   0.0555556
        k(   13) = (   0.0000000  -0.5773503   0.0000000), wk =   0.0277778
        k(   14) = (   0.0000000  -0.5773503   0.0955928), wk =   0.0555556
        k(   15) = (   0.0000000  -0.5773503   0.1911855), wk =   0.0555556
        k(   16) = (   0.0000000  -0.5773503  -0.2867783), wk =   0.0277778
        k(   17) = (   0.1666667   0.2886751   0.0000000), wk =   0.0555556
        k(   18) = (   0.1666667   0.2886751   0.0955928), wk =   0.1111111
        k(   19) = (   0.1666667   0.2886751   0.1911855), wk =   0.1111111
        k(   20) = (   0.1666667   0.2886751  -0.2867783), wk =   0.0555556
        k(   21) = (   0.1666667   0.4811252   0.0000000), wk =   0.1111111
        k(   22) = (   0.1666667   0.4811252   0.0955928), wk =   0.1111111
        k(   23) = (   0.1666667   0.4811252   0.1911855), wk =   0.1111111
        k(   24) = (   0.1666667   0.4811252  -0.2867783), wk =   0.1111111
        k(   25) = (   0.3333333   0.5773503   0.0000000), wk =   0.0185185
        k(   26) = (   0.3333333   0.5773503   0.0955928), wk =   0.0370370
        k(   27) = (   0.3333333   0.5773503   0.1911855), wk =   0.0370370
        k(   28) = (   0.3333333   0.5773503  -0.2867783), wk =   0.0185185
        k(   29) = (   0.0000000  -0.1924501   0.0955928), wk =   0.0555556
        k(   30) = (   0.0000000  -0.1924501   0.1911855), wk =   0.0555556
        k(   31) = (   0.0000000  -0.3849002   0.0955928), wk =   0.0555556
        k(   32) = (   0.0000000  -0.3849002   0.1911855), wk =   0.0555556
        k(   33) = (  -0.1666667  -0.4811252   0.0955928), wk =   0.1111111
        k(   34) = (  -0.1666667  -0.4811252   0.1911855), wk =   0.1111111

                       cryst. coord.
        k(    1) = (   0.0000000   0.0000000   0.0000000), wk =   0.0092593
        k(    2) = (   0.0000000   0.0000000   0.1666667), wk =   0.0185185
        k(    3) = (   0.0000000   0.0000000   0.3333333), wk =   0.0185185
        k(    4) = (   0.0000000   0.0000000  -0.5000000), wk =   0.0092593
        k(    5) = (   0.0000000   0.1666667   0.0000000), wk =   0.0555556
        k(    6) = (   0.0000000   0.1666667   0.1666667), wk =   0.0555556
        k(    7) = (   0.0000000   0.1666667   0.3333333), wk =   0.0555556
        k(    8) = (   0.0000000   0.1666667  -0.5000000), wk =   0.0555556
        k(    9) = (   0.0000000   0.3333333   0.0000000), wk =   0.0555556
        k(   10) = (   0.0000000   0.3333333   0.1666667), wk =   0.0555556
        k(   11) = (   0.0000000   0.3333333   0.3333333), wk =   0.0555556
        k(   12) = (   0.0000000   0.3333333  -0.5000000), wk =   0.0555556
        k(   13) = (   0.0000000  -0.5000000   0.0000000), wk =   0.0277778
        k(   14) = (   0.0000000  -0.5000000   0.1666667), wk =   0.0555556
        k(   15) = (   0.0000000  -0.5000000   0.3333333), wk =   0.0555556
        k(   16) = (   0.0000000  -0.5000000  -0.5000000), wk =   0.0277778
        k(   17) = (   0.1666667   0.1666667   0.0000000), wk =   0.0555556
        k(   18) = (   0.1666667   0.1666667   0.1666667), wk =   0.1111111
        k(   19) = (   0.1666667   0.1666667   0.3333333), wk =   0.1111111
        k(   20) = (   0.1666667   0.1666667  -0.5000000), wk =   0.0555556
        k(   21) = (   0.1666667   0.3333333   0.0000000), wk =   0.1111111
        k(   22) = (   0.1666667   0.3333333   0.1666667), wk =   0.1111111
        k(   23) = (   0.1666667   0.3333333   0.3333333), wk =   0.1111111
        k(   24) = (   0.1666667   0.3333333  -0.5000000), wk =   0.1111111
        k(   25) = (   0.3333333   0.3333333   0.0000000), wk =   0.0185185
        k(   26) = (   0.3333333   0.3333333   0.1666667), wk =   0.0370370
        k(   27) = (   0.3333333   0.3333333   0.3333333), wk =   0.0370370
        k(   28) = (   0.3333333   0.3333333  -0.5000000), wk =   0.0185185
        k(   29) = (   0.0000000  -0.1666667   0.1666667), wk =   0.0555556
        k(   30) = (   0.0000000  -0.1666667   0.3333333), wk =   0.0555556
        k(   31) = (   0.0000000  -0.3333333   0.1666667), wk =   0.0555556
        k(   32) = (   0.0000000  -0.3333333   0.3333333), wk =   0.0555556
        k(   33) = (  -0.1666667  -0.3333333   0.1666667), wk =   0.1111111
        k(   34) = (  -0.1666667  -0.3333333   0.3333333), wk =   0.1111111

     Dense  grid:   319473 G-vectors     FFT dimensions: (  75,  75, 135)

     Smooth grid:   113089 G-vectors     FFT dimensions: (  54,  54,  96)

     Dynamical RAM for                 wfc:       1.94 MB

     Dynamical RAM for     wfc (w. buffer):      34.92 MB

     Dynamical RAM for           str. fact:       0.61 MB

     Dynamical RAM for           local pot:       0.00 MB

     Dynamical RAM for          nlocal pot:       5.60 MB

     Dynamical RAM for                qrad:       3.21 MB

     Dynamical RAM for          rho,v,vnew:       2.07 MB

     Dynamical RAM for               rhoin:       0.69 MB

     Dynamical RAM for            rho*nmix:       4.87 MB

     Dynamical RAM for           G-vectors:       1.20 MB

     Dynamical RAM for          h,s,v(r/c):       3.80 MB

     Dynamical RAM for          <psi|beta>:       0.91 MB

     Dynamical RAM for                 psi:       3.88 MB

     Dynamical RAM for                hpsi:       3.88 MB

     Dynamical RAM for                spsi:       3.88 MB

     Dynamical RAM for      wfcinit/wfcrot:       6.60 MB

     Dynamical RAM for           addusdens:      30.92 MB

     Dynamical RAM for          addusforce:      35.56 MB

     Estimated static dynamical RAM per process >      51.15 MB

     Estimated max dynamical RAM per process >      91.58 MB

     Estimated total dynamical RAM >       2.79 GB

     Check: negative core charge=   -0.000002

     Initial potential from superposition of free atoms

     starting charge     287.9404, renormalised to     288.0000
     Starting wfcs are  208 randomized atomic wfcs

     total cpu time spent up to now is       12.9 secs

     Self-consistent Calculation

     iteration #  1     ecut=    50.00 Ry     beta= 0.30
     Davidson diagonalization with overlap

---- Real-time Memory Report at c_bands before calling an iterative solver
            99 MiB given to the printing process from OS
             0 MiB allocation reported by mallinfo(arena+hblkhd)
        114861 MiB available memory on the node where the printing process lives
------------------
     ethr =  1.00E-02,  avg # of iterations =  2.0

     total cpu time spent up to now is       32.6 secs

     total energy              =   -2891.65223691 Ry
     estimated scf accuracy    <       5.42339650 Ry

     iteration #  2     ecut=    50.00 Ry     beta= 0.30
     Davidson diagonalization with overlap

---- Real-time Memory Report at c_bands before calling an iterative solver
           124 MiB given to the printing process from OS
             0 MiB allocation reported by mallinfo(arena+hblkhd)
        114081 MiB available memory on the node where the printing process lives
------------------
     ethr =  1.88E-03,  avg # of iterations =  2.0

     total cpu time spent up to now is       57.4 secs

     total energy              =   -2892.23536027 Ry
     estimated scf accuracy    <       0.86926887 Ry

     iteration #  3     ecut=    50.00 Ry     beta= 0.30
     Davidson diagonalization with overlap

---- Real-time Memory Report at c_bands before calling an iterative solver
           126 MiB given to the printing process from OS
             0 MiB allocation reported by mallinfo(arena+hblkhd)
        114078 MiB available memory on the node where the printing process lives
------------------
     ethr =  3.02E-04,  avg # of iterations =  7.6

     total cpu time spent up to now is      106.9 secs

     total energy              =   -2892.59922764 Ry
     estimated scf accuracy    <       0.56598037 Ry

     iteration #  4     ecut=    50.00 Ry     beta= 0.30
     Davidson diagonalization with overlap

---- Real-time Memory Report at c_bands before calling an iterative solver
           126 MiB given to the printing process from OS
             0 MiB allocation reported by mallinfo(arena+hblkhd)
        114053 MiB available memory on the node where the printing process lives
------------------
     ethr =  1.97E-04,  avg # of iterations =  7.1

     total cpu time spent up to now is      152.0 secs

     total energy              =   -2892.97058015 Ry
     estimated scf accuracy    <       0.36810066 Ry

     iteration #  5     ecut=    50.00 Ry     beta= 0.30
     Davidson diagonalization with overlap

---- Real-time Memory Report at c_bands before calling an iterative solver
           126 MiB given to the printing process from OS
             0 MiB allocation reported by mallinfo(arena+hblkhd)
        114055 MiB available memory on the node where the printing process lives
------------------
     ethr =  1.28E-04,  avg # of iterations =  3.0

     total cpu time spent up to now is      174.4 secs

     total energy              =   -2892.75615155 Ry
     estimated scf accuracy    <       0.48664759 Ry

     iteration #  6     ecut=    50.00 Ry     beta= 0.30
     Davidson diagonalization with overlap

---- Real-time Memory Report at c_bands before calling an iterative solver
           126 MiB given to the printing process from OS
             0 MiB allocation reported by mallinfo(arena+hblkhd)
        114047 MiB available memory on the node where the printing process lives
------------------
     ethr =  1.28E-04,  avg # of iterations =  2.0

     total cpu time spent up to now is      195.1 secs

     total energy              =   -2892.72693104 Ry
     estimated scf accuracy    <       0.10894951 Ry

     iteration #  7     ecut=    50.00 Ry     beta= 0.30
     Davidson diagonalization with overlap

---- Real-time Memory Report at c_bands before calling an iterative solver
           127 MiB given to the printing process from OS
             0 MiB allocation reported by mallinfo(arena+hblkhd)
        114046 MiB available memory on the node where the printing process lives
------------------
     ethr =  3.78E-05,  avg # of iterations =  7.1

     total cpu time spent up to now is      239.7 secs

     total energy              =   -2892.83300232 Ry
     estimated scf accuracy    <       0.08164059 Ry

     iteration #  8     ecut=    50.00 Ry     beta= 0.30
     Davidson diagonalization with overlap

---- Real-time Memory Report at c_bands before calling an iterative solver
           127 MiB given to the printing process from OS
             0 MiB allocation reported by mallinfo(arena+hblkhd)
        114044 MiB available memory on the node where the printing process lives
------------------
     ethr =  2.83E-05,  avg # of iterations =  1.2

     total cpu time spent up to now is      258.2 secs

     total energy              =   -2892.81668961 Ry
     estimated scf accuracy    <       0.06009645 Ry

     iteration #  9     ecut=    50.00 Ry     beta= 0.30
     Davidson diagonalization with overlap

---- Real-time Memory Report at c_bands before calling an iterative solver
           127 MiB given to the printing process from OS
             0 MiB allocation reported by mallinfo(arena+hblkhd)
        114038 MiB available memory on the node where the printing process lives
------------------
     ethr =  2.09E-05,  avg # of iterations =  1.8

     total cpu time spent up to now is      278.4 secs

     total energy              =   -2892.81503766 Ry
     estimated scf accuracy    <       0.02046820 Ry

     iteration # 10     ecut=    50.00 Ry     beta= 0.30
     Davidson diagonalization with overlap

---- Real-time Memory Report at c_bands before calling an iterative solver
           127 MiB given to the printing process from OS
             0 MiB allocation reported by mallinfo(arena+hblkhd)
        114031 MiB available memory on the node where the printing process lives
------------------
     ethr =  7.11E-06,  avg # of iterations =  4.9

     total cpu time spent up to now is      311.2 secs

     total energy              =   -2892.82071291 Ry
     estimated scf accuracy    <       0.00099297 Ry

     iteration # 11     ecut=    50.00 Ry     beta= 0.30
     Davidson diagonalization with overlap

---- Real-time Memory Report at c_bands before calling an iterative solver
           127 MiB given to the printing process from OS
             0 MiB allocation reported by mallinfo(arena+hblkhd)
        114031 MiB available memory on the node where the printing process lives
------------------
     ethr =  3.45E-07,  avg # of iterations =  7.6

     total cpu time spent up to now is      356.0 secs

     total energy              =   -2892.82146294 Ry
     estimated scf accuracy    <       0.00004048 Ry

     iteration # 12     ecut=    50.00 Ry     beta= 0.30
     Davidson diagonalization with overlap

---- Real-time Memory Report at c_bands before calling an iterative solver
           127 MiB given to the printing process from OS
             0 MiB allocation reported by mallinfo(arena+hblkhd)
        114031 MiB available memory on the node where the printing process lives
------------------
     ethr =  1.41E-08,  avg # of iterations =  9.7

     total cpu time spent up to now is      413.8 secs

     total energy              =   -2892.82148371 Ry
     estimated scf accuracy    <       0.00005557 Ry

     iteration # 13     ecut=    50.00 Ry     beta= 0.30
     Davidson diagonalization with overlap

---- Real-time Memory Report at c_bands before calling an iterative solver
           127 MiB given to the printing process from OS
             0 MiB allocation reported by mallinfo(arena+hblkhd)
        114031 MiB available memory on the node where the printing process lives
------------------
     ethr =  1.41E-08,  avg # of iterations =  8.4

     total cpu time spent up to now is      469.7 secs

     total energy              =   -2892.82163256 Ry
     estimated scf accuracy    <       0.00008472 Ry

     iteration # 14     ecut=    50.00 Ry     beta= 0.30
     Davidson diagonalization with overlap

---- Real-time Memory Report at c_bands before calling an iterative solver
           127 MiB given to the printing process from OS
             0 MiB allocation reported by mallinfo(arena+hblkhd)
        114031 MiB available memory on the node where the printing process lives
------------------
     ethr =  1.41E-08,  avg # of iterations =  8.9

     total cpu time spent up to now is      526.4 secs

     total energy              =   -2892.82158165 Ry
     estimated scf accuracy    <       0.00062011 Ry

     iteration # 15     ecut=    50.00 Ry     beta= 0.30
     Davidson diagonalization with overlap

---- Real-time Memory Report at c_bands before calling an iterative solver
           127 MiB given to the printing process from OS
             0 MiB allocation reported by mallinfo(arena+hblkhd)
        114031 MiB available memory on the node where the printing process lives
------------------
     ethr =  1.41E-08,  avg # of iterations =  2.0

     total cpu time spent up to now is      549.0 secs

     total energy              =   -2892.82154316 Ry
     estimated scf accuracy    <       0.00042796 Ry

     iteration # 16     ecut=    50.00 Ry     beta= 0.30
     Davidson diagonalization with overlap

---- Real-time Memory Report at c_bands before calling an iterative solver
           127 MiB given to the printing process from OS
             0 MiB allocation reported by mallinfo(arena+hblkhd)
        114031 MiB available memory on the node where the printing process lives
------------------
     ethr =  1.41E-08,  avg # of iterations =  4.8

     total cpu time spent up to now is      581.9 secs

     total energy              =   -2892.82148158 Ry
     estimated scf accuracy    <       0.00021321 Ry

     iteration # 17     ecut=    50.00 Ry     beta= 0.30
     Davidson diagonalization with overlap

---- Real-time Memory Report at c_bands before calling an iterative solver
           127 MiB given to the printing process from OS
             0 MiB allocation reported by mallinfo(arena+hblkhd)
        114031 MiB available memory on the node where the printing process lives
------------------
     ethr =  1.41E-08,  avg # of iterations =  7.4

     total cpu time spent up to now is      628.4 secs

     total energy              =   -2892.82150898 Ry
     estimated scf accuracy    <       0.00001151 Ry

     iteration # 18     ecut=    50.00 Ry     beta= 0.30
     Davidson diagonalization with overlap

---- Real-time Memory Report at c_bands before calling an iterative solver
           127 MiB given to the printing process from OS
             0 MiB allocation reported by mallinfo(arena+hblkhd)
        114031 MiB available memory on the node where the printing process lives
------------------
     ethr =  4.00E-09,  avg # of iterations =  5.4

     total cpu time spent up to now is      656.5 secs

     total energy              =   -2892.82150804 Ry
     estimated scf accuracy    <       0.00000419 Ry

     iteration # 19     ecut=    50.00 Ry     beta= 0.30
     Davidson diagonalization with overlap

---- Real-time Memory Report at c_bands before calling an iterative solver
           127 MiB given to the printing process from OS
             0 MiB allocation reported by mallinfo(arena+hblkhd)
        114031 MiB available memory on the node where the printing process lives
------------------
     ethr =  1.46E-09,  avg # of iterations =  8.0

     total cpu time spent up to now is      707.3 secs

     total energy              =   -2892.82151083 Ry
     estimated scf accuracy    <       0.00000387 Ry

     iteration # 20     ecut=    50.00 Ry     beta= 0.30
     Davidson diagonalization with overlap

---- Real-time Memory Report at c_bands before calling an iterative solver
           127 MiB given to the printing process from OS
             0 MiB allocation reported by mallinfo(arena+hblkhd)
        114031 MiB available memory on the node where the printing process lives
------------------
     ethr =  1.35E-09,  avg # of iterations =  1.3

     total cpu time spent up to now is      726.1 secs

     total energy              =   -2892.82151010 Ry
     estimated scf accuracy    <       0.00000174 Ry

     iteration # 21     ecut=    50.00 Ry     beta= 0.30
     Davidson diagonalization with overlap

---- Real-time Memory Report at c_bands before calling an iterative solver
           127 MiB given to the printing process from OS
             0 MiB allocation reported by mallinfo(arena+hblkhd)
        114031 MiB available memory on the node where the printing process lives
------------------
     ethr =  6.06E-10,  avg # of iterations =  4.2

     total cpu time spent up to now is      758.0 secs

     total energy              =   -2892.82151076 Ry
     estimated scf accuracy    <       0.00000002 Ry

     iteration # 22     ecut=    50.00 Ry     beta= 0.30
     Davidson diagonalization with overlap

---- Real-time Memory Report at c_bands before calling an iterative solver
           127 MiB given to the printing process from OS
             0 MiB allocation reported by mallinfo(arena+hblkhd)
        114031 MiB available memory on the node where the printing process lives
------------------
     c_bands:  1 eigenvalues not converged
     ethr =  5.84E-12,  avg # of iterations = 11.8

     total cpu time spent up to now is      834.6 secs

     total energy              =   -2892.82151094 Ry
     estimated scf accuracy    <       0.00000023 Ry

     iteration # 23     ecut=    50.00 Ry     beta= 0.30
     Davidson diagonalization with overlap

---- Real-time Memory Report at c_bands before calling an iterative solver
           127 MiB given to the printing process from OS
             0 MiB allocation reported by mallinfo(arena+hblkhd)
        114031 MiB available memory on the node where the printing process lives
------------------
     ethr =  5.84E-12,  avg # of iterations =  3.7

     total cpu time spent up to now is      860.1 secs

     total energy              =   -2892.82151099 Ry
     estimated scf accuracy    <       0.00000031 Ry

     iteration # 24     ecut=    50.00 Ry     beta= 0.30
     Davidson diagonalization with overlap

---- Real-time Memory Report at c_bands before calling an iterative solver
           127 MiB given to the printing process from OS
             0 MiB allocation reported by mallinfo(arena+hblkhd)
        114031 MiB available memory on the node where the printing process lives
------------------
     ethr =  5.84E-12,  avg # of iterations =  7.4

     total cpu time spent up to now is      907.8 secs

     total energy              =   -2892.82151087 Ry
     estimated scf accuracy    <       0.00000058 Ry

     iteration # 25     ecut=    50.00 Ry     beta= 0.30
     Davidson diagonalization with overlap

---- Real-time Memory Report at c_bands before calling an iterative solver
           127 MiB given to the printing process from OS
             0 MiB allocation reported by mallinfo(arena+hblkhd)
        114031 MiB available memory on the node where the printing process lives
------------------
     ethr =  5.84E-12,  avg # of iterations =  7.8

     total cpu time spent up to now is      959.9 secs

     total energy              =   -2892.82151082 Ry
     estimated scf accuracy    <       0.00000021 Ry

     iteration # 26     ecut=    50.00 Ry     beta= 0.30
     Davidson diagonalization with overlap

---- Real-time Memory Report at c_bands before calling an iterative solver
           127 MiB given to the printing process from OS
             0 MiB allocation reported by mallinfo(arena+hblkhd)
        114031 MiB available memory on the node where the printing process lives
------------------
     ethr =  5.84E-12,  avg # of iterations =  9.7

     total cpu time spent up to now is     1018.9 secs

     total energy              =   -2892.82151086 Ry
     estimated scf accuracy    <       0.00000001 Ry

     iteration # 27     ecut=    50.00 Ry     beta= 0.30
     Davidson diagonalization with overlap

---- Real-time Memory Report at c_bands before calling an iterative solver
           127 MiB given to the printing process from OS
             0 MiB allocation reported by mallinfo(arena+hblkhd)
        114031 MiB available memory on the node where the printing process lives
------------------
     ethr =  3.59E-12,  avg # of iterations =  6.5

     total cpu time spent up to now is     1064.6 secs

     total energy              =   -2892.82151088 Ry
     estimated scf accuracy    <       0.00000008 Ry

     iteration # 28     ecut=    50.00 Ry     beta= 0.30
     Davidson diagonalization with overlap

---- Real-time Memory Report at c_bands before calling an iterative solver
           127 MiB given to the printing process from OS
             0 MiB allocation reported by mallinfo(arena+hblkhd)
        114031 MiB available memory on the node where the printing process lives
------------------
     ethr =  3.59E-12,  avg # of iterations =  5.9

     total cpu time spent up to now is     1100.7 secs

     total energy              =   -2892.82151088 Ry
     estimated scf accuracy    <       0.00000017 Ry

     iteration # 29     ecut=    50.00 Ry     beta= 0.30
     Davidson diagonalization with overlap

---- Real-time Memory Report at c_bands before calling an iterative solver
           127 MiB given to the printing process from OS
             0 MiB allocation reported by mallinfo(arena+hblkhd)
        114031 MiB available memory on the node where the printing process lives
------------------
     ethr =  3.59E-12,  avg # of iterations =  1.4

     total cpu time spent up to now is     1119.7 secs

     total energy              =   -2892.82151088 Ry
     estimated scf accuracy    <       0.00000016 Ry

     iteration # 30     ecut=    50.00 Ry     beta= 0.30
     Davidson diagonalization with overlap

---- Real-time Memory Report at c_bands before calling an iterative solver
           127 MiB given to the printing process from OS
             0 MiB allocation reported by mallinfo(arena+hblkhd)
        114031 MiB available memory on the node where the printing process lives
------------------
     ethr =  3.59E-12,  avg # of iterations =  1.0

     total cpu time spent up to now is     1137.5 secs

     total energy              =   -2892.82151084 Ry
     estimated scf accuracy    <       0.00000016 Ry

     iteration # 31     ecut=    50.00 Ry     beta= 0.30
     Davidson diagonalization with overlap

---- Real-time Memory Report at c_bands before calling an iterative solver
           127 MiB given to the printing process from OS
             0 MiB allocation reported by mallinfo(arena+hblkhd)
        114031 MiB available memory on the node where the printing process lives
------------------
     ethr =  3.59E-12,  avg # of iterations =  6.9

     total cpu time spent up to now is     1184.3 secs

     total energy              =   -2892.82151085 Ry
     estimated scf accuracy    <       0.00000005 Ry

     iteration # 32     ecut=    50.00 Ry     beta= 0.30
     Davidson diagonalization with overlap

---- Real-time Memory Report at c_bands before calling an iterative solver
           127 MiB given to the printing process from OS
             0 MiB allocation reported by mallinfo(arena+hblkhd)
        114031 MiB available memory on the node where the printing process lives
------------------
     ethr =  3.59E-12,  avg # of iterations =  1.9

     total cpu time spent up to now is     1204.5 secs

     total energy              =   -2892.82151085 Ry
     estimated scf accuracy    <       0.00000004 Ry

     iteration # 33     ecut=    50.00 Ry     beta= 0.30
     Davidson diagonalization with overlap

---- Real-time Memory Report at c_bands before calling an iterative solver
           127 MiB given to the printing process from OS
             0 MiB allocation reported by mallinfo(arena+hblkhd)
        114032 MiB available memory on the node where the printing process lives
------------------
     ethr =  3.59E-12,  avg # of iterations =  2.0

     total cpu time spent up to now is     1224.5 secs

     total energy              =   -2892.82151083 Ry
     estimated scf accuracy    <       0.00000003 Ry

     iteration # 34     ecut=    50.00 Ry     beta= 0.30
     Davidson diagonalization with overlap

---- Real-time Memory Report at c_bands before calling an iterative solver
           127 MiB given to the printing process from OS
             0 MiB allocation reported by mallinfo(arena+hblkhd)
        114032 MiB available memory on the node where the printing process lives
------------------
     ethr =  3.59E-12,  avg # of iterations =  7.7

     total cpu time spent up to now is     1271.4 secs

     End of self-consistent calculation

          k = 0.0000 0.0000 0.0000 ( 14139 PWs)   bands (ev):

   -10.2463  -9.9027  -9.9027  -9.5329  -9.3842  -9.3842  -9.3842  -9.2719
    -9.2718  -9.2718  -9.2718  -9.2718  -9.2718  -9.1708  -9.1708  -9.1708
     1.8567   1.8567   1.8567   1.8567   1.8567   1.8567   2.0292   2.0292
     2.0293   2.0769   2.0931   2.0931   2.0931   2.1344   2.1344   2.3706
     2.3706   2.4447   2.4447   2.4448   2.4448   2.4478   2.5459   2.5459
     2.7152   2.7152   2.7152   2.9411   2.9411   2.9411   2.9411   2.9411
     2.9411   3.1111   3.1111   3.1111   3.1111   3.1111   3.1111   3.1896
     3.1896   3.1896   3.1979   3.1979   3.1979   3.2250   3.2250   3.2250
     3.9083   3.9083   3.9155   3.9155   3.9155   4.0176   4.0176   4.0176
     4.0176   4.1024   4.1024   4.1120   4.1120   4.1120   4.1342   4.1342
     4.1342   4.1342   4.1342   4.1342   4.1783   4.1783   4.1783   4.1949
     4.1949   4.1949   4.1949   4.1949   4.1949   4.2798   4.2798   4.2798
     4.4887   4.5648   4.5648   4.5648   4.5648   4.5648   4.5648   4.6283
     4.6283   4.6283   4.6297   4.6297   4.6297   5.5729   5.5729   5.5729
     6.0639   6.0639   6.3547   6.3547   6.3547   6.8294   6.8294   6.8294
     6.8294   6.8294   6.8294   7.0177   7.0177   7.0177   7.0177   7.0177
     7.0177   7.0804   7.0804   7.0804   7.6235   7.6235   7.6235   7.9823
     7.9823   8.3159   8.3325   8.3325   8.3325   8.3325   8.6819   8.6819

     occupation numbers 
     1.0000   1.0000   1.0000   1.0000   1.0000   1.0000   1.0000   1.0000
     1.0000   1.0000   1.0000   1.0000   1.0000   1.0000   1.0000   1.0000
     1.0000   1.0000   1.0000   1.0000   1.0000   1.0000   1.0000   1.0000
     1.0000   1.0000   1.0000   1.0000   1.0000   1.0000   1.0000   1.0000
     1.0000   1.0000   1.0000   1.0000   1.0000   1.0000   1.0000   1.0000
     1.0000   1.0000   1.0000   1.0000   1.0000   1.0000   1.0000   1.0000
     1.0000   1.0000   1.0000   1.0000   1.0000   1.0000   1.0000   1.0000
     1.0000   1.0000   1.0000   1.0000   1.0000   1.0000   1.0000   1.0000
     1.0000   1.0000   1.0000   1.0000   1.0000   1.0000   1.0000   1.0000
     1.0000   1.0000   1.0000   1.0000   1.0000   1.0000   1.0000   1.0000
     1.0000   1.0000   1.0000   1.0000   1.0000   1.0000   1.0000   1.0000
     1.0000   1.0000   1.0000   1.0000   1.0000   1.0000   1.0000   1.0000
     1.0000   1.0000   1.0000   1.0000   1.0000   1.0000   1.0000   1.0000
     1.0000   1.0000   1.0000   1.0000   1.0000   1.0000   1.0000   1.0000
     1.0000   1.0000   1.0000   1.0000   1.0000   1.0000   1.0000   1.0000
     1.0000   1.0000   1.0000   1.0000   1.0000   1.0000   1.0000   1.0000
     1.0000   1.0000   1.0000   1.0000   1.0000   1.0000   1.0000   1.0000
     1.0000   1.0000   1.0000   1.0000   1.0000   1.0000   1.0000   1.0000

          k = 0.0000 0.0000 0.0956 ( 14109 PWs)   bands (ev):

   -10.2349  -9.9939  -9.8096  -9.5459  -9.3802  -9.3802  -9.3802  -9.2999
    -9.2999  -9.2999  -9.2445  -9.2445  -9.2445  -9.1740  -9.1740  -9.1740
     1.8671   1.8671   1.8671   1.8722   1.8722   1.8722   2.0174   2.0174
     2.0174   2.0714   2.0758   2.0758   2.0758   2.0870   2.1972   2.3733
     2.3733   2.4233   2.4233   2.4345   2.4682   2.4682   2.5422   2.5422
     2.7220   2.7220   2.7220   2.8781   2.8781   2.8781   3.0077   3.0077
     3.0077   3.1094   3.1094   3.1094   3.1205   3.1205   3.1205   3.1845
     3.1845   3.1845   3.1864   3.1865   3.1865   3.2140   3.2140   3.2140
     3.9127   3.9127   3.9344   3.9344   3.9344   3.9915   3.9915   4.0422
     4.0422   4.1009   4.1009   4.1126   4.1126   4.1126   4.1273   4.1273
     4.1273   4.1421   4.1421   4.1421   4.1507   4.1507   4.1507   4.1759
     4.1759   4.1759   4.2292   4.2292   4.2292   4.2789   4.2789   4.2789
     4.5475   4.5650   4.5650   4.5650   4.5713   4.5713   4.5713   4.6207
     4.6207   4.6207   4.6254   4.6254   4.6254   5.6329   5.6329   5.6329
     5.6630   6.3790   6.3790   6.3790   6.4825   6.5898   6.5898   6.5898
     6.8541   6.8541   6.8541   7.0059   7.0059   7.0059   7.0929   7.0929
     7.0929   7.1777   7.1777   7.1777   7.6032   7.6032   7.6033   7.9943
     7.9943   8.1307   8.2419   8.2419   8.4231   8.4231   8.6701   8.6701

     occupation numbers 
     1.0000   1.0000   1.0000   1.0000   1.0000   1.0000   1.0000   1.0000
     1.0000   1.0000   1.0000   1.0000   1.0000   1.0000   1.0000   1.0000
     1.0000   1.0000   1.0000   1.0000   1.0000   1.0000   1.0000   1.0000
     1.0000   1.0000   1.0000   1.0000   1.0000   1.0000   1.0000   1.0000
     1.0000   1.0000   1.0000   1.0000   1.0000   1.0000   1.0000   1.0000
     1.0000   1.0000   1.0000   1.0000   1.0000   1.0000   1.0000   1.0000
     1.0000   1.0000   1.0000   1.0000   1.0000   1.0000   1.0000   1.0000
     1.0000   1.0000   1.0000   1.0000   1.0000   1.0000   1.0000   1.0000
     1.0000   1.0000   1.0000   1.0000   1.0000   1.0000   1.0000   1.0000
     1.0000   1.0000   1.0000   1.0000   1.0000   1.0000   1.0000   1.0000
     1.0000   1.0000   1.0000   1.0000   1.0000   1.0000   1.0000   1.0000
     1.0000   1.0000   1.0000   1.0000   1.0000   1.0000   1.0000   1.0000
     1.0000   1.0000   1.0000   1.0000   1.0000   1.0000   1.0000   1.0000
     1.0000   1.0000   1.0000   1.0000   1.0000   1.0000   1.0000   1.0000
     1.0000   1.0000   1.0000   1.0000   1.0000   1.0000   1.0000   1.0000
     1.0000   1.0000   1.0000   1.0000   1.0000   1.0000   1.0000   1.0000
     1.0000   1.0000   1.0000   1.0000   1.0000   1.0000   1.0000   1.0000
     1.0000   1.0000   1.0000   1.0000   1.0000   1.0000   1.0000   1.0000

          k = 0.0000 0.0000 0.1912 ( 14086 PWs)   bands (ev):

   -10.2016 -10.0775  -9.7213  -9.5841  -9.3686  -9.3686  -9.3686  -9.3268
    -9.3267  -9.3267  -9.2198  -9.2198  -9.2198  -9.1836  -9.1836  -9.1836
     1.8986   1.8986   1.8986   1.9125   1.9125   1.9125   1.9855   1.9855
     1.9855   2.0298   2.0298   2.0298   2.0593   2.0595   2.2684   2.3796
     2.3796   2.3957   2.4047   2.4047   2.4916   2.4916   2.5307   2.5307
     2.7429   2.7429   2.7429   2.8224   2.8224   2.8224   3.0739   3.0739
     3.0739   3.1170   3.1170   3.1170   3.1355   3.1355   3.1355   3.1607
     3.1607   3.1607   3.1713   3.1713   3.1713   3.1826   3.1826   3.1826
     3.9245   3.9245   3.9659   3.9659   3.9816   3.9816   3.9816   4.0636
     4.0636   4.0934   4.0934   4.0983   4.0983   4.0983   4.1146   4.1146
     4.1146   4.1219   4.1219   4.1219   4.1513   4.1513   4.1513   4.1698
     4.1698   4.1698   4.2531   4.2531   4.2531   4.2757   4.2757   4.2757
     4.5720   4.5720   4.5720   4.5833   4.5833   4.5833   4.6032   4.6032
     4.6032   4.6140   4.6140   4.6140   4.7132   5.2925   5.7988   5.7988
     5.7988   6.3146   6.3146   6.3146   6.4496   6.4496   6.4496   6.6976
     6.6976   6.6976   6.9098   7.1057   7.1057   7.1057   7.1203   7.1203
     7.1203   7.3244   7.3244   7.3244   7.5439   7.5439   7.5439   7.7569
     8.0293   8.0293   8.1574   8.1574   8.5074   8.5074   8.6353   8.6353

     occupation numbers 
     1.0000   1.0000   1.0000   1.0000   1.0000   1.0000   1.0000   1.0000
     1.0000   1.0000   1.0000   1.0000   1.0000   1.0000   1.0000   1.0000
     1.0000   1.0000   1.0000   1.0000   1.0000   1.0000   1.0000   1.0000
     1.0000   1.0000   1.0000   1.0000   1.0000   1.0000   1.0000   1.0000
     1.0000   1.0000   1.0000   1.0000   1.0000   1.0000   1.0000   1.0000
     1.0000   1.0000   1.0000   1.0000   1.0000   1.0000   1.0000   1.0000
     1.0000   1.0000   1.0000   1.0000   1.0000   1.0000   1.0000   1.0000
     1.0000   1.0000   1.0000   1.0000   1.0000   1.0000   1.0000   1.0000
     1.0000   1.0000   1.0000   1.0000   1.0000   1.0000   1.0000   1.0000
     1.0000   1.0000   1.0000   1.0000   1.0000   1.0000   1.0000   1.0000
     1.0000   1.0000   1.0000   1.0000   1.0000   1.0000   1.0000   1.0000
     1.0000   1.0000   1.0000   1.0000   1.0000   1.0000   1.0000   1.0000
     1.0000   1.0000   1.0000   1.0000   1.0000   1.0000   1.0000   1.0000
     1.0000   1.0000   1.0000   1.0000   1.0000   1.0000   1.0000   1.0000
     1.0000   1.0000   1.0000   1.0000   1.0000   1.0000   1.0000   1.0000
     1.0000   1.0000   1.0000   1.0000   1.0000   1.0000   1.0000   1.0000
     1.0000   1.0000   1.0000   1.0000   1.0000   1.0000   1.0000   1.0000
     1.0000   1.0000   1.0000   1.0000   1.0000   1.0000   1.0000   1.0000

          k = 0.0000 0.0000-0.2868 ( 14110 PWs)   bands (ev):

   -10.1481 -10.1481  -9.6442  -9.6441  -9.3503  -9.3503  -9.3503  -9.3503
    -9.3502  -9.3502  -9.1991  -9.1991  -9.1991  -9.1991  -9.1991  -9.1991
     1.9420   1.9420   1.9420   1.9420   1.9420   1.9420   1.9696   1.9696
     1.9696   1.9696   1.9696   1.9696   2.0521   2.0521   2.3377   2.3377
     2.3901   2.3901   2.3901   2.3901   2.5132   2.5132   2.5132   2.5132
     2.7767   2.7767   2.7767   2.7767   2.7767   2.7767   3.1341   3.1341
     3.1341   3.1341   3.1341   3.1341   3.1347   3.1347   3.1347   3.1347
     3.1347   3.1347   3.1535   3.1535   3.1535   3.1536   3.1536   3.1536
     3.9425   3.9425   3.9426   3.9426   4.0401   4.0401   4.0401   4.0401
     4.0401   4.0401   4.0810   4.0810   4.0810   4.0810   4.1177   4.1177
     4.1177   4.1177   4.1177   4.1177   4.1609   4.1609   4.1609   4.1609
     4.1609   4.1609   4.2679   4.2679   4.2679   4.2679   4.2679   4.2679
     4.5852   4.5852   4.5852   4.5852   4.5852   4.5852   4.5986   4.5986
     4.5986   4.5986   4.5986   4.5986   4.9691   4.9691   6.0385   6.0385
     6.0385   6.0385   6.0385   6.0385   6.5591   6.5591   6.5591   6.5591
     6.5591   6.5591   7.1355   7.1355   7.1355   7.1355   7.1355   7.1355
     7.3381   7.3381   7.4490   7.4490   7.4490   7.4490   7.4490   7.4490
     8.0849   8.0849   8.0849   8.0849   8.5798   8.5798   8.5798   8.5798

     occupation numbers 
     1.0000   1.0000   1.0000   1.0000   1.0000   1.0000   1.0000   1.0000
     1.0000   1.0000   1.0000   1.0000   1.0000   1.0000   1.0000   1.0000
     1.0000   1.0000   1.0000   1.0000   1.0000   1.0000   1.0000   1.0000
     1.0000   1.0000   1.0000   1.0000   1.0000   1.0000   1.0000   1.0000
     1.0000   1.0000   1.0000   1.0000   1.0000   1.0000   1.0000   1.0000
     1.0000   1.0000   1.0000   1.0000   1.0000   1.0000   1.0000   1.0000
     1.0000   1.0000   1.0000   1.0000   1.0000   1.0000   1.0000   1.0000
     1.0000   1.0000   1.0000   1.0000   1.0000   1.0000   1.0000   1.0000
     1.0000   1.0000   1.0000   1.0000   1.0000   1.0000   1.0000   1.0000
     1.0000   1.0000   1.0000   1.0000   1.0000   1.0000   1.0000   1.0000
     1.0000   1.0000   1.0000   1.0000   1.0000   1.0000   1.0000   1.0000
     1.0000   1.0000   1.0000   1.0000   1.0000   1.0000   1.0000   1.0000
     1.0000   1.0000   1.0000   1.0000   1.0000   1.0000   1.0000   1.0000
     1.0000   1.0000   1.0000   1.0000   1.0000   1.0000   1.0000   1.0000
     1.0000   1.0000   1.0000   1.0000   1.0000   1.0000   1.0000   1.0000
     1.0000   1.0000   1.0000   1.0000   1.0000   1.0000   1.0000   1.0000
     1.0000   1.0000   1.0000   1.0000   1.0000   1.0000   1.0000   1.0000
     1.0000   1.0000   1.0000   1.0000   1.0000   1.0000   1.0000   1.0000

          k = 0.0000 0.1925 0.0000 ( 14111 PWs)   bands (ev):

   -10.1971  -9.8628  -9.8628  -9.5047  -9.4607  -9.3879  -9.3878  -9.3167
    -9.3167  -9.2731  -9.2731  -9.2731  -9.2731  -9.1815  -9.1694  -9.1694
     1.8593   1.8594   1.9131   1.9131   1.9131   1.9131   1.9350   2.0399
     2.0400   2.1095   2.1095   2.1459   2.2054   2.2054   2.2054   2.3213
     2.3999   2.4717   2.4717   2.4748   2.4779   2.4779   2.5346   2.5835
     2.7002   2.7002   2.7010   2.8951   2.8952   2.8952   2.8952   2.9102
     2.9102   3.0438   3.0438   3.0955   3.1090   3.1090   3.1090   3.1090
     3.1247   3.1247   3.1697   3.2009   3.2087   3.2087   3.2360   3.2360
     3.8598   3.8847   3.8955   3.8955   3.9044   4.0131   4.0131   4.0154
     4.0154   4.0373   4.0373   4.0723   4.0807   4.0807   4.0807   4.0807
     4.0984   4.0984   4.1053   4.1089   4.1089   4.1287   4.1651   4.1927
     4.1927   4.2229   4.2229   4.2229   4.2229   4.3256   4.3256   4.3573
     4.4764   4.4862   4.5326   4.5326   4.6657   4.6657   4.6657   4.6657
     4.7951   4.8145   4.8145   4.8618   4.8618   5.5735   5.5735   5.7554
     6.0826   6.0826   6.2283   6.2283   6.4823   6.7007   6.7007   6.7007
     6.7007   6.8182   6.8182   6.9814   6.9814   6.9814   6.9814   7.0543
     7.0543   7.1173   7.1173   7.2454   7.5224   7.5224   7.6877   7.7046
     7.8807   8.0752   8.0752   8.1505   8.2507   8.2507   8.3229   8.6187

     occupation numbers 
     1.0000   1.0000   1.0000   1.0000   1.0000   1.0000   1.0000   1.0000
     1.0000   1.0000   1.0000   1.0000   1.0000   1.0000   1.0000   1.0000
     1.0000   1.0000   1.0000   1.0000   1.0000   1.0000   1.0000   1.0000
     1.0000   1.0000   1.0000   1.0000   1.0000   1.0000   1.0000   1.0000
     1.0000   1.0000   1.0000   1.0000   1.0000   1.0000   1.0000   1.0000
     1.0000   1.0000   1.0000   1.0000   1.0000   1.0000   1.0000   1.0000
     1.0000   1.0000   1.0000   1.0000   1.0000   1.0000   1.0000   1.0000
     1.0000   1.0000   1.0000   1.0000   1.0000   1.0000   1.0000   1.0000
     1.0000   1.0000   1.0000   1.0000   1.0000   1.0000   1.0000   1.0000
     1.0000   1.0000   1.0000   1.0000   1.0000   1.0000   1.0000   1.0000
     1.0000   1.0000   1.0000   1.0000   1.0000   1.0000   1.0000   1.0000
     1.0000   1.0000   1.0000   1.0000   1.0000   1.0000   1.0000   1.0000
     1.0000   1.0000   1.0000   1.0000   1.0000   1.0000   1.0000   1.0000
     1.0000   1.0000   1.0000   1.0000   1.0000   1.0000   1.0000   1.0000
     1.0000   1.0000   1.0000   1.0000   1.0000   1.0000   1.0000   1.0000
     1.0000   1.0000   1.0000   1.0000   1.0000   1.0000   1.0000   1.0000
     1.0000   1.0000   1.0000   1.0000   1.0000   1.0000   1.0000   1.0000
     1.0000   1.0000   1.0000   1.0000   1.0000   1.0000   1.0000   1.0000

          k = 0.0000 0.1925 0.0956 ( 14103 PWs)   bands (ev):

   -10.1861  -9.9515  -9.7726  -9.5174  -9.4557  -9.3838  -9.3838  -9.3532
    -9.3018  -9.3018  -9.2808  -9.2452  -9.2451  -9.1860  -9.1728  -9.1728
     1.8453   1.8999   1.9113   1.9113   1.9269   1.9415   1.9415   2.0300
     2.0300   2.0786   2.1344   2.1568   2.1835   2.1858   2.1858   2.3157
     2.4022   2.4552   2.4570   2.4693   2.4889   2.5024   2.5338   2.5793
     2.7053   2.7053   2.7074   2.8374   2.8374   2.8521   2.9569   2.9569
     2.9716   3.0341   3.0632   3.0875   3.1065   3.1065   3.1167   3.1167
     3.1209   3.1209   3.1597   3.1880   3.2020   3.2020   3.2219   3.2219
     3.8692   3.8895   3.9085   3.9085   3.9085   3.9822   3.9885   4.0410
     4.0422   4.0427   4.0442   4.0442   4.0591   4.0591   4.0733   4.0894
     4.0894   4.0984   4.1028   4.1206   4.1226   4.1537   4.1623   4.1913
     4.1913   4.1992   4.1992   4.2551   4.2551   4.3282   4.3282   4.3459
     4.5029   4.5235   4.5235   4.5395   4.6106   4.6106   4.7205   4.7205
     4.7877   4.8212   4.8212   4.8337   4.9249   5.6217   5.6217   5.6851
     5.7753   6.2541   6.2541   6.4848   6.4848   6.4898   6.5054   6.5486
     6.7643   6.7643   6.9154   6.9154   6.9596   7.0361   7.0650   7.0650
     7.1352   7.1352   7.2528   7.2721   7.5026   7.5026   7.6849   7.6969
     7.8933   7.9764   7.9871   8.1551   8.1743   8.3461   8.3711   8.6062

     occupation numbers 
     1.0000   1.0000   1.0000   1.0000   1.0000   1.0000   1.0000   1.0000
     1.0000   1.0000   1.0000   1.0000   1.0000   1.0000   1.0000   1.0000
     1.0000   1.0000   1.0000   1.0000   1.0000   1.0000   1.0000   1.0000
     1.0000   1.0000   1.0000   1.0000   1.0000   1.0000   1.0000   1.0000
     1.0000   1.0000   1.0000   1.0000   1.0000   1.0000   1.0000   1.0000
     1.0000   1.0000   1.0000   1.0000   1.0000   1.0000   1.0000   1.0000
     1.0000   1.0000   1.0000   1.0000   1.0000   1.0000   1.0000   1.0000
     1.0000   1.0000   1.0000   1.0000   1.0000   1.0000   1.0000   1.0000
     1.0000   1.0000   1.0000   1.0000   1.0000   1.0000   1.0000   1.0000
     1.0000   1.0000   1.0000   1.0000   1.0000   1.0000   1.0000   1.0000
     1.0000   1.0000   1.0000   1.0000   1.0000   1.0000   1.0000   1.0000
     1.0000   1.0000   1.0000   1.0000   1.0000   1.0000   1.0000   1.0000
     1.0000   1.0000   1.0000   1.0000   1.0000   1.0000   1.0000   1.0000
     1.0000   1.0000   1.0000   1.0000   1.0000   1.0000   1.0000   1.0000
     1.0000   1.0000   1.0000   1.0000   1.0000   1.0000   1.0000   1.0000
     1.0000   1.0000   1.0000   1.0000   1.0000   1.0000   1.0000   1.0000
     1.0000   1.0000   1.0000   1.0000   1.0000   1.0000   1.0000   1.0000
     1.0000   1.0000   1.0000   1.0000   1.0000   1.0000   1.0000   1.0000

          k = 0.0000 0.1925 0.1912 ( 14125 PWs)   bands (ev):

   -10.1536 -10.0327  -9.6870  -9.5542  -9.4410  -9.3878  -9.3719  -9.3719
    -9.3292  -9.3292  -9.2479  -9.2198  -9.2198  -9.1991  -9.1826  -9.1826
     1.8539   1.9052   1.9320   1.9320   1.9646   1.9944   1.9944   2.0028
     2.0028   2.0691   2.1073   2.1242   2.1332   2.1332   2.2114   2.2971
     2.4089   2.4356   2.4481   2.4570   2.5062   2.5269   2.5297   2.5675
     2.7210   2.7210   2.7267   2.7876   2.7876   2.8004   3.0155   3.0155
     3.0321   3.0354   3.0682   3.0900   3.0949   3.0950   3.1171   3.1171
     3.1311   3.1397   3.1397   3.1576   3.1828   3.1828   3.1881   3.1881
     3.8966   3.9036   3.9204   3.9413   3.9413   3.9522   3.9623   3.9881
     4.0250   4.0250   4.0602   4.0602   4.0634   4.0684   4.0766   4.0871
     4.0871   4.0891   4.0949   4.1087   4.1327   4.1552   4.1875   4.1875
     4.1880   4.1880   4.2079   4.2887   4.2887   4.3101   4.3294   4.3294
     4.5127   4.5127   4.5559   4.5607   4.5607   4.7087   4.7160   4.7696
     4.7696   4.8245   4.8245   4.9124   4.9653   5.3119   5.7637   5.7637
     5.8526   6.2344   6.2344   6.2654   6.3292   6.3292   6.5723   6.6003
     6.6003   6.8091   6.8954   7.0277   7.0277   7.0854   7.0854   7.1804
     7.2588   7.2588   7.2637   7.4142   7.4459   7.4459   7.6272   7.6366
     7.7706   7.8855   7.9303   8.0659   8.2654   8.3803   8.4349   8.5695

     occupation numbers 
     1.0000   1.0000   1.0000   1.0000   1.0000   1.0000   1.0000   1.0000
     1.0000   1.0000   1.0000   1.0000   1.0000   1.0000   1.0000   1.0000
     1.0000   1.0000   1.0000   1.0000   1.0000   1.0000   1.0000   1.0000
     1.0000   1.0000   1.0000   1.0000   1.0000   1.0000   1.0000   1.0000
     1.0000   1.0000   1.0000   1.0000   1.0000   1.0000   1.0000   1.0000
     1.0000   1.0000   1.0000   1.0000   1.0000   1.0000   1.0000   1.0000
     1.0000   1.0000   1.0000   1.0000   1.0000   1.0000   1.0000   1.0000
     1.0000   1.0000   1.0000   1.0000   1.0000   1.0000   1.0000   1.0000
     1.0000   1.0000   1.0000   1.0000   1.0000   1.0000   1.0000   1.0000
     1.0000   1.0000   1.0000   1.0000   1.0000   1.0000   1.0000   1.0000
     1.0000   1.0000   1.0000   1.0000   1.0000   1.0000   1.0000   1.0000
     1.0000   1.0000   1.0000   1.0000   1.0000   1.0000   1.0000   1.0000
     1.0000   1.0000   1.0000   1.0000   1.0000   1.0000   1.0000   1.0000
     1.0000   1.0000   1.0000   1.0000   1.0000   1.0000   1.0000   1.0000
     1.0000   1.0000   1.0000   1.0000   1.0000   1.0000   1.0000   1.0000
     1.0000   1.0000   1.0000   1.0000   1.0000   1.0000   1.0000   1.0000
     1.0000   1.0000   1.0000   1.0000   1.0000   1.0000   1.0000   1.0000
     1.0000   1.0000   1.0000   1.0000   1.0000   1.0000   1.0000   1.0000

          k = 0.0000 0.1925-0.2868 ( 14112 PWs)   bands (ev):

   -10.1015 -10.1015  -9.6123  -9.6123  -9.4178  -9.4177  -9.3532  -9.3532
    -9.3532  -9.3532  -9.2201  -9.2201  -9.1986  -9.1986  -9.1985  -9.1985
     1.8775   1.8775   1.9664   1.9664   1.9664   1.9664   2.0447   2.0447
     2.0633   2.0633   2.0633   2.0633   2.0810   2.0810   2.2616   2.2616
     2.4201   2.4201   2.4480   2.4480   2.5205   2.5205   2.5494   2.5495
     2.7484   2.7484   2.7484   2.7484   2.7581   2.7581   3.0479   3.0479
     3.0624   3.0624   3.0624   3.0624   3.0870   3.0870   3.1226   3.1226
     3.1453   3.1453   3.1453   3.1453   3.1624   3.1624   3.1624   3.1624
     3.9252   3.9253   3.9380   3.9380   3.9391   3.9391   3.9831   3.9831
     3.9831   3.9831   4.0763   4.0763   4.0763   4.0763   4.0816   4.0816
     4.0819   4.0819   4.0906   4.0906   4.1448   4.1448   4.1853   4.1853
     4.1854   4.1854   4.2611   4.2611   4.3163   4.3163   4.3163   4.3163
     4.5244   4.5244   4.5244   4.5244   4.6293   4.6293   4.8068   4.8068
     4.8068   4.8068   4.9656   4.9656   4.9816   4.9817   5.9804   5.9804
     5.9805   5.9805   6.0181   6.0181   6.4476   6.4476   6.4476   6.4476
     6.6766   6.6766   7.0846   7.0846   7.0846   7.0846   7.2499   7.2499
     7.2879   7.2879   7.3610   7.3610   7.3610   7.3610   7.5350   7.5350
     7.8098   7.8099   7.9892   7.9893   8.3385   8.3385   8.5111   8.5112

     occupation numbers 
     1.0000   1.0000   1.0000   1.0000   1.0000   1.0000   1.0000   1.0000
     1.0000   1.0000   1.0000   1.0000   1.0000   1.0000   1.0000   1.0000
     1.0000   1.0000   1.0000   1.0000   1.0000   1.0000   1.0000   1.0000
     1.0000   1.0000   1.0000   1.0000   1.0000   1.0000   1.0000   1.0000
     1.0000   1.0000   1.0000   1.0000   1.0000   1.0000   1.0000   1.0000
     1.0000   1.0000   1.0000   1.0000   1.0000   1.0000   1.0000   1.0000
     1.0000   1.0000   1.0000   1.0000   1.0000   1.0000   1.0000   1.0000
     1.0000   1.0000   1.0000   1.0000   1.0000   1.0000   1.0000   1.0000
     1.0000   1.0000   1.0000   1.0000   1.0000   1.0000   1.0000   1.0000
     1.0000   1.0000   1.0000   1.0000   1.0000   1.0000   1.0000   1.0000
     1.0000   1.0000   1.0000   1.0000   1.0000   1.0000   1.0000   1.0000
     1.0000   1.0000   1.0000   1.0000   1.0000   1.0000   1.0000   1.0000
     1.0000   1.0000   1.0000   1.0000   1.0000   1.0000   1.0000   1.0000
     1.0000   1.0000   1.0000   1.0000   1.0000   1.0000   1.0000   1.0000
     1.0000   1.0000   1.0000   1.0000   1.0000   1.0000   1.0000   1.0000
     1.0000   1.0000   1.0000   1.0000   1.0000   1.0000   1.0000   1.0000
     1.0000   1.0000   1.0000   1.0000   1.0000   1.0000   1.0000   1.0000
     1.0000   1.0000   1.0000   1.0000   1.0000   1.0000   1.0000   1.0000

          k = 0.0000 0.3849 0.0000 ( 14148 PWs)   bands (ev):

   -10.0591  -9.7524  -9.7523  -9.6417  -9.4373  -9.4373  -9.4286  -9.3950
    -9.3950  -9.2757  -9.2757  -9.2757  -9.2757  -9.2348  -9.1670  -9.1670
     1.8832   1.8832   1.9071   2.0365   2.0365   2.0473   2.0473   2.0473
     2.0473   2.1359   2.1417   2.1417   2.3101   2.3586   2.3586   2.4039
     2.4698   2.4767   2.5634   2.5634   2.5694   2.5694   2.5953   2.6542
     2.6903   2.6980   2.6980   2.7844   2.7844   2.7844   2.7844   2.8218
     2.8218   2.8883   2.8883   2.9079   3.0023   3.0023   3.0260   3.0905
     3.0988   3.0988   3.0988   3.0988   3.2238   3.2238   3.2508   3.2508
     3.7297   3.8013   3.8013   3.8216   3.9030   3.9443   3.9443   3.9913
     4.0039   4.0039   4.0135   4.0135   4.0250   4.0250   4.0330   4.0330
     4.0330   4.0330   4.0594   4.0594   4.1115   4.1399   4.2024   4.2024
     4.2074   4.2472   4.2472   4.2472   4.2472   4.3054   4.4077   4.4077
     4.4372   4.5167   4.5167   4.5267   4.8860   4.8860   4.8860   4.8860
     5.0971   5.0971   5.2195   5.4261   5.4261   5.5275   5.5275   5.9029
     5.9029   6.0983   6.0983   6.2524   6.3541   6.3541   6.3541   6.3541
     6.8067   6.8147   6.8147   6.9351   6.9655   6.9655   6.9655   6.9655
     7.0428   7.0428   7.3197   7.3197   7.3763   7.3763   7.4936   7.4936
     7.5297   7.5898   7.6024   7.9162   8.0249   8.0249   8.1610   8.4411

     occupation numbers 
     1.0000   1.0000   1.0000   1.0000   1.0000   1.0000   1.0000   1.0000
     1.0000   1.0000   1.0000   1.0000   1.0000   1.0000   1.0000   1.0000
     1.0000   1.0000   1.0000   1.0000   1.0000   1.0000   1.0000   1.0000
     1.0000   1.0000   1.0000   1.0000   1.0000   1.0000   1.0000   1.0000
     1.0000   1.0000   1.0000   1.0000   1.0000   1.0000   1.0000   1.0000
     1.0000   1.0000   1.0000   1.0000   1.0000   1.0000   1.0000   1.0000
     1.0000   1.0000   1.0000   1.0000   1.0000   1.0000   1.0000   1.0000
     1.0000   1.0000   1.0000   1.0000   1.0000   1.0000   1.0000   1.0000
     1.0000   1.0000   1.0000   1.0000   1.0000   1.0000   1.0000   1.0000
     1.0000   1.0000   1.0000   1.0000   1.0000   1.0000   1.0000   1.0000
     1.0000   1.0000   1.0000   1.0000   1.0000   1.0000   1.0000   1.0000
     1.0000   1.0000   1.0000   1.0000   1.0000   1.0000   1.0000   1.0000
     1.0000   1.0000   1.0000   1.0000   1.0000   1.0000   1.0000   1.0000
     1.0000   1.0000   1.0000   1.0000   1.0000   1.0000   1.0000   1.0000
     1.0000   1.0000   1.0000   1.0000   1.0000   1.0000   1.0000   1.0000
     1.0000   1.0000   1.0000   1.0000   1.0000   1.0000   1.0000   1.0000
     1.0000   1.0000   1.0000   1.0000   1.0000   1.0000   1.0000   1.0000
     1.0000   1.0000   1.0000   1.0000   1.0000   1.0000   1.0000   1.0000

          k = 0.0000 0.3849 0.0956 ( 14132 PWs)   bands (ev):

   -10.0489  -9.8333  -9.6702  -9.6347  -9.4901  -9.4399  -9.3908  -9.3908
    -9.3846  -9.3056  -9.3056  -9.2465  -9.2464  -9.2416  -9.1705  -9.1705
     1.8581   1.9015   1.9353   2.0297   2.0394   2.0394   2.0655   2.0827
     2.0827   2.1281   2.1342   2.1342   2.2825   2.3403   2.3403   2.3460
     2.4794   2.5052   2.5430   2.5540   2.5749   2.5943   2.5978   2.6594
     2.6856   2.6959   2.6959   2.7436   2.7436   2.7754   2.8311   2.8311
     2.8707   2.8741   2.9023   2.9119   2.9925   2.9925   3.0183   3.0708
     3.0983   3.0983   3.1111   3.1111   3.2130   3.2130   3.2303   3.2303
     3.7432   3.8066   3.8066   3.8288   3.9070   3.9589   3.9613   3.9719
     3.9719   3.9861   3.9910   3.9910   3.9935   4.0403   4.0410   4.0452
     4.0569   4.0569   4.0784   4.0891   4.1084   4.1366   4.1859   4.2017
     4.2017   4.2203   4.2203   4.2866   4.2887   4.2887   4.4283   4.4283
     4.5010   4.5010   4.5201   4.6074   4.7891   4.7891   4.9758   4.9758
     5.1144   5.1144   5.2422   5.3189   5.4974   5.5501   5.5501   5.7284
     5.9341   5.9341   6.1801   6.1801   6.2383   6.4467   6.4497   6.4497
     6.5228   6.8270   6.8376   6.8376   6.9455   7.0412   7.0412   7.0951
     7.1108   7.1108   7.2328   7.3088   7.3088   7.3615   7.4842   7.5178
     7.5830   7.6170   7.6421   7.8981   7.9163   8.1331   8.1337   8.4270

     occupation numbers 
     1.0000   1.0000   1.0000   1.0000   1.0000   1.0000   1.0000   1.0000
     1.0000   1.0000   1.0000   1.0000   1.0000   1.0000   1.0000   1.0000
     1.0000   1.0000   1.0000   1.0000   1.0000   1.0000   1.0000   1.0000
     1.0000   1.0000   1.0000   1.0000   1.0000   1.0000   1.0000   1.0000
     1.0000   1.0000   1.0000   1.0000   1.0000   1.0000   1.0000   1.0000
     1.0000   1.0000   1.0000   1.0000   1.0000   1.0000   1.0000   1.0000
     1.0000   1.0000   1.0000   1.0000   1.0000   1.0000   1.0000   1.0000
     1.0000   1.0000   1.0000   1.0000   1.0000   1.0000   1.0000   1.0000
     1.0000   1.0000   1.0000   1.0000   1.0000   1.0000   1.0000   1.0000
     1.0000   1.0000   1.0000   1.0000   1.0000   1.0000   1.0000   1.0000
     1.0000   1.0000   1.0000   1.0000   1.0000   1.0000   1.0000   1.0000
     1.0000   1.0000   1.0000   1.0000   1.0000   1.0000   1.0000   1.0000
     1.0000   1.0000   1.0000   1.0000   1.0000   1.0000   1.0000   1.0000
     1.0000   1.0000   1.0000   1.0000   1.0000   1.0000   1.0000   1.0000
     1.0000   1.0000   1.0000   1.0000   1.0000   1.0000   1.0000   1.0000
     1.0000   1.0000   1.0000   1.0000   1.0000   1.0000   1.0000   1.0000
     1.0000   1.0000   1.0000   1.0000   1.0000   1.0000   1.0000   1.0000
     1.0000   1.0000   1.0000   1.0000   1.0000   1.0000   1.0000   1.0000

          k = 0.0000 0.3849 0.1912 ( 14116 PWs)   bands (ev):

   -10.0190  -9.9078  -9.6143  -9.5927  -9.5394  -9.4730  -9.3785  -9.3784
    -9.3357  -9.3341  -9.3341  -9.2617  -9.2199  -9.2199  -9.1808  -9.1808
     1.8559   1.8867   2.0138   2.0447   2.0544   2.0544   2.1061   2.1127
     2.1127   2.1134   2.1429   2.1429   2.2084   2.2587   2.2892   2.2892
     2.4876   2.5200   2.5341   2.5480   2.5852   2.5931   2.6260   2.6721
     2.6748   2.6931   2.6931   2.7135   2.7135   2.7342   2.8701   2.8790
     2.8790   2.8890   2.9185   2.9436   2.9645   2.9645   2.9960   3.0276
     3.1109   3.1109   3.1338   3.1338   3.1769   3.1769   3.1964   3.1964
     3.7797   3.8332   3.8332   3.8495   3.8932   3.9185   3.9192   3.9369
     3.9369   3.9599   4.0000   4.0191   4.0191   4.0245   4.0628   4.0628
     4.0644   4.0835   4.0971   4.0991   4.1276   4.1491   4.1517   4.2004
     4.2004   4.2063   4.2063   4.2494   4.3409   4.3409   4.4471   4.4471
     4.5020   4.5020   4.6880   4.6880   4.7272   4.7958   5.0538   5.0538
     5.1328   5.1328   5.1833   5.3101   5.3597   5.4997   5.6362   5.6362
     5.9858   5.9858   6.0272   6.0272   6.2081   6.2956   6.3541   6.3541
     6.7477   6.8623   6.8623   6.8859   6.9678   7.0205   7.0205   7.0971
     7.2086   7.2086   7.2617   7.2851   7.2851   7.3202   7.3640   7.5516
     7.6484   7.6595   7.7948   7.8147   7.8447   8.0557   8.2336   8.3856

     occupation numbers 
     1.0000   1.0000   1.0000   1.0000   1.0000   1.0000   1.0000   1.0000
     1.0000   1.0000   1.0000   1.0000   1.0000   1.0000   1.0000   1.0000
     1.0000   1.0000   1.0000   1.0000   1.0000   1.0000   1.0000   1.0000
     1.0000   1.0000   1.0000   1.0000   1.0000   1.0000   1.0000   1.0000
     1.0000   1.0000   1.0000   1.0000   1.0000   1.0000   1.0000   1.0000
     1.0000   1.0000   1.0000   1.0000   1.0000   1.0000   1.0000   1.0000
     1.0000   1.0000   1.0000   1.0000   1.0000   1.0000   1.0000   1.0000
     1.0000   1.0000   1.0000   1.0000   1.0000   1.0000   1.0000   1.0000
     1.0000   1.0000   1.0000   1.0000   1.0000   1.0000   1.0000   1.0000
     1.0000   1.0000   1.0000   1.0000   1.0000   1.0000   1.0000   1.0000
     1.0000   1.0000   1.0000   1.0000   1.0000   1.0000   1.0000   1.0000
     1.0000   1.0000   1.0000   1.0000   1.0000   1.0000   1.0000   1.0000
     1.0000   1.0000   1.0000   1.0000   1.0000   1.0000   1.0000   1.0000
     1.0000   1.0000   1.0000   1.0000   1.0000   1.0000   1.0000   1.0000
     1.0000   1.0000   1.0000   1.0000   1.0000   1.0000   1.0000   1.0000
     1.0000   1.0000   1.0000   1.0000   1.0000   1.0000   1.0000   1.0000
     1.0000   1.0000   1.0000   1.0000   1.0000   1.0000   1.0000   1.0000
     1.0000   1.0000   1.0000   1.0000   1.0000   1.0000   1.0000   1.0000

          k = 0.0000 0.3849-0.2868 ( 14126 PWs)   bands (ev):

    -9.9709  -9.9709  -9.5818  -9.5817  -9.5253  -9.5252  -9.3591  -9.3591
    -9.3591  -9.3590  -9.2938  -9.2938  -9.1976  -9.1976  -9.1976  -9.1976
     1.8686   1.8687   2.0746   2.0746   2.0827   2.0827   2.0827   2.0827
     2.1106   2.1106   2.1783   2.1783   2.2174   2.2174   2.2174   2.2174
     2.5013   2.5013   2.5440   2.5440   2.5914   2.5914   2.6515   2.6515
     2.6970   2.6970   2.6970   2.6970   2.7001   2.7001   2.8759   2.8760
     2.9245   2.9245   2.9245   2.9245   2.9617   2.9617   2.9825   2.9825
     3.1374   3.1374   3.1374   3.1374   3.1639   3.1639   3.1639   3.1639
     3.8319   3.8319   3.8805   3.8805   3.8805   3.8805   3.8809   3.8809
     3.9367   3.9367   4.0105   4.0105   4.0508   4.0508   4.0508   4.0508
     4.0843   4.0843   4.1140   4.1140   4.1185   4.1185   4.2008   4.2008
     4.2009   4.2009   4.2029   4.2030   4.3970   4.3970   4.3970   4.3970
     4.5878   4.5878   4.5878   4.5878   5.0075   5.0075   5.0170   5.0170
     5.1111   5.1111   5.1111   5.1111   5.4144   5.4144   5.7934   5.7934
     5.7934   5.7934   6.1764   6.1764   6.1765   6.1765   6.2026   6.2026
     6.9414   6.9414   6.9557   6.9557   6.9557   6.9557   6.9785   6.9785
     7.2457   7.2457   7.2580   7.2580   7.2581   7.2581   7.4710   7.4710
     7.7270   7.7271   7.7597   7.7597   7.9378   7.9379   8.3196   8.3197

     occupation numbers 
     1.0000   1.0000   1.0000   1.0000   1.0000   1.0000   1.0000   1.0000
     1.0000   1.0000   1.0000   1.0000   1.0000   1.0000   1.0000   1.0000
     1.0000   1.0000   1.0000   1.0000   1.0000   1.0000   1.0000   1.0000
     1.0000   1.0000   1.0000   1.0000   1.0000   1.0000   1.0000   1.0000
     1.0000   1.0000   1.0000   1.0000   1.0000   1.0000   1.0000   1.0000
     1.0000   1.0000   1.0000   1.0000   1.0000   1.0000   1.0000   1.0000
     1.0000   1.0000   1.0000   1.0000   1.0000   1.0000   1.0000   1.0000
     1.0000   1.0000   1.0000   1.0000   1.0000   1.0000   1.0000   1.0000
     1.0000   1.0000   1.0000   1.0000   1.0000   1.0000   1.0000   1.0000
     1.0000   1.0000   1.0000   1.0000   1.0000   1.0000   1.0000   1.0000
     1.0000   1.0000   1.0000   1.0000   1.0000   1.0000   1.0000   1.0000
     1.0000   1.0000   1.0000   1.0000   1.0000   1.0000   1.0000   1.0000
     1.0000   1.0000   1.0000   1.0000   1.0000   1.0000   1.0000   1.0000
     1.0000   1.0000   1.0000   1.0000   1.0000   1.0000   1.0000   1.0000
     1.0000   1.0000   1.0000   1.0000   1.0000   1.0000   1.0000   1.0000
     1.0000   1.0000   1.0000   1.0000   1.0000   1.0000   1.0000   1.0000
     1.0000   1.0000   1.0000   1.0000   1.0000   1.0000   1.0000   1.0000
     1.0000   1.0000   1.0000   1.0000   1.0000   1.0000   1.0000   1.0000

          k = 0.0000-0.5774 0.0000 ( 14124 PWs)   bands (ev):

    -9.8595  -9.8595  -9.5973  -9.5973  -9.5973  -9.5973  -9.3985  -9.3985
    -9.3275  -9.3275  -9.2770  -9.2769  -9.2769  -9.2769  -9.1658  -9.1658
     1.9470   1.9470   1.9470   1.9470   1.9897   1.9897   2.1342   2.1342
     2.1342   2.1343   2.2666   2.2666   2.3292   2.3292   2.3903   2.3903
     2.5731   2.5731   2.6963   2.6963   2.6963   2.6963   2.7046   2.7046
     2.7091   2.7091   2.7091   2.7091   2.7130   2.7130   2.7130   2.7130
     2.7790   2.7790   2.7840   2.7840   2.8488   2.8488   2.9193   2.9193
     3.0922   3.0922   3.0922   3.0922   3.2250   3.2250   3.2524   3.2524
     3.7244   3.7244   3.7449   3.7449   3.9231   3.9231   3.9274   3.9274
     4.0025   4.0025   4.0025   4.0025   4.0198   4.0198   4.0198   4.0198
     4.0247   4.0247   4.0247   4.0247   4.1216   4.1216   4.2044   4.2044
     4.2569   4.2569   4.2569   4.2569   4.3338   4.3338   4.3849   4.3849
     4.4242   4.4242   4.5510   4.5510   5.0299   5.0299   5.0299   5.0299
     5.3578   5.3578   5.5288   5.5289   5.5585   5.5585   5.9362   5.9362
     5.9362   5.9362   6.0376   6.0376   6.1382   6.1382   6.1382   6.1382
     6.8779   6.8779   6.9640   6.9640   6.9640   6.9640   6.9742   6.9742
     6.9742   6.9742   7.0761   7.0761   7.1971   7.1971   7.2149   7.2150
     7.7084   7.7084   7.7084   7.7084   7.9207   7.9208   8.1868   8.1868

     occupation numbers 
     1.0000   1.0000   1.0000   1.0000   1.0000   1.0000   1.0000   1.0000
     1.0000   1.0000   1.0000   1.0000   1.0000   1.0000   1.0000   1.0000
     1.0000   1.0000   1.0000   1.0000   1.0000   1.0000   1.0000   1.0000
     1.0000   1.0000   1.0000   1.0000   1.0000   1.0000   1.0000   1.0000
     1.0000   1.0000   1.0000   1.0000   1.0000   1.0000   1.0000   1.0000
     1.0000   1.0000   1.0000   1.0000   1.0000   1.0000   1.0000   1.0000
     1.0000   1.0000   1.0000   1.0000   1.0000   1.0000   1.0000   1.0000
     1.0000   1.0000   1.0000   1.0000   1.0000   1.0000   1.0000   1.0000
     1.0000   1.0000   1.0000   1.0000   1.0000   1.0000   1.0000   1.0000
     1.0000   1.0000   1.0000   1.0000   1.0000   1.0000   1.0000   1.0000
     1.0000   1.0000   1.0000   1.0000   1.0000   1.0000   1.0000   1.0000
     1.0000   1.0000   1.0000   1.0000   1.0000   1.0000   1.0000   1.0000
     1.0000   1.0000   1.0000   1.0000   1.0000   1.0000   1.0000   1.0000
     1.0000   1.0000   1.0000   1.0000   1.0000   1.0000   1.0000   1.0000
     1.0000   1.0000   1.0000   1.0000   1.0000   1.0000   1.0000   1.0000
     1.0000   1.0000   1.0000   1.0000   1.0000   1.0000   1.0000   1.0000
     1.0000   1.0000   1.0000   1.0000   1.0000   1.0000   1.0000   1.0000
     1.0000   1.0000   1.0000   1.0000   1.0000   1.0000   1.0000   1.0000

          k = 0.0000-0.5774 0.0956 ( 14118 PWs)   bands (ev):

    -9.8507  -9.8507  -9.6660  -9.6660  -9.5282  -9.5282  -9.3942  -9.3942
    -9.3368  -9.3368  -9.3075  -9.3075  -9.2471  -9.2471  -9.1694  -9.1694
     1.9292   1.9292   1.9840   1.9840   1.9909   1.9909   2.1406   2.1406
     2.1535   2.1535   2.2634   2.2634   2.3136   2.3136   2.3532   2.3532
     2.5769   2.5769   2.6618   2.6618   2.6993   2.6993   2.7015   2.7015
     2.7035   2.7035   2.7290   2.7290   2.7292   2.7292   2.7325   2.7325
     2.7780   2.7780   2.7826   2.7826   2.8429   2.8429   2.8959   2.8959
     3.0939   3.0939   3.1026   3.1027   3.2157   3.2157   3.2213   3.2213
     3.7397   3.7397   3.7565   3.7565   3.9308   3.9308   3.9445   3.9445
     3.9550   3.9550   3.9711   3.9711   3.9997   3.9997   4.0484   4.0484
     4.0495   4.0495   4.0584   4.0584   4.1181   4.1181   4.2038   4.2038
     4.2268   4.2268   4.2641   4.2641   4.3032   4.3032   4.4476   4.4476
     4.5216   4.5216   4.5411   4.5411   4.9174   4.9174   5.1335   5.1335
     5.3648   5.3648   5.5331   5.5331   5.6096   5.6096   5.6869   5.6869
     5.9847   5.9847   6.0532   6.0532   6.1123   6.1124   6.2266   6.2266
     6.7663   6.7663   6.8260   6.8260   6.8529   6.8529   7.0523   7.0523
     7.1075   7.1075   7.2071   7.2071   7.2300   7.2300   7.2321   7.2322
     7.5826   7.5827   7.8332   7.8332   7.8974   7.8974   8.1706   8.1706

     occupation numbers 
     1.0000   1.0000   1.0000   1.0000   1.0000   1.0000   1.0000   1.0000
     1.0000   1.0000   1.0000   1.0000   1.0000   1.0000   1.0000   1.0000
     1.0000   1.0000   1.0000   1.0000   1.0000   1.0000   1.0000   1.0000
     1.0000   1.0000   1.0000   1.0000   1.0000   1.0000   1.0000   1.0000
     1.0000   1.0000   1.0000   1.0000   1.0000   1.0000   1.0000   1.0000
     1.0000   1.0000   1.0000   1.0000   1.0000   1.0000   1.0000   1.0000
     1.0000   1.0000   1.0000   1.0000   1.0000   1.0000   1.0000   1.0000
     1.0000   1.0000   1.0000   1.0000   1.0000   1.0000   1.0000   1.0000
     1.0000   1.0000   1.0000   1.0000   1.0000   1.0000   1.0000   1.0000
     1.0000   1.0000   1.0000   1.0000   1.0000   1.0000   1.0000   1.0000
     1.0000   1.0000   1.0000   1.0000   1.0000   1.0000   1.0000   1.0000
     1.0000   1.0000   1.0000   1.0000   1.0000   1.0000   1.0000   1.0000
     1.0000   1.0000   1.0000   1.0000   1.0000   1.0000   1.0000   1.0000
     1.0000   1.0000   1.0000   1.0000   1.0000   1.0000   1.0000   1.0000
     1.0000   1.0000   1.0000   1.0000   1.0000   1.0000   1.0000   1.0000
     1.0000   1.0000   1.0000   1.0000   1.0000   1.0000   1.0000   1.0000
     1.0000   1.0000   1.0000   1.0000   1.0000   1.0000   1.0000   1.0000
     1.0000   1.0000   1.0000   1.0000   1.0000   1.0000   1.0000   1.0000

          k = 0.0000-0.5774 0.1912 ( 14120 PWs)   bands (ev):

    -9.8249  -9.8249  -9.7294  -9.7294  -9.4633  -9.4633  -9.3817  -9.3817
    -9.3641  -9.3641  -9.3365  -9.3365  -9.2200  -9.2199  -9.1800  -9.1800
     1.9326   1.9326   1.9687   1.9687   2.0625   2.0625   2.1718   2.1718
     2.1894   2.1894   2.2514   2.2514   2.2631   2.2631   2.2725   2.2725
     2.5881   2.5881   2.6314   2.6314   2.6960   2.6960   2.6999   2.6999
     2.7127   2.7127   2.7471   2.7471   2.7496   2.7496   2.7682   2.7682
     2.7738   2.7738   2.7765   2.7765   2.8262   2.8262   2.8323   2.8323
     3.1062   3.1062   3.1256   3.1256   3.1679   3.1679   3.1906   3.1906
     3.7818   3.7818   3.7881   3.7881   3.8869   3.8869   3.9084   3.9084
     3.9406   3.9406   3.9764   3.9764   4.0096   4.0096   4.0566   4.0566
     4.0727   4.0727   4.1082   4.1082   4.1106   4.1106   4.2028   4.2028
[...]
     atom   14 type  1   force =    -0.00000131    0.00000075    0.03509314
     atom   15 type  2   force =     0.00000000    0.00000000   -0.03509558
     atom   16 type  2   force =    -0.00000031    0.00000018   -0.03509279
     atom   17 type  1   force =     0.00000242   -0.00000140    0.03510904
     atom   18 type  1   force =     0.00000000    0.00000000    0.03509352
     atom   19 type  2   force =    -0.00000017    0.00000010   -0.03509247
     atom   20 type  2   force =     0.00000000   -0.00000000   -0.03509518
     atom   21 type  1   force =     0.00000776   -0.00000448    0.03508246
     atom   22 type  1   force =     0.00000000    0.00000000    0.03508721
     atom   23 type  2   force =    -0.00000027    0.00000015   -0.03509542
     atom   24 type  2   force =     0.00000000    0.00000000   -0.03509368
     atom   25 type  1   force =    -0.00000000    0.00000280    0.03510904
     atom   26 type  1   force =    -0.00000174   -0.00000101    0.03509388
     atom   27 type  2   force =     0.00000000   -0.00000020   -0.03509247
     atom   28 type  2   force =     0.00000007    0.00000004   -0.03509503
     atom   29 type  1   force =     0.00000000    0.00000896    0.03508246
     atom   30 type  1   force =     0.00000131    0.00000075    0.03509314
     atom   31 type  2   force =    -0.00000000   -0.00000031   -0.03509542
     atom   32 type  2   force =     0.00000031    0.00000018   -0.03509279
     The non-local contrib.  to forces
     atom    1 type  1   force =    -0.00000128   -0.00000074    0.22009253
     atom    2 type  1   force =     0.00000000    0.00000013    0.22008567
     atom    3 type  2   force =     0.00000107    0.00000062    0.18769759
     atom    4 type  2   force =     0.00000000   -0.00000046    0.18769064
     atom    5 type  1   force =    -0.00000318   -0.00000183    0.22007476
     atom    6 type  1   force =     0.00000000   -0.00000105    0.22007902
     atom    7 type  2   force =     0.00000123    0.00000071    0.18769614
     atom    8 type  2   force =     0.00000000   -0.00000044    0.18770060
     atom    9 type  1   force =     0.00000000   -0.00000000    0.22009118
     atom   10 type  1   force =     0.00000011   -0.00000006    0.22008567
     atom   11 type  2   force =     0.00000000    0.00000000    0.18769718
     atom   12 type  2   force =    -0.00000040    0.00000023    0.18769064
     atom   13 type  1   force =     0.00000000    0.00000000    0.22007370
     atom   14 type  1   force =    -0.00000091    0.00000052    0.22007902
     atom   15 type  2   force =     0.00000000   -0.00000000    0.18769538
     atom   16 type  2   force =    -0.00000038    0.00000022    0.18770060
     atom   17 type  1   force =     0.00000128   -0.00000074    0.22009253
     atom   18 type  1   force =     0.00000000    0.00000000    0.22008603
     atom   19 type  2   force =    -0.00000107    0.00000062    0.18769759
     atom   20 type  2   force =     0.00000000   -0.00000000    0.18769007
     atom   21 type  1   force =     0.00000318   -0.00000183    0.22007476
     atom   22 type  1   force =     0.00000000    0.00000000    0.22007711
     atom   23 type  2   force =    -0.00000123    0.00000071    0.18769614
     atom   24 type  2   force =     0.00000000   -0.00000000    0.18770200
     atom   25 type  1   force =     0.00000000    0.00000148    0.22009253
     atom   26 type  1   force =    -0.00000011   -0.00000006    0.22008567
     atom   27 type  2   force =     0.00000000   -0.00000124    0.18769759
     atom   28 type  2   force =     0.00000040    0.00000023    0.18769064
     atom   29 type  1   force =     0.00000000    0.00000367    0.22007476
     atom   30 type  1   force =     0.00000091    0.00000052    0.22007902
     atom   31 type  2   force =     0.00000000   -0.00000142    0.18769614
     atom   32 type  2   force =     0.00000038    0.00000022    0.18770060
     The ionic contribution  to forces
     atom    1 type  1   force =     0.00000000    0.00000002    1.78031637
     atom    2 type  1   force =     0.00000002    0.00000001    1.78031637
     atom    3 type  2   force =     0.00000000    0.00000001   -1.78031637
     atom    4 type  2   force =     0.00000001    0.00000001   -1.78031637
     atom    5 type  1   force =     0.00000000    0.00000002    1.78031637
     atom    6 type  1   force =     0.00000002    0.00000001    1.78031637
     atom    7 type  2   force =     0.00000000    0.00000001   -1.78031637
     atom    8 type  2   force =     0.00000001    0.00000001   -1.78031637
     atom    9 type  1   force =     0.00000001   -0.00000001    1.78031638
     atom   10 type  1   force =     0.00000000    0.00000001    1.78031638
     atom   11 type  2   force =     0.00000000   -0.00000001   -1.78031638
     atom   12 type  2   force =     0.00000000    0.00000000   -1.78031638
     atom   13 type  1   force =     0.00000001   -0.00000001    1.78031638
     atom   14 type  1   force =     0.00000000    0.00000001    1.78031638
     atom   15 type  2   force =     0.00000000   -0.00000001   -1.78031638
     atom   16 type  2   force =     0.00000000    0.00000000   -1.78031638
     atom   17 type  1   force =     0.00000000    0.00000000    1.78031638
     atom   18 type  1   force =    -0.00000002    0.00000001    1.78031637
     atom   19 type  2   force =     0.00000000   -0.00000000   -1.78031638
     atom   20 type  2   force =    -0.00000001    0.00000001   -1.78031637
     atom   21 type  1   force =     0.00000000    0.00000000    1.78031638
     atom   22 type  1   force =    -0.00000002    0.00000001    1.78031637
     atom   23 type  2   force =     0.00000000   -0.00000000   -1.78031638
     atom   24 type  2   force =    -0.00000001    0.00000001   -1.78031637
     atom   25 type  1   force =    -0.00000002   -0.00000001    1.78031638
     atom   26 type  1   force =     0.00000000   -0.00000001    1.78031638
     atom   27 type  2   force =    -0.00000001   -0.00000001   -1.78031638
     atom   28 type  2   force =     0.00000000   -0.00000001   -1.78031638
     atom   29 type  1   force =    -0.00000002   -0.00000001    1.78031638
     atom   30 type  1   force =     0.00000000   -0.00000001    1.78031638
     atom   31 type  2   force =    -0.00000001   -0.00000001   -1.78031638
     atom   32 type  2   force =     0.00000000   -0.00000001   -1.78031638
     The local contribution  to forces
     atom    1 type  1   force =     0.00000427    0.00000255   -1.94809466
     atom    2 type  1   force =     0.00000008   -0.00000256   -1.94807990
     atom    3 type  2   force =     0.00000044    0.00000028    1.55892956
     atom    4 type  2   force =     0.00000002    0.00000025    1.55892288
     atom    5 type  1   force =     0.00001244    0.00000727   -1.94806456
     atom    6 type  1   force =     0.00000008    0.00000242   -1.94807291
     atom    7 type  2   force =     0.00000035    0.00000023    1.55892896
     atom    8 type  2   force =     0.00000002    0.00000097    1.55893675
     atom    9 type  1   force =     0.00000008   -0.00000005   -1.94809072
     atom   10 type  1   force =    -0.00000218    0.00000135   -1.94807990
     atom   11 type  2   force =     0.00000002   -0.00000001    1.55892909
     atom   12 type  2   force =     0.00000023   -0.00000011    1.55892288
     atom   13 type  1   force =     0.00000008   -0.00000005   -1.94806218
     atom   14 type  1   force =     0.00000214   -0.00000114   -1.94807291
     atom   15 type  2   force =     0.00000002   -0.00000001    1.55893043
     atom   16 type  2   force =     0.00000085   -0.00000047    1.55893675
     atom   17 type  1   force =    -0.00000427    0.00000255   -1.94809466
     atom   18 type  1   force =    -0.00000008    0.00000005   -1.94807956
     atom   19 type  2   force =    -0.00000044    0.00000028    1.55892956
     atom   20 type  2   force =    -0.00000002    0.00000001    1.55892210
     atom   21 type  1   force =    -0.00001244    0.00000727   -1.94806456
     atom   22 type  1   force =    -0.00000008    0.00000005   -1.94806322
     atom   23 type  2   force =    -0.00000035    0.00000023    1.55892896
     atom   24 type  2   force =    -0.00000002    0.00000001    1.55893249
     atom   25 type  1   force =    -0.00000008   -0.00000497   -1.94809466
     atom   26 type  1   force =     0.00000233    0.00000135   -1.94807990
     atom   27 type  2   force =    -0.00000002   -0.00000052    1.55892956
     atom   28 type  2   force =    -0.00000019   -0.00000011    1.55892288
     atom   29 type  1   force =    -0.00000008   -0.00001441   -1.94806456
     atom   30 type  1   force =    -0.00000198   -0.00000114   -1.94807291
     atom   31 type  2   force =    -0.00000002   -0.00000042    1.55892896
     atom   32 type  2   force =    -0.00000081   -0.00000047    1.55893675
     The core correction contribution to forces
     atom    1 type  1   force =     0.00000005    0.00000004   -0.01722864
     atom    2 type  1   force =     0.00000001    0.00000025   -0.01723119
     atom    3 type  2   force =     0.00000001    0.00000000   -0.00140141
     atom    4 type  2   force =    -0.00000000    0.00000003   -0.00140029
     atom    5 type  1   force =    -0.00000012   -0.00000006   -0.01722987
     atom    6 type  1   force =     0.00000001    0.00000017   -0.01722732
     atom    7 type  2   force =     0.00000000    0.00000000   -0.00140138
     atom    8 type  2   force =    -0.00000000    0.00000003   -0.00140245
     atom    9 type  1   force =     0.00000001   -0.00000001   -0.01722862
     atom   10 type  1   force =     0.00000023   -0.00000012   -0.01723119
     atom   11 type  2   force =    -0.00000000    0.00000000   -0.00140141
     atom   12 type  2   force =     0.00000002   -0.00000001   -0.00140029
     atom   13 type  1   force =     0.00000001   -0.00000001   -0.01722982
     atom   14 type  1   force =     0.00000015   -0.00000008   -0.01722732
     atom   15 type  2   force =    -0.00000000    0.00000000   -0.00140136
     atom   16 type  2   force =     0.00000002   -0.00000001   -0.00140245
     atom   17 type  1   force =    -0.00000005    0.00000004   -0.01722864
     atom   18 type  1   force =    -0.00000001    0.00000001   -0.01723121
     atom   19 type  2   force =    -0.00000001    0.00000000   -0.00140141
     atom   20 type  2   force =     0.00000000   -0.00000000   -0.00140029
     atom   21 type  1   force =     0.00000012   -0.00000006   -0.01722987
     atom   22 type  1   force =    -0.00000001    0.00000001   -0.01722757
     atom   23 type  2   force =    -0.00000000    0.00000000   -0.00140138
     atom   24 type  2   force =     0.00000000   -0.00000000   -0.00140249
     atom   25 type  1   force =    -0.00000001   -0.00000007   -0.01722864
     atom   26 type  1   force =    -0.00000020   -0.00000012   -0.01723119
     atom   27 type  2   force =     0.00000000   -0.00000001   -0.00140141
     atom   28 type  2   force =    -0.00000002   -0.00000001   -0.00140029
     atom   29 type  1   force =    -0.00000001    0.00000013   -0.01722987
     atom   30 type  1   force =    -0.00000013   -0.00000008   -0.01722732
     atom   31 type  2   force =     0.00000000   -0.00000000   -0.00140138
     atom   32 type  2   force =    -0.00000002   -0.00000001   -0.00140245
     The Hubbard contrib.    to forces
     atom    1 type  1   force =     0.00000000    0.00000000    0.00000000
     atom    2 type  1   force =     0.00000000    0.00000000    0.00000000
     atom    3 type  2   force =     0.00000000    0.00000000    0.00000000
     atom    4 type  2   force =     0.00000000    0.00000000    0.00000000
     atom    5 type  1   force =     0.00000000    0.00000000    0.00000000
     atom    6 type  1   force =     0.00000000    0.00000000    0.00000000
     atom    7 type  2   force =     0.00000000    0.00000000    0.00000000
     atom    8 type  2   force =     0.00000000    0.00000000    0.00000000
     atom    9 type  1   force =     0.00000000    0.00000000    0.00000000
     atom   10 type  1   force =     0.00000000    0.00000000    0.00000000
     atom   11 type  2   force =     0.00000000    0.00000000    0.00000000
     atom   12 type  2   force =     0.00000000    0.00000000    0.00000000
     atom   13 type  1   force =     0.00000000    0.00000000    0.00000000
     atom   14 type  1   force =     0.00000000    0.00000000    0.00000000
     atom   15 type  2   force =     0.00000000    0.00000000    0.00000000
     atom   16 type  2   force =     0.00000000    0.00000000    0.00000000
     atom   17 type  1   force =     0.00000000    0.00000000    0.00000000
     atom   18 type  1   force =     0.00000000    0.00000000    0.00000000
     atom   19 type  2   force =     0.00000000    0.00000000    0.00000000
     atom   20 type  2   force =     0.00000000    0.00000000    0.00000000
     atom   21 type  1   force =     0.00000000    0.00000000    0.00000000
     atom   22 type  1   force =     0.00000000    0.00000000    0.00000000
     atom   23 type  2   force =     0.00000000    0.00000000    0.00000000
     atom   24 type  2   force =     0.00000000    0.00000000    0.00000000
     atom   25 type  1   force =     0.00000000    0.00000000    0.00000000
     atom   26 type  1   force =     0.00000000    0.00000000    0.00000000
     atom   27 type  2   force =     0.00000000    0.00000000    0.00000000
     atom   28 type  2   force =     0.00000000    0.00000000    0.00000000
     atom   29 type  1   force =     0.00000000    0.00000000    0.00000000
     atom   30 type  1   force =     0.00000000    0.00000000    0.00000000
     atom   31 type  2   force =     0.00000000    0.00000000    0.00000000
     atom   32 type  2   force =     0.00000000    0.00000000    0.00000000
     The SCF correction term to forces
     atom    1 type  1   force =    -0.00000552   -0.00000318    0.00002409
     atom    2 type  1   force =     0.00000000    0.00000424    0.00000358
     atom    3 type  2   force =    -0.00000136   -0.00000078   -0.00000116
     atom    4 type  2   force =    -0.00000000    0.00000011    0.00000879
     atom    5 type  1   force =    -0.00001696   -0.00000979   -0.00001358
     atom    6 type  1   force =     0.00000000   -0.00000301   -0.00000137
     atom    7 type  2   force =    -0.00000133   -0.00000077   -0.00000210
     atom    8 type  2   force =     0.00000000   -0.00000091   -0.00001065
     atom    9 type  1   force =     0.00000000    0.00000000    0.00001902
     atom   10 type  1   force =     0.00000367   -0.00000212    0.00000358
     atom   11 type  2   force =     0.00000000    0.00000000   -0.00000056
     atom   12 type  2   force =     0.00000010   -0.00000006    0.00000879
     atom   13 type  1   force =     0.00000000    0.00000000   -0.00001595
     atom   14 type  1   force =    -0.00000260    0.00000150   -0.00000137
     atom   15 type  2   force =     0.00000000    0.00000000   -0.00000299
     atom   16 type  2   force =    -0.00000079    0.00000046   -0.00001065
     atom   17 type  1   force =     0.00000552   -0.00000318    0.00002409
     atom   18 type  1   force =    -0.00000000    0.00000000    0.00000254
     atom   19 type  2   force =     0.00000136   -0.00000078   -0.00000116
     atom   20 type  2   force =     0.00000000   -0.00000000    0.00000998
     atom   21 type  1   force =     0.00001696   -0.00000979   -0.00001358
     atom   22 type  1   force =    -0.00000000    0.00000000   -0.00001483
     atom   23 type  2   force =     0.00000133   -0.00000077   -0.00000210
     atom   24 type  2   force =     0.00000000   -0.00000000   -0.00000864
     atom   25 type  1   force =    -0.00000000    0.00000637    0.00002409
     atom   26 type  1   force =    -0.00000367   -0.00000212    0.00000358
     atom   27 type  2   force =    -0.00000000    0.00000157   -0.00000116
     atom   28 type  2   force =    -0.00000010   -0.00000006    0.00000879
     atom   29 type  1   force =    -0.00000000    0.00001958   -0.00001358
     atom   30 type  1   force =     0.00000260    0.00000150   -0.00000137
     atom   31 type  2   force =     0.00000000    0.00000153   -0.00000210
     atom   32 type  2   force =     0.00000079    0.00000046   -0.00001065

     Total force =     0.198522     Total SCF correction =     0.000073

     init_run     :     16.02s CPU     12.44s WALL (       1 calls)
     electrons    :   1786.15s CPU   1258.59s WALL (       1 calls)
     forces       :      6.67s CPU      4.61s WALL (       1 calls)

     Called by init_run:
     wfcinit      :     13.29s CPU      9.68s WALL (       1 calls)
     wfcinit:atom :      0.09s CPU      0.08s WALL (      17 calls)
     wfcinit:wfcr :     12.68s CPU      9.16s WALL (      17 calls)
     potinit      :      0.79s CPU      0.80s WALL (       1 calls)
     hinit0       :      1.06s CPU      1.08s WALL (       1 calls)

     Called by electrons:
     c_bands      :   1663.15s CPU   1162.14s WALL (      34 calls)
     sum_band     :    115.03s CPU     89.61s WALL (      34 calls)
     v_of_rho     :      2.43s CPU      2.21s WALL (      35 calls)
     v_h          :      0.15s CPU      0.15s WALL (      35 calls)
     v_xc         :      2.35s CPU      2.11s WALL (      36 calls)
     newd         :      5.05s CPU      4.16s WALL (      35 calls)
     mix_rho      :      0.39s CPU      0.37s WALL (      34 calls)

     Called by c_bands:
     init_us_2    :      5.29s CPU      4.66s WALL (    1190 calls)
     init_us_2:cp :      5.28s CPU      4.66s WALL (    1190 calls)
     cegterg      :   1588.03s CPU   1093.63s WALL (     578 calls)

     Called by sum_band:
     sum_band:wei :      0.01s CPU      0.01s WALL (      34 calls)
     sum_band:loo :    108.06s CPU     84.37s WALL (      34 calls)
     sum_band:buf :      0.91s CPU      0.83s WALL (     578 calls)
     sum_band:ini :      2.41s CPU      2.06s WALL (     578 calls)
     sum_band:cal :     33.71s CPU     19.33s WALL (     578 calls)
     sum_band:bec :      0.86s CPU      0.73s WALL (     578 calls)
     addusdens    :      5.87s CPU      4.21s WALL (      34 calls)
                                        0.00s GPU  (      34 calls)
     addusd:skk   :      0.19s CPU      0.17s WALL (      68 calls)
                                        0.00s GPU  (      68 calls)

     Called by *egterg:
     cdiaghg      :    382.73s CPU    277.43s WALL (    3727 calls)
     cegterg:over :    120.81s CPU     68.65s WALL (    3149 calls)
     cegterg:upda :     65.52s CPU     33.99s WALL (    3149 calls)
     cegterg:last :    172.80s CPU     89.88s WALL (    2008 calls)
     h_psi        :    690.62s CPU    538.54s WALL (    3744 calls)
     s_psi        :    122.57s CPU     63.36s WALL (    3744 calls)
     g_psi        :      2.46s CPU      2.06s WALL (    3149 calls)

     Called by h_psi:
     h_psi:calbec :    125.75s CPU     71.68s WALL (    3744 calls)
     vloc_psi     :    438.85s CPU    400.66s WALL (    3744 calls)
     add_vuspsi   :    123.64s CPU     64.13s WALL (    3744 calls)

     General routines
     calbec       :    163.49s CPU     93.28s WALL (    4390 calls)
     fft          :      1.58s CPU      1.63s WALL (     464 calls)
     ffts         :      0.28s CPU      0.28s WALL (      69 calls)
     fftw         :    442.67s CPU    407.82s WALL (  677066 calls)
     interpolate  :      0.35s CPU      0.36s WALL (      35 calls)

     Parallel routines

     PWSCF        :  30m 9.29s CPU  21m16.10s WALL


   This run was terminated on:   2:47:10   9Sep2025            

=------------------------------------------------------------------------------=
   JOB DONE.
=------------------------------------------------------------------------------=
Note: The following floating-point exceptions are signalling: IEEE_INVALID_FLAG
Note: The following floating-point exceptions are signalling: IEEE_INVALID_FLAG
