
     Program PWSCF v.7.2 starts on 19Aug2025 at 12:42:33 

     This program is part of the open-source Quantum ESPRESSO suite
     for quantum simulation of materials; please cite
         "P. Giannozzi et al., J. Phys.:Condens. Matter 21 395502 (2009);
         "P. Giannozzi et al., J. Phys.:Condens. Matter 29 465901 (2017);
         "P. Giannozzi et al., J. Chem. Phys. 152 154105 (2020);
          URL http://www.quantum-espresso.org", 
     in publications or presentations arising from this work. More details at
     http://www.quantum-espresso.org/quote

     Parallel version (MPI), running on    64 processors

     MPI processes distributed on     1 nodes
     123526 MiB available memory on the printing compute node when the environment starts

     Reading input from /home/jvc/QEspresso7.2/ZnO_database/scripts/cell332.in/ZnO-3.27-1.71-332.in
Warning: card &CELL ignored
Warning: card / ignored
Warning: card &FCP ignored
Warning: card / ignored
Warning: card &RISM ignored
Warning: card / ignored

     Current dimensions of program PWSCF are:
     Max number of different atomic species (ntypx) = 10
     Max number of k-points (npk) =  40000
     Max angular momentum in pseudopotentials (lmaxx) =  4
     file Zn.upf: wavefunction(s)  3D renormalized
     Found identity + (  0.0000  0.0000  0.5000) symmetry
     This is a supercell, fractional translations are disabled
     Message from routine setup:
     using ibrav=0 with symmetry is DISCOURAGED, use correct ibrav instead

     K-points division:     npool     =       8
     R & G space division:  proc/nbgrp/npool/nimage =       8
     Subspace diagonalization in iterative solution of the eigenvalue problem:
     one sub-group per band group will be used
     custom distributed-memory algorithm (size of sub-group:  2*  2 procs)

     Message from routine divide_et_impera:
     suboptimal parallelization: some nodes have no k-points

     Parallelization info
     --------------------
     sticks:   dense  smooth     PW     G-vecs:    dense   smooth      PW
     Min        1183     592    157               100226    35430    4865
     Max        1184     593    158               100227    35433    4870
     Sum        9469    4741   1261               801811   283457   38939

     Using Slab Decomposition



     bravais-lattice index     =            0
     lattice parameter (alat)  =      18.5365  a.u.
     unit-cell volume          =    5936.3583 (a.u.)^3
     number of atoms/cell      =           72
     number of atomic types    =            2
     number of electrons       =       648.00
     number of Kohn-Sham states=          324
     kinetic-energy cutoff     =      50.0000  Ry
     charge density cutoff     =     400.0000  Ry
     scf convergence threshold =      1.0E-08
     mixing beta               =       0.3000
     number of iterations used =            8  plain     mixing
     Exchange-correlation= PBE
                           (   1   4   3   4   0   0   0)

     celldm(1)=  18.536466  celldm(2)=   0.000000  celldm(3)=   0.000000
     celldm(4)=   0.000000  celldm(5)=   0.000000  celldm(6)=   0.000000

     crystal axes: (cart. coord. in units of alat)
               a(1) = (   1.000000   0.000000   0.000000 )  
               a(2) = (  -0.500000   0.866025   0.000000 )  
               a(3) = (   0.000000   0.000000   1.076239 )  

     reciprocal axes: (cart. coord. in units 2 pi/alat)
               b(1) = (  1.000000  0.577350 -0.000000 )  
               b(2) = (  0.000000  1.154701  0.000000 )  
               b(3) = (  0.000000 -0.000000  0.929162 )  


     PseudoPot. # 1 for Zn read from file:
     /home/jvc/QEspresso7.2/ZnO_database/pseudos/Zn.upf
     MD5 check sum: 7f56cabf9682ed8c977c2f7d0c5985c5
     Pseudo is Ultrasoft + core correction, Zval = 12.0
     Generated using &quot;atomic&quot; code by A. Dal Corso  v.6.2.2
     Using radial grid of 1201 points,  6 beta functions with: 
                l(1) =   0
                l(2) =   0
                l(3) =   1
                l(4) =   1
                l(5) =   2
                l(6) =   2
     Q(r) pseudized with 0 coefficients 


     PseudoPot. # 2 for O  read from file:
     /home/jvc/QEspresso7.2/ZnO_database/pseudos/O.upf
     MD5 check sum: 91400c9766925bcf19f520983a725ff0
     Pseudo is Ultrasoft + core correction, Zval =  6.0
     Generated using &quot;atomic&quot; code by A. Dal Corso  v.6.3MaX
     Using radial grid of 1095 points,  4 beta functions with: 
                l(1) =   0
                l(2) =   0
                l(3) =   1
                l(4) =   1
     Q(r) pseudized with 0 coefficients 


     atomic species   valence    mass     pseudopotential
        Zn            12.00    65.38000     Zn( 1.00)
        O              6.00    15.99900     O ( 1.00)

      6 Sym. Ops. (no inversion) found


                                    s                        frac. trans.

      isym =  1     identity                                     

 cryst.   s( 1) = (     1          0          0      )
                  (     0          1          0      )
                  (     0          0          1      )

 cart.    s( 1) = (  1.0000000  0.0000000  0.0000000 )
                  (  0.0000000  1.0000000  0.0000000 )
                  (  0.0000000  0.0000000  1.0000000 )


      isym =  2     120 deg rotation - cryst. axis [0,0,1]       

 cryst.   s( 2) = (     0          1          0      )
                  (    -1         -1          0      )
                  (     0          0          1      )

 cart.    s( 2) = ( -0.5000000 -0.8660254  0.0000000 )
                  (  0.8660254 -0.5000000  0.0000000 )
                  (  0.0000000  0.0000000  1.0000000 )


      isym =  3     120 deg rotation - cryst. axis [0,0,-1]      

 cryst.   s( 3) = (    -1         -1          0      )
                  (     1          0          0      )
                  (     0          0          1      )

 cart.    s( 3) = ( -0.5000000  0.8660254  0.0000000 )
                  ( -0.8660254 -0.5000000  0.0000000 )
                  (  0.0000000  0.0000000  1.0000000 )


      isym =  4     inv. 180 deg rotation - cart. axis [1,0,0]   

 cryst.   s( 4) = (    -1          0          0      )
                  (     1          1          0      )
                  (     0          0          1      )

 cart.    s( 4) = ( -1.0000000  0.0000000  0.0000000 )
                  (  0.0000000  1.0000000  0.0000000 )
                  (  0.0000000  0.0000000  1.0000000 )


      isym =  5     inv. 180 deg rotation - cryst. axis [0,1,0]  

 cryst.   s( 5) = (     1          1          0      )
                  (     0         -1          0      )
                  (     0          0          1      )

 cart.    s( 5) = (  0.5000000  0.8660254  0.0000000 )
                  (  0.8660254 -0.5000000  0.0000000 )
                  (  0.0000000  0.0000000  1.0000000 )


      isym =  6     inv. 180 deg rotation - cryst. axis [1,1,0]  

 cryst.   s( 6) = (     0         -1          0      )
                  (    -1          0          0      )
                  (     0          0          1      )

 cart.    s( 6) = (  0.5000000 -0.8660254  0.0000000 )
                  ( -0.8660254 -0.5000000  0.0000000 )
                  (  0.0000000  0.0000000  1.0000000 )


   Cartesian axes

     site n.     atom                  positions (alat units)
         1           Zn  tau(   1) = (   0.1666667   0.0962250   0.2694007  )
         2           Zn  tau(   2) = (   0.0000000   0.1924501   0.0003409  )
         3           O   tau(   3) = (   0.1666667   0.0962250   0.4733710  )
         4           O   tau(   4) = (   0.0000000   0.1924501   0.2043113  )
         5           Zn  tau(   5) = (   0.1666667   0.0962250   0.8075201  )
         6           Zn  tau(   6) = (   0.0000000   0.1924501   0.5384604  )
         7           O   tau(   7) = (   0.1666667   0.0962250   1.0114904  )
         8           O   tau(   8) = (   0.0000000   0.1924501   0.7424307  )
         9           Zn  tau(   9) = (   0.0000000   0.3849002   0.2694007  )
        10           Zn  tau(  10) = (  -0.1666667   0.4811252   0.0003409  )
        11           O   tau(  11) = (   0.0000000   0.3849002   0.4733710  )
        12           O   tau(  12) = (  -0.1666667   0.4811252   0.2043113  )
        13           Zn  tau(  13) = (   0.0000000   0.3849002   0.8075201  )
        14           Zn  tau(  14) = (  -0.1666667   0.4811252   0.5384604  )
        15           O   tau(  15) = (   0.0000000   0.3849002   1.0114904  )
        16           O   tau(  16) = (  -0.1666667   0.4811252   0.7424307  )
        17           Zn  tau(  17) = (  -0.1666667   0.6735753   0.2694007  )
        18           Zn  tau(  18) = (  -0.3333333   0.7698004   0.0003409  )
        19           O   tau(  19) = (  -0.1666667   0.6735753   0.4733710  )
        20           O   tau(  20) = (  -0.3333333   0.7698004   0.2043113  )
        21           Zn  tau(  21) = (  -0.1666667   0.6735753   0.8075201  )
        22           Zn  tau(  22) = (  -0.3333333   0.7698004   0.5384604  )
        23           O   tau(  23) = (  -0.1666667   0.6735753   1.0114904  )
        24           O   tau(  24) = (  -0.3333333   0.7698004   0.7424307  )
        25           Zn  tau(  25) = (   0.5000000   0.0962250   0.2694007  )
        26           Zn  tau(  26) = (   0.3333333   0.1924501   0.0003409  )
        27           O   tau(  27) = (   0.5000000   0.0962250   0.4733710  )
        28           O   tau(  28) = (   0.3333333   0.1924501   0.2043113  )
        29           Zn  tau(  29) = (   0.5000000   0.0962250   0.8075201  )
        30           Zn  tau(  30) = (   0.3333333   0.1924501   0.5384604  )
        31           O   tau(  31) = (   0.5000000   0.0962250   1.0114904  )
        32           O   tau(  32) = (   0.3333333   0.1924501   0.7424307  )
        33           Zn  tau(  33) = (   0.3333333   0.3849002   0.2694007  )
        34           Zn  tau(  34) = (   0.1666667   0.4811252   0.0003409  )
        35           O   tau(  35) = (   0.3333333   0.3849002   0.4733710  )
        36           O   tau(  36) = (   0.1666667   0.4811252   0.2043113  )
        37           Zn  tau(  37) = (   0.3333333   0.3849002   0.8075201  )
        38           Zn  tau(  38) = (   0.1666667   0.4811252   0.5384604  )
        39           O   tau(  39) = (   0.3333333   0.3849002   1.0114904  )
        40           O   tau(  40) = (   0.1666667   0.4811252   0.7424307  )
        41           Zn  tau(  41) = (   0.1666667   0.6735753   0.2694007  )
        42           Zn  tau(  42) = (   0.0000000   0.7698004   0.0003409  )
        43           O   tau(  43) = (   0.1666667   0.6735753   0.4733710  )
        44           O   tau(  44) = (   0.0000000   0.7698004   0.2043113  )
        45           Zn  tau(  45) = (   0.1666667   0.6735753   0.8075201  )
        46           Zn  tau(  46) = (   0.0000000   0.7698004   0.5384604  )
        47           O   tau(  47) = (   0.1666667   0.6735753   1.0114904  )
        48           O   tau(  48) = (   0.0000000   0.7698004   0.7424307  )
        49           Zn  tau(  49) = (   0.8333333   0.0962250   0.2694007  )
        50           Zn  tau(  50) = (   0.6666667   0.1924501   0.0003409  )
        51           O   tau(  51) = (   0.8333333   0.0962250   0.4733710  )
        52           O   tau(  52) = (   0.6666667   0.1924501   0.2043113  )
        53           Zn  tau(  53) = (   0.8333333   0.0962250   0.8075201  )
        54           Zn  tau(  54) = (   0.6666667   0.1924501   0.5384604  )
        55           O   tau(  55) = (   0.8333333   0.0962250   1.0114904  )
        56           O   tau(  56) = (   0.6666667   0.1924501   0.7424307  )
        57           Zn  tau(  57) = (   0.6666667   0.3849002   0.2694007  )
        58           Zn  tau(  58) = (   0.5000000   0.4811252   0.0003409  )
        59           O   tau(  59) = (   0.6666667   0.3849002   0.4733710  )
        60           O   tau(  60) = (   0.5000000   0.4811252   0.2043113  )
        61           Zn  tau(  61) = (   0.6666667   0.3849002   0.8075201  )
        62           Zn  tau(  62) = (   0.5000000   0.4811252   0.5384604  )
        63           O   tau(  63) = (   0.6666667   0.3849002   1.0114904  )
        64           O   tau(  64) = (   0.5000000   0.4811252   0.7424307  )
        65           Zn  tau(  65) = (   0.5000000   0.6735753   0.2694007  )
        66           Zn  tau(  66) = (   0.3333333   0.7698004   0.0003409  )
        67           O   tau(  67) = (   0.5000000   0.6735753   0.4733710  )
        68           O   tau(  68) = (   0.3333333   0.7698004   0.2043113  )
        69           Zn  tau(  69) = (   0.5000000   0.6735753   0.8075201  )
        70           Zn  tau(  70) = (   0.3333333   0.7698004   0.5384604  )
        71           O   tau(  71) = (   0.5000000   0.6735753   1.0114904  )
        72           O   tau(  72) = (   0.3333333   0.7698004   0.7424307  )

   Crystallographic axes

     site n.     atom                  positions (cryst. coord.)
         1           Zn  tau(   1) = (  0.2222222  0.1111111  0.2503168  )
         2           Zn  tau(   2) = (  0.1111111  0.2222222  0.0003168  )
         3           O   tau(   3) = (  0.2222222  0.1111111  0.4398382  )
         4           O   tau(   4) = (  0.1111111  0.2222222  0.1898382  )
         5           Zn  tau(   5) = (  0.2222222  0.1111111  0.7503168  )
         6           Zn  tau(   6) = (  0.1111111  0.2222222  0.5003168  )
         7           O   tau(   7) = (  0.2222222  0.1111111  0.9398382  )
         8           O   tau(   8) = (  0.1111111  0.2222222  0.6898382  )
         9           Zn  tau(   9) = (  0.2222222  0.4444444  0.2503168  )
        10           Zn  tau(  10) = (  0.1111111  0.5555556  0.0003168  )
        11           O   tau(  11) = (  0.2222222  0.4444444  0.4398382  )
        12           O   tau(  12) = (  0.1111111  0.5555556  0.1898382  )
        13           Zn  tau(  13) = (  0.2222222  0.4444444  0.7503168  )
        14           Zn  tau(  14) = (  0.1111111  0.5555556  0.5003168  )
        15           O   tau(  15) = (  0.2222222  0.4444444  0.9398382  )
        16           O   tau(  16) = (  0.1111111  0.5555556  0.6898382  )
        17           Zn  tau(  17) = (  0.2222222  0.7777778  0.2503168  )
        18           Zn  tau(  18) = (  0.1111111  0.8888889  0.0003168  )
        19           O   tau(  19) = (  0.2222222  0.7777778  0.4398382  )
        20           O   tau(  20) = (  0.1111111  0.8888889  0.1898382  )
        21           Zn  tau(  21) = (  0.2222222  0.7777778  0.7503168  )
        22           Zn  tau(  22) = (  0.1111111  0.8888889  0.5003168  )
        23           O   tau(  23) = (  0.2222222  0.7777778  0.9398382  )
        24           O   tau(  24) = (  0.1111111  0.8888889  0.6898382  )
        25           Zn  tau(  25) = (  0.5555556  0.1111111  0.2503168  )
        26           Zn  tau(  26) = (  0.4444444  0.2222222  0.0003168  )
        27           O   tau(  27) = (  0.5555556  0.1111111  0.4398382  )
        28           O   tau(  28) = (  0.4444444  0.2222222  0.1898382  )
        29           Zn  tau(  29) = (  0.5555556  0.1111111  0.7503168  )
        30           Zn  tau(  30) = (  0.4444444  0.2222222  0.5003168  )
        31           O   tau(  31) = (  0.5555556  0.1111111  0.9398382  )
        32           O   tau(  32) = (  0.4444444  0.2222222  0.6898382  )
        33           Zn  tau(  33) = (  0.5555556  0.4444444  0.2503168  )
        34           Zn  tau(  34) = (  0.4444444  0.5555556  0.0003168  )
        35           O   tau(  35) = (  0.5555556  0.4444444  0.4398382  )
        36           O   tau(  36) = (  0.4444444  0.5555556  0.1898382  )
        37           Zn  tau(  37) = (  0.5555556  0.4444444  0.7503168  )
        38           Zn  tau(  38) = (  0.4444444  0.5555556  0.5003168  )
        39           O   tau(  39) = (  0.5555556  0.4444444  0.9398382  )
        40           O   tau(  40) = (  0.4444444  0.5555556  0.6898382  )
        41           Zn  tau(  41) = (  0.5555556  0.7777778  0.2503168  )
        42           Zn  tau(  42) = (  0.4444444  0.8888889  0.0003168  )
        43           O   tau(  43) = (  0.5555556  0.7777778  0.4398382  )
        44           O   tau(  44) = (  0.4444444  0.8888889  0.1898382  )
        45           Zn  tau(  45) = (  0.5555556  0.7777778  0.7503168  )
        46           Zn  tau(  46) = (  0.4444444  0.8888889  0.5003168  )
        47           O   tau(  47) = (  0.5555556  0.7777778  0.9398382  )
        48           O   tau(  48) = (  0.4444444  0.8888889  0.6898382  )
        49           Zn  tau(  49) = (  0.8888889  0.1111111  0.2503168  )
        50           Zn  tau(  50) = (  0.7777778  0.2222222  0.0003168  )
        51           O   tau(  51) = (  0.8888889  0.1111111  0.4398382  )
        52           O   tau(  52) = (  0.7777778  0.2222222  0.1898382  )
        53           Zn  tau(  53) = (  0.8888889  0.1111111  0.7503168  )
        54           Zn  tau(  54) = (  0.7777778  0.2222222  0.5003168  )
        55           O   tau(  55) = (  0.8888889  0.1111111  0.9398382  )
        56           O   tau(  56) = (  0.7777778  0.2222222  0.6898382  )
        57           Zn  tau(  57) = (  0.8888889  0.4444444  0.2503168  )
        58           Zn  tau(  58) = (  0.7777778  0.5555556  0.0003168  )
        59           O   tau(  59) = (  0.8888889  0.4444444  0.4398382  )
        60           O   tau(  60) = (  0.7777778  0.5555556  0.1898382  )
        61           Zn  tau(  61) = (  0.8888889  0.4444444  0.7503168  )
        62           Zn  tau(  62) = (  0.7777778  0.5555556  0.5003168  )
        63           O   tau(  63) = (  0.8888889  0.4444444  0.9398382  )
        64           O   tau(  64) = (  0.7777778  0.5555556  0.6898382  )
        65           Zn  tau(  65) = (  0.8888889  0.7777778  0.2503168  )
        66           Zn  tau(  66) = (  0.7777778  0.8888889  0.0003168  )
        67           O   tau(  67) = (  0.8888889  0.7777778  0.4398382  )
        68           O   tau(  68) = (  0.7777778  0.8888889  0.1898382  )
        69           Zn  tau(  69) = (  0.8888889  0.7777778  0.7503168  )
        70           Zn  tau(  70) = (  0.7777778  0.8888889  0.5003168  )
        71           O   tau(  71) = (  0.8888889  0.7777778  0.9398382  )
        72           O   tau(  72) = (  0.7777778  0.8888889  0.6898382  )

     number of k points=     4
                       cart. coord. in units 2pi/alat
        k(    1) = (   0.0000000   0.0000000   0.0000000), wk =   0.1666667
        k(    2) = (   0.0000000   0.0000000   0.3097206), wk =   0.3333333
        k(    3) = (   0.0000000  -0.5773503   0.0000000), wk =   0.5000000
        k(    4) = (   0.0000000  -0.5773503   0.3097206), wk =   1.0000000

                       cryst. coord.
        k(    1) = (   0.0000000   0.0000000   0.0000000), wk =   0.1666667
        k(    2) = (   0.0000000   0.0000000   0.3333333), wk =   0.3333333
        k(    3) = (   0.0000000  -0.5000000   0.0000000), wk =   0.5000000
        k(    4) = (   0.0000000  -0.5000000   0.3333333), wk =   1.0000000

     Dense  grid:   801811 G-vectors     FFT dimensions: ( 120, 120, 128)

     Smooth grid:   283457 G-vectors     FFT dimensions: (  90,  90,  90)

     Dynamical RAM for                 wfc:      21.90 MB

     Dynamical RAM for     wfc (w. buffer):      21.90 MB

     Dynamical RAM for           str. fact:       3.06 MB

     Dynamical RAM for           local pot:       0.00 MB

     Dynamical RAM for          nlocal pot:      63.27 MB

     Dynamical RAM for                qrad:       3.21 MB

     Dynamical RAM for          rho,v,vnew:       9.86 MB

     Dynamical RAM for               rhoin:       3.29 MB

     Dynamical RAM for            rho*nmix:      24.47 MB

     Dynamical RAM for           G-vectors:       6.01 MB

     Dynamical RAM for          h,s,v(r/c):       4.81 MB

     Dynamical RAM for          <psi|beta>:       4.63 MB

     Dynamical RAM for                 psi:      43.80 MB

     Dynamical RAM for                hpsi:      43.80 MB

     Dynamical RAM for                spsi:      43.80 MB

     Dynamical RAM for      wfcinit/wfcrot:      68.29 MB

     Dynamical RAM for           addusdens:      43.78 MB

     Dynamical RAM for          addusforce:      56.72 MB

     Estimated static dynamical RAM per process >     123.97 MB

     Estimated max dynamical RAM per process >     289.28 MB

     Estimated total dynamical RAM >      16.74 GB

     Check: negative core charge=   -0.000002

     Initial potential from superposition of free atoms

     starting charge     647.8659, renormalised to     648.0000
     Starting wfcs are  468 randomized atomic wfcs

     total cpu time spent up to now is       42.0 secs

     Self-consistent Calculation

     iteration #  1     ecut=    50.00 Ry     beta= 0.30
     Davidson diagonalization with overlap

---- Real-time Memory Report at c_bands before calling an iterative solver
           239 MiB given to the printing process from OS
             0 MiB allocation reported by mallinfo(arena+hblkhd)
        116046 MiB available memory on the node where the printing process lives
------------------
     ethr =  1.00E-02,  avg # of iterations =  2.0

     total cpu time spent up to now is       81.3 secs

     total energy              =   -6506.63838036 Ry
     estimated scf accuracy    <      12.41809631 Ry

     iteration #  2     ecut=    50.00 Ry     beta= 0.30
     Davidson diagonalization with overlap

---- Real-time Memory Report at c_bands before calling an iterative solver
           314 MiB given to the printing process from OS
             0 MiB allocation reported by mallinfo(arena+hblkhd)
        114220 MiB available memory on the node where the printing process lives
------------------
     ethr =  1.92E-03,  avg # of iterations =  2.0

     total cpu time spent up to now is      133.2 secs

     total energy              =   -6508.44360793 Ry
     estimated scf accuracy    <       1.57157909 Ry

     iteration #  3     ecut=    50.00 Ry     beta= 0.30
     Davidson diagonalization with overlap

---- Real-time Memory Report at c_bands before calling an iterative solver
           332 MiB given to the printing process from OS
             0 MiB allocation reported by mallinfo(arena+hblkhd)
        114179 MiB available memory on the node where the printing process lives
------------------
     ethr =  2.43E-04,  avg # of iterations =  7.2

     total cpu time spent up to now is      231.4 secs

     total energy              =   -6509.03840806 Ry
     estimated scf accuracy    <       0.95300471 Ry

     iteration #  4     ecut=    50.00 Ry     beta= 0.30
     Davidson diagonalization with overlap

---- Real-time Memory Report at c_bands before calling an iterative solver
           333 MiB given to the printing process from OS
             0 MiB allocation reported by mallinfo(arena+hblkhd)
        114238 MiB available memory on the node where the printing process lives
------------------
     ethr =  1.47E-04,  avg # of iterations =  9.0

     total cpu time spent up to now is      354.6 secs

     total energy              =   -6509.55175148 Ry
     estimated scf accuracy    <       3.53295011 Ry

     iteration #  5     ecut=    50.00 Ry     beta= 0.30
     Davidson diagonalization with overlap

---- Real-time Memory Report at c_bands before calling an iterative solver
           334 MiB given to the printing process from OS
             0 MiB allocation reported by mallinfo(arena+hblkhd)
        114078 MiB available memory on the node where the printing process lives
------------------
     ethr =  1.47E-04,  avg # of iterations =  2.0

     total cpu time spent up to now is      396.1 secs

     total energy              =   -6508.08285553 Ry
     estimated scf accuracy    <       1.92396872 Ry

     iteration #  6     ecut=    50.00 Ry     beta= 0.30
     Davidson diagonalization with overlap

---- Real-time Memory Report at c_bands before calling an iterative solver
           336 MiB given to the printing process from OS
             0 MiB allocation reported by mallinfo(arena+hblkhd)
        114251 MiB available memory on the node where the printing process lives
------------------
     ethr =  1.47E-04,  avg # of iterations = 13.8

     total cpu time spent up to now is      551.2 secs

     total energy              =   -6507.40942271 Ry
     estimated scf accuracy    <      19.77492485 Ry

     iteration #  7     ecut=    50.00 Ry     beta= 0.30
     Davidson diagonalization with overlap

---- Real-time Memory Report at c_bands before calling an iterative solver
           337 MiB given to the printing process from OS
             0 MiB allocation reported by mallinfo(arena+hblkhd)
        114113 MiB available memory on the node where the printing process lives
------------------
     ethr =  1.47E-04,  avg # of iterations = 12.2

     total cpu time spent up to now is      692.2 secs

     total energy              =   -6509.41367535 Ry
     estimated scf accuracy    <       0.96678781 Ry

     iteration #  8     ecut=    50.00 Ry     beta= 0.30
     Davidson diagonalization with overlap

---- Real-time Memory Report at c_bands before calling an iterative solver
           337 MiB given to the printing process from OS
             0 MiB allocation reported by mallinfo(arena+hblkhd)
        114288 MiB available memory on the node where the printing process lives
------------------
     ethr =  1.47E-04,  avg # of iterations =  2.0

     total cpu time spent up to now is      736.2 secs

     total energy              =   -6509.38015338 Ry
     estimated scf accuracy    <       0.51212977 Ry

     iteration #  9     ecut=    50.00 Ry     beta= 0.30
     Davidson diagonalization with overlap

---- Real-time Memory Report at c_bands before calling an iterative solver
           338 MiB given to the printing process from OS
             0 MiB allocation reported by mallinfo(arena+hblkhd)
        114158 MiB available memory on the node where the printing process lives
------------------
     ethr =  7.90E-05,  avg # of iterations =  4.2

     total cpu time spent up to now is      787.9 secs

     total energy              =   -6509.36464767 Ry
     estimated scf accuracy    <       0.19929899 Ry

     iteration # 10     ecut=    50.00 Ry     beta= 0.30
     Davidson diagonalization with overlap

---- Real-time Memory Report at c_bands before calling an iterative solver
           340 MiB given to the printing process from OS
             0 MiB allocation reported by mallinfo(arena+hblkhd)
        114260 MiB available memory on the node where the printing process lives
------------------
     ethr =  3.08E-05,  avg # of iterations =  7.5

     total cpu time spent up to now is      871.3 secs

     total energy              =   -6509.45948243 Ry
     estimated scf accuracy    <       0.00562706 Ry

     iteration # 11     ecut=    50.00 Ry     beta= 0.30
     Davidson diagonalization with overlap

---- Real-time Memory Report at c_bands before calling an iterative solver
           341 MiB given to the printing process from OS
             0 MiB allocation reported by mallinfo(arena+hblkhd)
        114062 MiB available memory on the node where the printing process lives
------------------
     ethr =  8.68E-07,  avg # of iterations = 10.5

     total cpu time spent up to now is      961.3 secs

     total energy              =   -6509.46156299 Ry
     estimated scf accuracy    <       0.00395936 Ry

     iteration # 12     ecut=    50.00 Ry     beta= 0.30
     Davidson diagonalization with overlap

---- Real-time Memory Report at c_bands before calling an iterative solver
           341 MiB given to the printing process from OS
             0 MiB allocation reported by mallinfo(arena+hblkhd)
        114093 MiB available memory on the node where the printing process lives
------------------
     ethr =  6.11E-07,  avg # of iterations = 10.2

     total cpu time spent up to now is     1083.6 secs

     total energy              =   -6509.47069377 Ry
     estimated scf accuracy    <       0.00830812 Ry

     iteration # 13     ecut=    50.00 Ry     beta= 0.30
     Davidson diagonalization with overlap

---- Real-time Memory Report at c_bands before calling an iterative solver
           341 MiB given to the printing process from OS
             0 MiB allocation reported by mallinfo(arena+hblkhd)
        114089 MiB available memory on the node where the printing process lives
------------------
     ethr =  6.11E-07,  avg # of iterations =  7.0

     total cpu time spent up to now is     1155.0 secs

     total energy              =   -6509.46429408 Ry
     estimated scf accuracy    <       0.02665337 Ry

     iteration # 14     ecut=    50.00 Ry     beta= 0.30
     Davidson diagonalization with overlap

---- Real-time Memory Report at c_bands before calling an iterative solver
           341 MiB given to the printing process from OS
             0 MiB allocation reported by mallinfo(arena+hblkhd)
        114293 MiB available memory on the node where the printing process lives
------------------
     ethr =  6.11E-07,  avg # of iterations =  7.0

     total cpu time spent up to now is     1223.4 secs

     total energy              =   -6509.46365963 Ry
     estimated scf accuracy    <       0.00826647 Ry

     iteration # 15     ecut=    50.00 Ry     beta= 0.30
     Davidson diagonalization with overlap

---- Real-time Memory Report at c_bands before calling an iterative solver
           341 MiB given to the printing process from OS
             0 MiB allocation reported by mallinfo(arena+hblkhd)
        114097 MiB available memory on the node where the printing process lives
------------------
     ethr =  6.11E-07,  avg # of iterations =  5.5

     total cpu time spent up to now is     1273.6 secs

     total energy              =   -6509.46321512 Ry
     estimated scf accuracy    <       0.00426702 Ry

     iteration # 16     ecut=    50.00 Ry     beta= 0.30
     Davidson diagonalization with overlap

---- Real-time Memory Report at c_bands before calling an iterative solver
           341 MiB given to the printing process from OS
             0 MiB allocation reported by mallinfo(arena+hblkhd)
        114098 MiB available memory on the node where the printing process lives
------------------
     ethr =  6.11E-07,  avg # of iterations =  4.8

     total cpu time spent up to now is     1326.7 secs

     total energy              =   -6509.46352574 Ry
     estimated scf accuracy    <       0.00141163 Ry

     iteration # 17     ecut=    50.00 Ry     beta= 0.30
     Davidson diagonalization with overlap

---- Real-time Memory Report at c_bands before calling an iterative solver
           341 MiB given to the printing process from OS
             0 MiB allocation reported by mallinfo(arena+hblkhd)
        114134 MiB available memory on the node where the printing process lives
------------------
     ethr =  2.18E-07,  avg # of iterations =  6.0

     total cpu time spent up to now is     1393.2 secs

     total energy              =   -6509.46387366 Ry
     estimated scf accuracy    <       0.00014854 Ry

     iteration # 18     ecut=    50.00 Ry     beta= 0.30
     Davidson diagonalization with overlap

---- Real-time Memory Report at c_bands before calling an iterative solver
           341 MiB given to the printing process from OS
             0 MiB allocation reported by mallinfo(arena+hblkhd)
        114143 MiB available memory on the node where the printing process lives
------------------
     ethr =  2.29E-08,  avg # of iterations =  7.8

     total cpu time spent up to now is     1486.2 secs

     total energy              =   -6509.46397697 Ry
     estimated scf accuracy    <       0.00003308 Ry

     iteration # 19     ecut=    50.00 Ry     beta= 0.30
     Davidson diagonalization with overlap

---- Real-time Memory Report at c_bands before calling an iterative solver
           341 MiB given to the printing process from OS
             0 MiB allocation reported by mallinfo(arena+hblkhd)
        114122 MiB available memory on the node where the printing process lives
------------------
     ethr =  5.11E-09,  avg # of iterations =  5.2

     total cpu time spent up to now is     1543.2 secs

     total energy              =   -6509.46397726 Ry
     estimated scf accuracy    <       0.00000948 Ry

     iteration # 20     ecut=    50.00 Ry     beta= 0.30
     Davidson diagonalization with overlap

---- Real-time Memory Report at c_bands before calling an iterative solver
           341 MiB given to the printing process from OS
             0 MiB allocation reported by mallinfo(arena+hblkhd)
        114105 MiB available memory on the node where the printing process lives
------------------
     ethr =  1.46E-09,  avg # of iterations = 13.0

     total cpu time spent up to now is     1701.7 secs

     total energy              =   -6509.46400448 Ry
     estimated scf accuracy    <       0.00022835 Ry

     iteration # 21     ecut=    50.00 Ry     beta= 0.30
     Davidson diagonalization with overlap

---- Real-time Memory Report at c_bands before calling an iterative solver
           341 MiB given to the printing process from OS
             0 MiB allocation reported by mallinfo(arena+hblkhd)
        114189 MiB available memory on the node where the printing process lives
------------------
     ethr =  1.46E-09,  avg # of iterations =  5.5

     total cpu time spent up to now is     1769.9 secs

     total energy              =   -6509.46398872 Ry
     estimated scf accuracy    <       0.00012607 Ry

     iteration # 22     ecut=    50.00 Ry     beta= 0.30
     Davidson diagonalization with overlap

---- Real-time Memory Report at c_bands before calling an iterative solver
           341 MiB given to the printing process from OS
             0 MiB allocation reported by mallinfo(arena+hblkhd)
        114156 MiB available memory on the node where the printing process lives
------------------
     ethr =  1.46E-09,  avg # of iterations =  6.0

     total cpu time spent up to now is     1851.2 secs

     total energy              =   -6509.46399455 Ry
     estimated scf accuracy    <       0.00005422 Ry

     iteration # 23     ecut=    50.00 Ry     beta= 0.30
     Davidson diagonalization with overlap

---- Real-time Memory Report at c_bands before calling an iterative solver
           341 MiB given to the printing process from OS
             0 MiB allocation reported by mallinfo(arena+hblkhd)
        114212 MiB available memory on the node where the printing process lives
------------------
     ethr =  1.46E-09,  avg # of iterations =  2.0

     total cpu time spent up to now is     1892.6 secs

     total energy              =   -6509.46399547 Ry
     estimated scf accuracy    <       0.00005305 Ry

     iteration # 24     ecut=    50.00 Ry     beta= 0.30
     Davidson diagonalization with overlap

---- Real-time Memory Report at c_bands before calling an iterative solver
           341 MiB given to the printing process from OS
             0 MiB allocation reported by mallinfo(arena+hblkhd)
        114164 MiB available memory on the node where the printing process lives
------------------
     ethr =  1.46E-09,  avg # of iterations =  1.0

     total cpu time spent up to now is     1928.1 secs

     total energy              =   -6509.46399175 Ry
     estimated scf accuracy    <       0.00005363 Ry

     iteration # 25     ecut=    50.00 Ry     beta= 0.30
     Davidson diagonalization with overlap

---- Real-time Memory Report at c_bands before calling an iterative solver
           341 MiB given to the printing process from OS
             0 MiB allocation reported by mallinfo(arena+hblkhd)
        114485 MiB available memory on the node where the printing process lives
------------------
     ethr =  1.46E-09,  avg # of iterations =  1.2

     total cpu time spent up to now is     1965.9 secs

     total energy              =   -6509.46397255 Ry
     estimated scf accuracy    <       0.00004536 Ry

     iteration # 26     ecut=    50.00 Ry     beta= 0.30
     Davidson diagonalization with overlap

---- Real-time Memory Report at c_bands before calling an iterative solver
           341 MiB given to the printing process from OS
             0 MiB allocation reported by mallinfo(arena+hblkhd)
        114228 MiB available memory on the node where the printing process lives
------------------
     ethr =  1.46E-09,  avg # of iterations =  9.8

     total cpu time spent up to now is     2082.1 secs

     total energy              =   -6509.46398222 Ry
     estimated scf accuracy    <       0.00000007 Ry

     iteration # 27     ecut=    50.00 Ry     beta= 0.30
     Davidson diagonalization with overlap

---- Real-time Memory Report at c_bands before calling an iterative solver
           341 MiB given to the printing process from OS
             0 MiB allocation reported by mallinfo(arena+hblkhd)
        114066 MiB available memory on the node where the printing process lives
------------------
     c_bands:  1 eigenvalues not converged
     ethr =  1.12E-11,  avg # of iterations = 16.0

     total cpu time spent up to now is     2220.9 secs

     total energy              =   -6509.46398236 Ry
     estimated scf accuracy    <       0.00000009 Ry

     iteration # 28     ecut=    50.00 Ry     beta= 0.30
     Davidson diagonalization with overlap

---- Real-time Memory Report at c_bands before calling an iterative solver
           341 MiB given to the printing process from OS
             0 MiB allocation reported by mallinfo(arena+hblkhd)
        114271 MiB available memory on the node where the printing process lives
------------------
     ethr =  1.12E-11,  avg # of iterations = 11.2

     total cpu time spent up to now is     2350.5 secs

     total energy              =   -6509.46398268 Ry
     estimated scf accuracy    <       0.00000034 Ry

     iteration # 29     ecut=    50.00 Ry     beta= 0.30
     Davidson diagonalization with overlap

---- Real-time Memory Report at c_bands before calling an iterative solver
           341 MiB given to the printing process from OS
             0 MiB allocation reported by mallinfo(arena+hblkhd)
        114189 MiB available memory on the node where the printing process lives
------------------
     ethr =  1.12E-11,  avg # of iterations = 10.2

     total cpu time spent up to now is     2464.3 secs

     total energy              =   -6509.46398270 Ry
     estimated scf accuracy    <       0.00000139 Ry

     iteration # 30     ecut=    50.00 Ry     beta= 0.30
     Davidson diagonalization with overlap

---- Real-time Memory Report at c_bands before calling an iterative solver
           341 MiB given to the printing process from OS
             0 MiB allocation reported by mallinfo(arena+hblkhd)
        114203 MiB available memory on the node where the printing process lives
------------------
     ethr =  1.12E-11,  avg # of iterations =  1.2

     total cpu time spent up to now is     2501.8 secs

     total energy              =   -6509.46398254 Ry
     estimated scf accuracy    <       0.00000128 Ry

     iteration # 31     ecut=    50.00 Ry     beta= 0.30
     Davidson diagonalization with overlap

---- Real-time Memory Report at c_bands before calling an iterative solver
           341 MiB given to the printing process from OS
             0 MiB allocation reported by mallinfo(arena+hblkhd)
        114088 MiB available memory on the node where the printing process lives
------------------
     ethr =  1.12E-11,  avg # of iterations =  5.2

     total cpu time spent up to now is     2559.6 secs

     total energy              =   -6509.46398211 Ry
     estimated scf accuracy    <       0.00000092 Ry

     iteration # 32     ecut=    50.00 Ry     beta= 0.30
     Davidson diagonalization with overlap

---- Real-time Memory Report at c_bands before calling an iterative solver
           341 MiB given to the printing process from OS
             0 MiB allocation reported by mallinfo(arena+hblkhd)
        114321 MiB available memory on the node where the printing process lives
------------------
     ethr =  1.12E-11,  avg # of iterations = 13.8

     total cpu time spent up to now is     2710.7 secs

     total energy              =   -6509.46398240 Ry
     estimated scf accuracy    <       0.00000008 Ry

     iteration # 33     ecut=    50.00 Ry     beta= 0.30
     Davidson diagonalization with overlap

---- Real-time Memory Report at c_bands before calling an iterative solver
           341 MiB given to the printing process from OS
             0 MiB allocation reported by mallinfo(arena+hblkhd)
        114186 MiB available memory on the node where the printing process lives
------------------
     ethr =  1.12E-11,  avg # of iterations =  1.0

     total cpu time spent up to now is     2747.2 secs

     total energy              =   -6509.46398237 Ry
     estimated scf accuracy    <       0.00000005 Ry

     iteration # 34     ecut=    50.00 Ry     beta= 0.30
     Davidson diagonalization with overlap

---- Real-time Memory Report at c_bands before calling an iterative solver
           341 MiB given to the printing process from OS
             0 MiB allocation reported by mallinfo(arena+hblkhd)
        114200 MiB available memory on the node where the printing process lives
------------------
     ethr =  8.16E-12,  avg # of iterations =  4.5

     total cpu time spent up to now is     2819.1 secs

     End of self-consistent calculation

          k = 0.0000 0.0000 0.0000 ( 35505 PWs)   bands (ev):

   -10.9984 -10.6674 -10.6674 -10.5469 -10.5469 -10.5469 -10.5469 -10.5469
   -10.5469 -10.3486 -10.3486 -10.3486 -10.3486 -10.3486 -10.3486 -10.3486
   -10.3486 -10.3486 -10.3486 -10.3486 -10.3486 -10.3182 -10.1942 -10.1942
   -10.1942 -10.1942 -10.1848 -10.1848 -10.1848 -10.1848 -10.1574 -10.1574
   -10.1574 -10.1574 -10.1574 -10.1574   0.9620   0.9620   0.9620   0.9620
     0.9620   0.9620   0.9620   0.9620   0.9620   0.9620   0.9620   0.9620
     1.0420   1.0420   1.0420   1.0420   1.0420   1.0420   1.1297   1.1297
     1.2800   1.2800   1.3159   1.3159   1.3212   1.3212   1.3212   1.3212
     1.3565   1.3780   1.3780   1.3780   1.3780   1.3780   1.3780   1.3852
     1.3852   1.3852   1.3852   1.4392   1.5014   1.5014   1.5196   1.5196
     1.5196   1.5196   1.5196   1.5196   1.5305   1.5305   1.5305   1.5305
     1.6688   1.6688   1.6688   1.6688   1.6841   1.6841   1.6841   1.6841
     1.6841   1.6841   1.6841   1.6841   1.6841   1.6841   1.6841   1.6842
     1.6874   1.6874   1.6874   1.6874   1.6874   1.6874   1.6874   1.6874
     1.6874   1.6875   1.6875   1.6875   1.7197   1.7197   1.7197   1.7197
     1.7197   1.7197   1.9005   1.9005   1.9005   1.9005   1.9005   1.9005
     2.0258   2.0258   2.0312   2.0312   2.0312   2.0312   2.0312   2.0312
     2.0556   2.0556   2.0556   2.0556   2.2690   2.2690   2.2690   2.2690
     2.3484   2.3484   2.3484   2.3484   2.3484   2.3484   2.3627   2.3627
     2.4282   2.4282   2.4346   2.4346   2.4346   2.4346   2.4858   2.4858
     2.4988   2.4988   2.4988   2.4988   2.4988   2.4988   2.5316   2.5316
     2.5316   2.5316   2.5468   2.5468   2.5468   2.5468   2.5701   2.5701
     2.5702   2.5702   2.5702   2.5702   2.5702   2.5702   2.5702   2.5702
     2.5702   2.5702   2.5851   2.5851   2.5851   2.5851   2.5851   2.5851
     2.5851   2.5851   2.5851   2.5851   2.5851   2.5851   2.6248   2.6248
     2.6552   2.6552   2.6552   2.6552   2.6552   2.6552   2.8130   2.8130
     2.8130   2.8131   2.8131   2.8131   2.8918   2.9254   2.9254   2.9255
     2.9255   3.0838   3.0838   3.0838   3.0838   3.0838   3.0838   3.2411
     3.2411   3.2429   3.2429   3.2429   3.2429   3.4120   3.4120   3.4120
     3.4120   3.7941   3.7941   3.7941   3.7941   3.7941   3.7941   3.8758
     3.8758   3.8758   3.8758   3.8758   3.8758   3.8758   3.8758   3.8758
     3.8758   3.8758   3.8758   4.2827   4.2827   4.2827   4.2827   4.6507
     4.6507   4.6507   4.6507   4.6507   4.6507   4.6601   4.6601   5.0283
     5.0283   5.0283   5.0283   5.0973   5.0973   5.0973   5.0973   5.0973
     5.0973   5.2183   5.2183   5.5303   5.5303   5.5303   5.5303   5.5303
     5.5303   5.5304   5.5304   5.5304   5.5304   5.5304   5.5304   5.6818
     5.6818   5.6818   5.6818   5.7224   5.7224   5.7224   5.7224   5.7224
     5.7224   5.7224   5.7224   5.7224   5.7225   5.7225   5.7225   6.0931
     6.0931   6.0931   6.0931   6.0931   6.0931   6.1251   6.1251   6.3016
     6.3016   6.3016   6.3016   6.3016   6.3016   6.5109   6.5109   6.5109
     6.5109   6.8050   6.8874   6.8874

     occupation numbers 
     1.0000   1.0000   1.0000   1.0000   1.0000   1.0000   1.0000   1.0000
     1.0000   1.0000   1.0000   1.0000   1.0000   1.0000   1.0000   1.0000
     1.0000   1.0000   1.0000   1.0000   1.0000   1.0000   1.0000   1.0000
     1.0000   1.0000   1.0000   1.0000   1.0000   1.0000   1.0000   1.0000
     1.0000   1.0000   1.0000   1.0000   1.0000   1.0000   1.0000   1.0000
     1.0000   1.0000   1.0000   1.0000   1.0000   1.0000   1.0000   1.0000
     1.0000   1.0000   1.0000   1.0000   1.0000   1.0000   1.0000   1.0000
     1.0000   1.0000   1.0000   1.0000   1.0000   1.0000   1.0000   1.0000
     1.0000   1.0000   1.0000   1.0000   1.0000   1.0000   1.0000   1.0000
     1.0000   1.0000   1.0000   1.0000   1.0000   1.0000   1.0000   1.0000
     1.0000   1.0000   1.0000   1.0000   1.0000   1.0000   1.0000   1.0000
     1.0000   1.0000   1.0000   1.0000   1.0000   1.0000   1.0000   1.0000
     1.0000   1.0000   1.0000   1.0000   1.0000   1.0000   1.0000   1.0000
     1.0000   1.0000   1.0000   1.0000   1.0000   1.0000   1.0000   1.0000
     1.0000   1.0000   1.0000   1.0000   1.0000   1.0000   1.0000   1.0000
     1.0000   1.0000   1.0000   1.0000   1.0000   1.0000   1.0000   1.0000
     1.0000   1.0000   1.0000   1.0000   1.0000   1.0000   1.0000   1.0000
     1.0000   1.0000   1.0000   1.0000   1.0000   1.0000   1.0000   1.0000
     1.0000   1.0000   1.0000   1.0000   1.0000   1.0000   1.0000   1.0000
     1.0000   1.0000   1.0000   1.0000   1.0000   1.0000   1.0000   1.0000
     1.0000   1.0000   1.0000   1.0000   1.0000   1.0000   1.0000   1.0000
     1.0000   1.0000   1.0000   1.0000   1.0000   1.0000   1.0000   1.0000
     1.0000   1.0000   1.0000   1.0000   1.0000   1.0000   1.0000   1.0000
     1.0000   1.0000   1.0000   1.0000   1.0000   1.0000   1.0000   1.0000
     1.0000   1.0000   1.0000   1.0000   1.0000   1.0000   1.0000   1.0000
     1.0000   1.0000   1.0000   1.0000   1.0000   1.0000   1.0000   1.0000
     1.0000   1.0000   1.0000   1.0000   1.0000   1.0000   1.0000   1.0000
     1.0000   1.0000   1.0000   1.0000   1.0000   1.0000   1.0000   1.0000
     1.0000   1.0000   1.0000   1.0000   1.0000   1.0000   1.0000   1.0000
     1.0000   1.0000   1.0000   1.0000   1.0000   1.0000   1.0000   1.0000
     1.0000   1.0000   1.0000   1.0000   1.0000   1.0000   1.0000   1.0000
     1.0000   1.0000   1.0000   1.0000   1.0000   1.0000   1.0000   1.0000
     1.0000   1.0000   1.0000   1.0000   1.0000   1.0000   1.0000   1.0000
     1.0000   1.0000   1.0000   1.0000   1.0000   1.0000   1.0000   1.0000
     1.0000   1.0000   1.0000   1.0000   1.0000   1.0000   1.0000   1.0000
     1.0000   1.0000   1.0000   1.0000   1.0000   1.0000   1.0000   1.0000
     1.0000   1.0000   1.0000   1.0000   1.0000   1.0000   1.0000   1.0000
     1.0000   1.0000   1.0000   1.0000   1.0000   1.0000   1.0000   1.0000
     1.0000   1.0000   1.0000   1.0000   1.0000   1.0000   1.0000   1.0000
     1.0000   1.0000   1.0000   1.0000   1.0000   1.0000   1.0000   1.0000
     1.0000   1.0000   1.0000   1.0000

          k = 0.0000 0.0000 0.3097 ( 35349 PWs)   bands (ev):

   -10.9551 -10.8351 -10.5201 -10.5201 -10.5201 -10.5200 -10.5200 -10.5200
   -10.4951 -10.4471 -10.4471 -10.4471 -10.4471 -10.4470 -10.4470 -10.3660
   -10.2519 -10.2519 -10.2519 -10.2519 -10.2519 -10.2519 -10.1919 -10.1919
   -10.1919 -10.1919 -10.1872 -10.1872 -10.1871 -10.1871 -10.1825 -10.1825
   -10.1825 -10.1824 -10.1824 -10.1824   0.9559   0.9559   0.9559   0.9559
     0.9559   0.9559   1.0114   1.0114   1.0114   1.0114   1.0114   1.0114
     1.0906   1.0906   1.0906   1.0906   1.0906   1.0906   1.1614   1.2062
     1.2878   1.2878   1.2878   1.2878   1.2878   1.2878   1.3081   1.3081
     1.3102   1.3169   1.3225   1.3225   1.3451   1.3451   1.3917   1.3917
     1.4031   1.4031   1.4031   1.4031   1.4366   1.4366   1.4826   1.4826
     1.5395   1.5395   1.5395   1.5395   1.5395   1.5395   1.5787   1.5787
     1.5787   1.5787   1.5967   1.5967   1.5967   1.5967   1.5967   1.5967
     1.6674   1.6674   1.6674   1.6674   1.6674   1.6674   1.6945   1.6945
     1.6945   1.6945   1.6945   1.6945   1.7171   1.7171   1.7583   1.7583
     1.7583   1.7583   1.7583   1.7583   1.7846   1.7846   1.7846   1.7846
     1.7846   1.7846   1.8679   1.8679   1.8679   1.8679   1.8679   1.8679
     1.8969   1.8969   1.8969   1.8969   1.8969   1.8969   1.9187   1.9187
     2.0771   2.0771   2.0771   2.0771   2.1585   2.1585   2.1585   2.1585
     2.3793   2.3793   2.3853   2.3853   2.3853   2.3853   2.3853   2.3853
     2.4064   2.4064   2.4460   2.4460   2.4607   2.4607   2.4787   2.4787
     2.4787   2.4787   2.4787   2.4787   2.4791   2.4791   2.4918   2.4918
     2.5083   2.5083   2.5083   2.5083   2.5083   2.5083   2.5339   2.5339
     2.5339   2.5339   2.5339   2.5339   2.5917   2.5917   2.6096   2.6096
     2.6096   2.6096   2.6096   2.6096   2.6172   2.6172   2.6425   2.6425
     2.6425   2.6425   2.6425   2.6425   2.6812   2.6812   2.6812   2.6812
     2.6819   2.6819   2.6819   2.6819   2.6819   2.6819   2.7606   2.7606
     2.7606   2.7606   2.7606   2.7606   2.8530   2.8530   2.8530   2.8530
     3.2007   3.2873   3.2873   3.2873   3.2873   3.3424   3.3424   3.3424
     3.3424   3.3424   3.3424   3.3685   3.3685   3.3685   3.3685   3.4090
     3.4090   3.6415   3.6415   3.6415   3.6415   3.6415   3.6415   3.8035
     3.8035   3.8753   3.9351   3.9351   3.9351   3.9351   3.9352   3.9352
     4.0473   4.0473   4.0473   4.0473   4.0473   4.0473   4.6229   4.6229
     4.6229   4.6229   4.6229   4.6229   4.7453   4.7453   4.9084   4.9084
     4.9084   4.9084   4.9084   4.9084   5.0893   5.0893   5.1856   5.1856
     5.1856   5.1856   5.1856   5.1856   5.1982   5.1982   5.1982   5.1982
     5.4186   5.4186   5.4186   5.4186   5.4186   5.4186   5.4566   5.5234
     5.5234   5.5234   5.5234   5.9793   5.9793   5.9793   5.9793   5.9793
     5.9793   6.0155   6.0155   6.0155   6.0155   6.0155   6.0155   6.1085
     6.1085   6.1085   6.1085   6.1085   6.1085   6.1772   6.1772   6.2255
     6.2255   6.2255   6.2255   6.2255   6.2255   6.2430   6.3190   6.3190
     6.7004   6.7004   6.8375   6.8375

     occupation numbers 
     1.0000   1.0000   1.0000   1.0000   1.0000   1.0000   1.0000   1.0000
     1.0000   1.0000   1.0000   1.0000   1.0000   1.0000   1.0000   1.0000
     1.0000   1.0000   1.0000   1.0000   1.0000   1.0000   1.0000   1.0000
     1.0000   1.0000   1.0000   1.0000   1.0000   1.0000   1.0000   1.0000
     1.0000   1.0000   1.0000   1.0000   1.0000   1.0000   1.0000   1.0000
     1.0000   1.0000   1.0000   1.0000   1.0000   1.0000   1.0000   1.0000
     1.0000   1.0000   1.0000   1.0000   1.0000   1.0000   1.0000   1.0000
     1.0000   1.0000   1.0000   1.0000   1.0000   1.0000   1.0000   1.0000
     1.0000   1.0000   1.0000   1.0000   1.0000   1.0000   1.0000   1.0000
     1.0000   1.0000   1.0000   1.0000   1.0000   1.0000   1.0000   1.0000
     1.0000   1.0000   1.0000   1.0000   1.0000   1.0000   1.0000   1.0000
     1.0000   1.0000   1.0000   1.0000   1.0000   1.0000   1.0000   1.0000
     1.0000   1.0000   1.0000   1.0000   1.0000   1.0000   1.0000   1.0000
     1.0000   1.0000   1.0000   1.0000   1.0000   1.0000   1.0000   1.0000
     1.0000   1.0000   1.0000   1.0000   1.0000   1.0000   1.0000   1.0000
     1.0000   1.0000   1.0000   1.0000   1.0000   1.0000   1.0000   1.0000
     1.0000   1.0000   1.0000   1.0000   1.0000   1.0000   1.0000   1.0000
     1.0000   1.0000   1.0000   1.0000   1.0000   1.0000   1.0000   1.0000
     1.0000   1.0000   1.0000   1.0000   1.0000   1.0000   1.0000   1.0000
     1.0000   1.0000   1.0000   1.0000   1.0000   1.0000   1.0000   1.0000
     1.0000   1.0000   1.0000   1.0000   1.0000   1.0000   1.0000   1.0000
     1.0000   1.0000   1.0000   1.0000   1.0000   1.0000   1.0000   1.0000
     1.0000   1.0000   1.0000   1.0000   1.0000   1.0000   1.0000   1.0000
     1.0000   1.0000   1.0000   1.0000   1.0000   1.0000   1.0000   1.0000
     1.0000   1.0000   1.0000   1.0000   1.0000   1.0000   1.0000   1.0000
     1.0000   1.0000   1.0000   1.0000   1.0000   1.0000   1.0000   1.0000
     1.0000   1.0000   1.0000   1.0000   1.0000   1.0000   1.0000   1.0000
     1.0000   1.0000   1.0000   1.0000   1.0000   1.0000   1.0000   1.0000
     1.0000   1.0000   1.0000   1.0000   1.0000   1.0000   1.0000   1.0000
     1.0000   1.0000   1.0000   1.0000   1.0000   1.0000   1.0000   1.0000
     1.0000   1.0000   1.0000   1.0000   1.0000   1.0000   1.0000   1.0000
     1.0000   1.0000   1.0000   1.0000   1.0000   1.0000   1.0000   1.0000
     1.0000   1.0000   1.0000   1.0000   1.0000   1.0000   1.0000   1.0000
     1.0000   1.0000   1.0000   1.0000   1.0000   1.0000   1.0000   1.0000
     1.0000   1.0000   1.0000   1.0000   1.0000   1.0000   1.0000   1.0000
     1.0000   1.0000   1.0000   1.0000   1.0000   1.0000   1.0000   1.0000
     1.0000   1.0000   1.0000   1.0000   1.0000   1.0000   1.0000   1.0000
     1.0000   1.0000   1.0000   1.0000   1.0000   1.0000   1.0000   1.0000
     1.0000   1.0000   1.0000   1.0000   1.0000   1.0000   1.0000   1.0000
     1.0000   1.0000   1.0000   1.0000   1.0000   1.0000   1.0000   1.0000
     1.0000   1.0000   1.0000   1.0000

          k = 0.0000-0.5774 0.0000 ( 35436 PWs)   bands (ev):

   -10.8593 -10.8593 -10.6321 -10.6321 -10.5636 -10.5636 -10.5636 -10.5636
   -10.4038 -10.4038 -10.4038 -10.4038 -10.3566 -10.3566 -10.3566 -10.3566
   -10.3492 -10.2581 -10.2581 -10.2391 -10.2391 -10.2391 -10.2391 -10.2391
   -10.2391 -10.2390 -10.2390 -10.2371 -10.2371 -10.1781 -10.1781 -10.1406
   -10.1367 -10.1367 -10.1367 -10.1367   0.9527   0.9527   1.0209   1.0209
     1.0209   1.0209   1.0549   1.0549   1.0549   1.0549   1.0857   1.0857
     1.0857   1.0857   1.0857   1.0857   1.0857   1.0857   1.1141   1.1448
     1.1448   1.1787   1.1787   1.2098   1.2098   1.2098   1.2098   1.3230
     1.3347   1.3347   1.3939   1.3939   1.4175   1.4175   1.4530   1.4530
     1.4530   1.4530   1.4698   1.4698   1.4698   1.4698   1.4827   1.4827
     1.4827   1.4827   1.4978   1.4978   1.5272   1.5272   1.5328   1.5328
     1.5328   1.5328   1.5609   1.5839   1.5839   1.5839   1.5839   1.5845
     1.5845   1.6182   1.6182   1.6623   1.6623   1.6623   1.6623   1.6623
     1.6623   1.6623   1.6623   1.6647   1.6647   1.6781   1.6781   1.6781
     1.6781   1.7821   1.7821   1.7926   1.7926   1.7926   1.7927   1.8373
     1.8373   1.8587   1.8587   1.8597   1.8597   1.8597   1.8597   1.8597
     1.8597   1.8597   1.8597   1.9413   1.9538   1.9688   1.9688   2.0460
     2.0460   2.0460   2.0460   2.0753   2.1149   2.1149   2.1149   2.1149
     2.3226   2.3226   2.3719   2.3719   2.4055   2.4055   2.4055   2.4055
     2.4269   2.4269   2.4472   2.4472   2.4641   2.4730   2.4731   2.4731
     2.4731   2.5440   2.5440   2.5440   2.5440   2.5485   2.5485   2.5485
     2.5485   2.5519   2.5519   2.5519   2.5519   2.5532   2.5532   2.5532
     2.5532   2.5532   2.5532   2.5532   2.5532   2.5835   2.5835   2.5835
     2.5835   2.5909   2.6133   2.6133   2.6358   2.6358   2.6484   2.6484
     2.6705   2.6836   2.6836   2.6836   2.6836   2.6978   2.6978   2.7389
     2.7389   2.7389   2.7389   2.7390   2.7390   2.7390   2.7390   2.7417
     2.7479   2.7479   2.8198   2.8198   2.8614   2.8614   2.8732   2.8732
     2.8732   2.8732   3.0203   3.0203   3.0747   3.0747   3.0747   3.0747
     3.1878   3.1878   3.2047   3.4268   3.4275   3.4275   3.4275   3.4275
     3.4275   3.4275   3.4275   3.4275   3.6813   3.6813   3.6813   3.6813
     4.1031   4.1031   4.1031   4.1031   4.1406   4.2135   4.2135   4.2135
     4.2135   4.4221   4.4221   4.4221   4.4221   4.4227   4.4227   4.6007
     4.6007   4.6008   4.6008   4.6354   4.6354   4.7140   4.9299   4.9299
     4.9299   4.9299   4.9299   4.9299   4.9299   4.9299   5.2257   5.2257
     5.2290   5.2290   5.4385   5.4385   5.5301   5.5301   5.5301   5.5301
     5.5539   5.5540   5.6135   5.6135   5.6135   5.6135   5.6403   5.6423
     5.6423   5.6423   5.6423   5.6423   5.6423   5.6423   5.6423   5.7237
     5.7237   5.7237   5.7237   5.7794   5.7794   5.7885   5.7885   5.7976
     5.7976   5.7976   5.7976   5.9120   5.9120   5.9120   5.9120   6.0830
     6.2537   6.2537   6.2537   6.2537   6.2537   6.2538   6.2864   6.2864
     6.6256   6.6256   6.7030   6.7030

     occupation numbers 
     1.0000   1.0000   1.0000   1.0000   1.0000   1.0000   1.0000   1.0000
     1.0000   1.0000   1.0000   1.0000   1.0000   1.0000   1.0000   1.0000
     1.0000   1.0000   1.0000   1.0000   1.0000   1.0000   1.0000   1.0000
     1.0000   1.0000   1.0000   1.0000   1.0000   1.0000   1.0000   1.0000
     1.0000   1.0000   1.0000   1.0000   1.0000   1.0000   1.0000   1.0000
     1.0000   1.0000   1.0000   1.0000   1.0000   1.0000   1.0000   1.0000
     1.0000   1.0000   1.0000   1.0000   1.0000   1.0000   1.0000   1.0000
     1.0000   1.0000   1.0000   1.0000   1.0000   1.0000   1.0000   1.0000
     1.0000   1.0000   1.0000   1.0000   1.0000   1.0000   1.0000   1.0000
     1.0000   1.0000   1.0000   1.0000   1.0000   1.0000   1.0000   1.0000
     1.0000   1.0000   1.0000   1.0000   1.0000   1.0000   1.0000   1.0000
     1.0000   1.0000   1.0000   1.0000   1.0000   1.0000   1.0000   1.0000
     1.0000   1.0000   1.0000   1.0000   1.0000   1.0000   1.0000   1.0000
     1.0000   1.0000   1.0000   1.0000   1.0000   1.0000   1.0000   1.0000
     1.0000   1.0000   1.0000   1.0000   1.0000   1.0000   1.0000   1.0000
     1.0000   1.0000   1.0000   1.0000   1.0000   1.0000   1.0000   1.0000
     1.0000   1.0000   1.0000   1.0000   1.0000   1.0000   1.0000   1.0000
     1.0000   1.0000   1.0000   1.0000   1.0000   1.0000   1.0000   1.0000
     1.0000   1.0000   1.0000   1.0000   1.0000   1.0000   1.0000   1.0000
     1.0000   1.0000   1.0000   1.0000   1.0000   1.0000   1.0000   1.0000
     1.0000   1.0000   1.0000   1.0000   1.0000   1.0000   1.0000   1.0000
     1.0000   1.0000   1.0000   1.0000   1.0000   1.0000   1.0000   1.0000
     1.0000   1.0000   1.0000   1.0000   1.0000   1.0000   1.0000   1.0000
     1.0000   1.0000   1.0000   1.0000   1.0000   1.0000   1.0000   1.0000
     1.0000   1.0000   1.0000   1.0000   1.0000   1.0000   1.0000   1.0000
     1.0000   1.0000   1.0000   1.0000   1.0000   1.0000   1.0000   1.0000
     1.0000   1.0000   1.0000   1.0000   1.0000   1.0000   1.0000   1.0000
     1.0000   1.0000   1.0000   1.0000   1.0000   1.0000   1.0000   1.0000
     1.0000   1.0000   1.0000   1.0000   1.0000   1.0000   1.0000   1.0000
     1.0000   1.0000   1.0000   1.0000   1.0000   1.0000   1.0000   1.0000
     1.0000   1.0000   1.0000   1.0000   1.0000   1.0000   1.0000   1.0000
     1.0000   1.0000   1.0000   1.0000   1.0000   1.0000   1.0000   1.0000
     1.0000   1.0000   1.0000   1.0000   1.0000   1.0000   1.0000   1.0000
     1.0000   1.0000   1.0000   1.0000   1.0000   1.0000   1.0000   1.0000
     1.0000   1.0000   1.0000   1.0000   1.0000   1.0000   1.0000   1.0000
     1.0000   1.0000   1.0000   1.0000   1.0000   1.0000   1.0000   1.0000
     1.0000   1.0000   1.0000   1.0000   1.0000   1.0000   1.0000   1.0000
     1.0000   1.0000   1.0000   1.0000   1.0000   1.0000   1.0000   1.0000
     1.0000   1.0000   1.0000   1.0000   1.0000   1.0000   1.0000   1.0000
     1.0000   1.0000   1.0000   1.0000   1.0000   1.0000   1.0000   1.0000
     1.0000   1.0000   1.0000   1.0000

          k = 0.0000-0.5774 0.3097 ( 35464 PWs)   bands (ev):

   -10.8203 -10.8203 -10.7127 -10.7127 -10.6015 -10.6015 -10.5178 -10.5178
   -10.4120 -10.4120 -10.3401 -10.3401 -10.3401 -10.3401 -10.3334 -10.2995
   -10.2995 -10.2961 -10.2961 -10.2961 -10.2961 -10.2914 -10.2904 -10.2904
   -10.2081 -10.2081 -10.1868 -10.1858 -10.1858 -10.1858 -10.1858 -10.1526
   -10.1494 -10.1494 -10.1494 -10.1494   0.9826   1.0368   1.0368   1.0471
     1.0698   1.0820   1.0821   1.1038   1.1038   1.1038   1.1038   1.1086
     1.1086   1.1268   1.1268   1.1443   1.1443   1.1496   1.1496   1.1780
     1.1780   1.1780   1.1781   1.1968   1.1968   1.1968   1.1968   1.2255
     1.2850   1.2850   1.3367   1.3367   1.3762   1.3762   1.3763   1.3763
     1.4035   1.4035   1.4331   1.4332   1.4425   1.4425   1.4548   1.4548
     1.5169   1.5169   1.5188   1.5188   1.5221   1.5221   1.5381   1.5381
     1.5437   1.5437   1.5573   1.5573   1.5637   1.5637   1.5637   1.5637
     1.5839   1.5839   1.5839   1.5839   1.5871   1.5905   1.5905   1.5969
     1.5969   1.6641   1.6853   1.6853   1.7338   1.7338   1.7338   1.7338
     1.7417   1.7417   1.7730   1.7730   1.7730   1.7730   1.8092   1.8092
     1.8094   1.8094   1.8687   1.8803   1.8904   1.8904   1.8904   1.8904
     1.9133   1.9133   1.9133   1.9133   1.9133   1.9178   1.9195   1.9824
     1.9824   1.9824   1.9824   2.0290   2.0290   2.0290   2.0291   2.0308
     2.3642   2.3642   2.4013   2.4013   2.4172   2.4172   2.4172   2.4172
     2.4440   2.4440   2.4609   2.4609   2.4695   2.4695   2.4789   2.4789
     2.4884   2.4884   2.4958   2.4958   2.4958   2.4958   2.5183   2.5183
     2.5266   2.5393   2.5393   2.5393   2.5393   2.5677   2.5677   2.5677
     2.5677   2.5930   2.5935   2.5935   2.6003   2.6056   2.6056   2.6172
     2.6172   2.6255   2.6255   2.6268   2.6329   2.6363   2.6363   2.6574
     2.6724   2.6724   2.6725   2.6725   2.6804   2.6804   2.6804   2.6804
     2.6913   2.6913   2.6913   2.6913   2.7317   2.7411   2.7501   2.7501
     2.8116   2.8116   2.8116   2.8116   2.8696   2.8696   2.8696   2.8696
     3.1154   3.1154   3.1154   3.1154   3.1456   3.1660   3.2560   3.2560
     3.2568   3.2568   3.2568   3.2568   3.2754   3.3752   3.3752   3.3762
     3.5916   3.5916   3.5916   3.5916   3.6971   3.6971   3.6971   3.6971
     3.8659   3.8659   3.9343   3.9343   4.2092   4.2092   4.2092   4.2092
     4.4237   4.4657   4.4657   4.5350   4.5350   4.5350   4.5350   4.5551
     4.5551   4.6101   4.6101   4.6168   4.6168   4.6168   4.6168   4.8201
     4.9825   4.9825   5.0141   5.0817   5.0817   5.0817   5.0817   5.0928
     5.1229   5.1229   5.2328   5.2328   5.2751   5.2751   5.3664   5.3664
     5.3814   5.3814   5.3814   5.3814   5.5973   5.5973   5.5973   5.5973
     5.5974   5.5974   5.6315   5.6315   5.7267   5.7659   5.7927   5.7986
     5.7986   5.7987   5.7987   5.8448   5.8448   5.8448   5.8448   5.8520
     5.8520   5.9570   5.9570   5.9987   6.0235   6.0235   6.0904   6.0904
     6.1732   6.1732   6.2739   6.2739   6.2837   6.2837   6.4801   6.4801
     6.5473   6.5473   6.6436   6.6436

     occupation numbers 
     1.0000   1.0000   1.0000   1.0000   1.0000   1.0000   1.0000   1.0000
     1.0000   1.0000   1.0000   1.0000   1.0000   1.0000   1.0000   1.0000
     1.0000   1.0000   1.0000   1.0000   1.0000   1.0000   1.0000   1.0000
     1.0000   1.0000   1.0000   1.0000   1.0000   1.0000   1.0000   1.0000
     1.0000   1.0000   1.0000   1.0000   1.0000   1.0000   1.0000   1.0000
     1.0000   1.0000   1.0000   1.0000   1.0000   1.0000   1.0000   1.0000
     1.0000   1.0000   1.0000   1.0000   1.0000   1.0000   1.0000   1.0000
     1.0000   1.0000   1.0000   1.0000   1.0000   1.0000   1.0000   1.0000
     1.0000   1.0000   1.0000   1.0000   1.0000   1.0000   1.0000   1.0000
     1.0000   1.0000   1.0000   1.0000   1.0000   1.0000   1.0000   1.0000
     1.0000   1.0000   1.0000   1.0000   1.0000   1.0000   1.0000   1.0000
     1.0000   1.0000   1.0000   1.0000   1.0000   1.0000   1.0000   1.0000
     1.0000   1.0000   1.0000   1.0000   1.0000   1.0000   1.0000   1.0000
     1.0000   1.0000   1.0000   1.0000   1.0000   1.0000   1.0000   1.0000
     1.0000   1.0000   1.0000   1.0000   1.0000   1.0000   1.0000   1.0000
     1.0000   1.0000   1.0000   1.0000   1.0000   1.0000   1.0000   1.0000
     1.0000   1.0000   1.0000   1.0000   1.0000   1.0000   1.0000   1.0000
     1.0000   1.0000   1.0000   1.0000   1.0000   1.0000   1.0000   1.0000
     1.0000   1.0000   1.0000   1.0000   1.0000   1.0000   1.0000   1.0000
     1.0000   1.0000   1.0000   1.0000   1.0000   1.0000   1.0000   1.0000
     1.0000   1.0000   1.0000   1.0000   1.0000   1.0000   1.0000   1.0000
     1.0000   1.0000   1.0000   1.0000   1.0000   1.0000   1.0000   1.0000
     1.0000   1.0000   1.0000   1.0000   1.0000   1.0000   1.0000   1.0000
     1.0000   1.0000   1.0000   1.0000   1.0000   1.0000   1.0000   1.0000
     1.0000   1.0000   1.0000   1.0000   1.0000   1.0000   1.0000   1.0000
     1.0000   1.0000   1.0000   1.0000   1.0000   1.0000   1.0000   1.0000
     1.0000   1.0000   1.0000   1.0000   1.0000   1.0000   1.0000   1.0000
     1.0000   1.0000   1.0000   1.0000   1.0000   1.0000   1.0000   1.0000
     1.0000   1.0000   1.0000   1.0000   1.0000   1.0000   1.0000   1.0000
     1.0000   1.0000   1.0000   1.0000   1.0000   1.0000   1.0000   1.0000
     1.0000   1.0000   1.0000   1.0000   1.0000   1.0000   1.0000   1.0000
     1.0000   1.0000   1.0000   1.0000   1.0000   1.0000   1.0000   1.0000
     1.0000   1.0000   1.0000   1.0000   1.0000   1.0000   1.0000   1.0000
     1.0000   1.0000   1.0000   1.0000   1.0000   1.0000   1.0000   1.0000
     1.0000   1.0000   1.0000   1.0000   1.0000   1.0000   1.0000   1.0000
     1.0000   1.0000   1.0000   1.0000   1.0000   1.0000   1.0000   1.0000
     1.0000   1.0000   1.0000   1.0000   1.0000   1.0000   1.0000   1.0000
     1.0000   1.0000   1.0000   1.0000   1.0000   1.0000   1.0000   1.0000
     1.0000   1.0000   1.0000   1.0000   1.0000   1.0000   1.0000   1.0000
     1.0000   1.0000   1.0000   1.0000   1.0000   1.0000   1.0000   1.0000
     1.0000   1.0000   1.0000   1.0000

     highest occupied level (ev):     6.8874

!    total energy              =   -6509.46398239 Ry
     estimated scf accuracy    <          4.3E-09 Ry

     The total energy is the sum of the following terms:
     one-electron contribution =   -2781.45269888 Ry
     hartree contribution      =    2129.20339683 Ry
     xc contribution           =   -1971.82950458 Ry
     ewald contribution        =   -3885.38517576 Ry

     convergence has been achieved in  34 iterations

     Forces acting on atoms (cartesian axes, Ry/au):

     atom    1 type  1   force =    -0.00000721   -0.00000416    0.00006414
     atom    2 type  1   force =     0.00000000   -0.00000720    0.00005783
     atom    3 type  2   force =    -0.00000064   -0.00000037   -0.00006090
     atom    4 type  2   force =    -0.00000000   -0.00000109   -0.00006133
     atom    5 type  1   force =    -0.00000090   -0.00000052    0.00006289
     atom    6 type  1   force =     0.00000000   -0.00001267    0.00005738
     atom    7 type  2   force =    -0.00000044   -0.00000025   -0.00006134
     atom    8 type  2   force =     0.00000000   -0.00000093   -0.00006089
     atom    9 type  1   force =     0.00000000   -0.00000358    0.00005644
     atom   10 type  1   force =     0.00000174    0.00000100    0.00005814
     atom   11 type  2   force =     0.00000000   -0.00000148   -0.00006098
     atom   12 type  2   force =     0.00000010    0.00000006   -0.00006234
     atom   13 type  1   force =     0.00000000   -0.00000356    0.00006870
     atom   14 type  1   force =    -0.00000919   -0.00000530    0.00006425
     atom   15 type  2   force =     0.00000000   -0.00000014   -0.00006127
     atom   16 type  2   force =    -0.00000081   -0.00000047   -0.00006070
     atom   17 type  1   force =    -0.00000310    0.00000179    0.00005644
     atom   18 type  1   force =    -0.00000624    0.00000360    0.00005783
     atom   19 type  2   force =    -0.00000128    0.00000074   -0.00006098
     atom   20 type  2   force =    -0.00000095    0.00000055   -0.00006133
     atom   21 type  1   force =    -0.00000308    0.00000178    0.00006870
     atom   22 type  1   force =    -0.00001098    0.00000634    0.00005738
     atom   23 type  2   force =    -0.00000012    0.00000007   -0.00006127
     atom   24 type  2   force =    -0.00000080    0.00000046   -0.00006089
     atom   25 type  1   force =     0.00000000   -0.00000213    0.00006327
     atom   26 type  1   force =    -0.00000626   -0.00000361    0.00005474
     atom   27 type  2   force =    -0.00000000   -0.00000017   -0.00006053
     atom   28 type  2   force =    -0.00000080   -0.00000046   -0.00006131
     atom   29 type  1   force =     0.00000000    0.00000251    0.00005899
     atom   30 type  1   force =    -0.00000009   -0.00000005    0.00006821
     atom   31 type  2   force =     0.00000000   -0.00000015   -0.00006255
     atom   32 type  2   force =     0.00000020    0.00000012   -0.00006083
     atom   33 type  1   force =    -0.00000184    0.00000106    0.00006327
     atom   34 type  1   force =    -0.00000174    0.00000100    0.00005814
     atom   35 type  2   force =    -0.00000015    0.00000009   -0.00006053
     atom   36 type  2   force =    -0.00000010    0.00000006   -0.00006234
     atom   37 type  1   force =     0.00000217   -0.00000125    0.00005899
     atom   38 type  1   force =     0.00000919   -0.00000530    0.00006425
     atom   39 type  2   force =    -0.00000013    0.00000007   -0.00006255
     atom   40 type  2   force =     0.00000081   -0.00000047   -0.00006070
     atom   41 type  1   force =     0.00000310    0.00000179    0.00005644
     atom   42 type  1   force =     0.00000000   -0.00000201    0.00005814
     atom   43 type  2   force =     0.00000128    0.00000074   -0.00006098
     atom   44 type  2   force =     0.00000000   -0.00000012   -0.00006234
     atom   45 type  1   force =     0.00000308    0.00000178    0.00006870
     atom   46 type  1   force =     0.00000000    0.00001061    0.00006425
     atom   47 type  2   force =     0.00000012    0.00000007   -0.00006127
     atom   48 type  2   force =     0.00000000    0.00000094   -0.00006070
     atom   49 type  1   force =     0.00000721   -0.00000416    0.00006414
     atom   50 type  1   force =     0.00000626   -0.00000361    0.00005474
     atom   51 type  2   force =     0.00000064   -0.00000037   -0.00006090
     atom   52 type  2   force =     0.00000080   -0.00000046   -0.00006131
     atom   53 type  1   force =     0.00000090   -0.00000052    0.00006289
     atom   54 type  1   force =     0.00000009   -0.00000005    0.00006821
     atom   55 type  2   force =     0.00000044   -0.00000025   -0.00006134
     atom   56 type  2   force =    -0.00000020    0.00000012   -0.00006083
     atom   57 type  1   force =     0.00000184    0.00000106    0.00006327
     atom   58 type  1   force =     0.00000000    0.00000723    0.00005474
     atom   59 type  2   force =     0.00000015    0.00000009   -0.00006053
     atom   60 type  2   force =     0.00000000    0.00000093   -0.00006131
     atom   61 type  1   force =    -0.00000217   -0.00000125    0.00005899
     atom   62 type  1   force =     0.00000000    0.00000010    0.00006821
     atom   63 type  2   force =     0.00000013    0.00000007   -0.00006255
     atom   64 type  2   force =     0.00000000   -0.00000024   -0.00006083
     atom   65 type  1   force =     0.00000000    0.00000833    0.00006414
     atom   66 type  1   force =     0.00000624    0.00000360    0.00005783
     atom   67 type  2   force =     0.00000000    0.00000074   -0.00006090
     atom   68 type  2   force =     0.00000095    0.00000055   -0.00006133
     atom   69 type  1   force =    -0.00000000    0.00000104    0.00006289
     atom   70 type  1   force =     0.00001098    0.00000634    0.00005738
     atom   71 type  2   force =    -0.00000000    0.00000051   -0.00006134
     atom   72 type  2   force =     0.00000080    0.00000046   -0.00006089
     The non-local contrib.  to forces
     atom    1 type  1   force =    -0.00000237   -0.00000137   -0.00483437
     atom    2 type  1   force =     0.00000000   -0.00000284   -0.00483364
     atom    3 type  2   force =     0.00000071    0.00000041    0.00575396
     atom    4 type  2   force =     0.00000000    0.00000118    0.00575549
     atom    5 type  1   force =    -0.00000223   -0.00000129   -0.00483275
     atom    6 type  1   force =     0.00000000   -0.00000309   -0.00483320
     atom    7 type  2   force =     0.00000138    0.00000079    0.00575464
     atom    8 type  2   force =     0.00000000    0.00000156    0.00575392
     atom    9 type  1   force =     0.00000000   -0.00000128   -0.00483349
     atom   10 type  1   force =    -0.00000072   -0.00000042   -0.00483360
     atom   11 type  2   force =     0.00000000    0.00000163    0.00575422
     atom   12 type  2   force =     0.00000013    0.00000007    0.00575527
     atom   13 type  1   force =     0.00000000   -0.00000151   -0.00483083
     atom   14 type  1   force =    -0.00000215   -0.00000124   -0.00483206
     atom   15 type  2   force =    -0.00000000    0.00000062    0.00575425
     atom   16 type  2   force =     0.00000076    0.00000044    0.00575287
     atom   17 type  1   force =    -0.00000111    0.00000064   -0.00483349
     atom   18 type  1   force =    -0.00000246    0.00000142   -0.00483364
     atom   19 type  2   force =     0.00000141   -0.00000082    0.00575422
     atom   20 type  2   force =     0.00000102   -0.00000059    0.00575549
     atom   21 type  1   force =    -0.00000131    0.00000076   -0.00483083
     atom   22 type  1   force =    -0.00000268    0.00000154   -0.00483320
     atom   23 type  2   force =     0.00000053   -0.00000031    0.00575425
     atom   24 type  2   force =     0.00000135   -0.00000078    0.00575392
     atom   25 type  1   force =     0.00000000   -0.00000096   -0.00483356
     atom   26 type  1   force =    -0.00000143   -0.00000082   -0.00483412
     atom   27 type  2   force =     0.00000000   -0.00000124    0.00575294
     atom   28 type  2   force =     0.00000137    0.00000079    0.00575448
     atom   29 type  1   force =     0.00000000   -0.00000040   -0.00483227
     atom   30 type  1   force =     0.00000131    0.00000075   -0.00483023
     atom   31 type  2   force =     0.00000000    0.00000042    0.00575517
     atom   32 type  2   force =     0.00000024    0.00000014    0.00575446
     atom   33 type  1   force =    -0.00000083    0.00000048   -0.00483356
     atom   34 type  1   force =     0.00000072   -0.00000042   -0.00483360
     atom   35 type  2   force =    -0.00000107    0.00000062    0.00575294
     atom   36 type  2   force =    -0.00000013    0.00000007    0.00575527
     atom   37 type  1   force =    -0.00000035    0.00000020   -0.00483227
     atom   38 type  1   force =     0.00000215   -0.00000124   -0.00483206
     atom   39 type  2   force =     0.00000036   -0.00000021    0.00575517
     atom   40 type  2   force =    -0.00000076    0.00000044    0.00575287
     atom   41 type  1   force =     0.00000111    0.00000064   -0.00483349
     atom   42 type  1   force =     0.00000000    0.00000083   -0.00483360
     atom   43 type  2   force =    -0.00000141   -0.00000082    0.00575422
     atom   44 type  2   force =     0.00000000   -0.00000015    0.00575527
     atom   45 type  1   force =     0.00000131    0.00000076   -0.00483083
     atom   46 type  1   force =     0.00000000    0.00000248   -0.00483206
     atom   47 type  2   force =    -0.00000053   -0.00000031    0.00575425
     atom   48 type  2   force =     0.00000000   -0.00000087    0.00575287
     atom   49 type  1   force =     0.00000237   -0.00000137   -0.00483437
     atom   50 type  1   force =     0.00000143   -0.00000082   -0.00483412
     atom   51 type  2   force =    -0.00000071    0.00000041    0.00575396
     atom   52 type  2   force =    -0.00000137    0.00000079    0.00575448
     atom   53 type  1   force =     0.00000223   -0.00000129   -0.00483275
     atom   54 type  1   force =    -0.00000131    0.00000075   -0.00483023
     atom   55 type  2   force =    -0.00000138    0.00000079    0.00575464
     atom   56 type  2   force =    -0.00000024    0.00000014    0.00575446
     atom   57 type  1   force =     0.00000083    0.00000048   -0.00483356
     atom   58 type  1   force =     0.00000000    0.00000165   -0.00483412
     atom   59 type  2   force =     0.00000107    0.00000062    0.00575294
     atom   60 type  2   force =     0.00000000   -0.00000158    0.00575448
     atom   61 type  1   force =     0.00000035    0.00000020   -0.00483227
     atom   62 type  1   force =     0.00000000   -0.00000151   -0.00483023
     atom   63 type  2   force =    -0.00000036   -0.00000021    0.00575517
     atom   64 type  2   force =     0.00000000   -0.00000028    0.00575446
     atom   65 type  1   force =     0.00000000    0.00000274   -0.00483437
     atom   66 type  1   force =     0.00000246    0.00000142   -0.00483364
     atom   67 type  2   force =     0.00000000   -0.00000082    0.00575396
     atom   68 type  2   force =    -0.00000102   -0.00000059    0.00575549
     atom   69 type  1   force =    -0.00000000    0.00000258   -0.00483275
     atom   70 type  1   force =     0.00000268    0.00000154   -0.00483320
     atom   71 type  2   force =    -0.00000000   -0.00000159    0.00575464
     atom   72 type  2   force =    -0.00000135   -0.00000078    0.00575392
     The ionic contribution  to forces
     atom    1 type  1   force =     0.00000001    0.00000001    0.06271747
     atom    2 type  1   force =     0.00000000    0.00000002    0.06271747
     atom    3 type  2   force =     0.00000001    0.00000000   -0.06271747
     atom    4 type  2   force =    -0.00000000    0.00000001   -0.06271747
     atom    5 type  1   force =     0.00000001    0.00000001    0.06271747
     atom    6 type  1   force =     0.00000000    0.00000002    0.06271747
     atom    7 type  2   force =     0.00000001    0.00000000   -0.06271747
     atom    8 type  2   force =    -0.00000000    0.00000001   -0.06271747
     atom    9 type  1   force =     0.00000001    0.00000001    0.06271747
     atom   10 type  1   force =     0.00000001   -0.00000000    0.06271747
     atom   11 type  2   force =     0.00000000    0.00000000   -0.06271747
     atom   12 type  2   force =     0.00000001    0.00000000   -0.06271747
     atom   13 type  1   force =     0.00000001    0.00000001    0.06271747
     atom   14 type  1   force =     0.00000001   -0.00000000    0.06271747
     atom   15 type  2   force =     0.00000000    0.00000000   -0.06271747
     atom   16 type  2   force =     0.00000001    0.00000000   -0.06271747
     atom   17 type  1   force =     0.00000001   -0.00000001    0.06271747
     atom   18 type  1   force =     0.00000000   -0.00000000    0.06271747
     atom   19 type  2   force =     0.00000001   -0.00000000   -0.06271747
     atom   20 type  2   force =    -0.00000000    0.00000000   -0.06271747
     atom   21 type  1   force =     0.00000001   -0.00000001    0.06271747
     atom   22 type  1   force =     0.00000000   -0.00000000    0.06271747
     atom   23 type  2   force =     0.00000001   -0.00000000   -0.06271747
     atom   24 type  2   force =    -0.00000000    0.00000000   -0.06271747
     atom   25 type  1   force =    -0.00000001    0.00000001    0.06271747
     atom   26 type  1   force =     0.00000001    0.00000001    0.06271747
[...]
     atom   18 type  1   force =    -0.00000004    0.00000002    0.00046390
     atom   19 type  2   force =    -0.00000001    0.00000001   -0.00006504
     atom   20 type  2   force =    -0.00000001    0.00000000   -0.00006505
     atom   21 type  1   force =     0.00000001   -0.00000001    0.00046411
     atom   22 type  1   force =    -0.00000024    0.00000014    0.00046394
     atom   23 type  2   force =     0.00000000   -0.00000000   -0.00006504
     atom   24 type  2   force =    -0.00000001    0.00000001   -0.00006503
     atom   25 type  1   force =    -0.00000002    0.00000000    0.00046415
     atom   26 type  1   force =    -0.00000018   -0.00000010    0.00046395
     atom   27 type  2   force =     0.00000000    0.00000002   -0.00006502
     atom   28 type  2   force =    -0.00000001   -0.00000001   -0.00006504
     atom   29 type  1   force =    -0.00000002    0.00000021    0.00046387
     atom   30 type  1   force =    -0.00000015   -0.00000009    0.00046402
     atom   31 type  2   force =     0.00000000   -0.00000000   -0.00006504
     atom   32 type  2   force =    -0.00000000   -0.00000000   -0.00006504
     atom   33 type  1   force =    -0.00000002    0.00000001    0.00046415
     atom   34 type  1   force =    -0.00000011    0.00000006    0.00046394
     atom   35 type  2   force =     0.00000001   -0.00000001   -0.00006502
     atom   36 type  2   force =     0.00000000   -0.00000000   -0.00006505
     atom   37 type  1   force =     0.00000015   -0.00000009    0.00046387
     atom   38 type  1   force =     0.00000013   -0.00000008    0.00046407
     atom   39 type  2   force =    -0.00000000    0.00000000   -0.00006504
     atom   40 type  2   force =     0.00000001   -0.00000000   -0.00006503
     atom   41 type  1   force =     0.00000006    0.00000004    0.00046390
     atom   42 type  1   force =     0.00000002   -0.00000015    0.00046394
     atom   43 type  2   force =     0.00000001    0.00000001   -0.00006504
     atom   44 type  2   force =    -0.00000000    0.00000000   -0.00006505
     atom   45 type  1   force =    -0.00000001   -0.00000001    0.00046411
     atom   46 type  1   force =     0.00000002    0.00000012    0.00046407
     atom   47 type  2   force =    -0.00000000   -0.00000000   -0.00006504
     atom   48 type  2   force =    -0.00000000    0.00000001   -0.00006503
     atom   49 type  1   force =     0.00000006   -0.00000004    0.00046423
     atom   50 type  1   force =     0.00000018   -0.00000010    0.00046395
     atom   51 type  2   force =    -0.00000000    0.00000000   -0.00006504
     atom   52 type  2   force =     0.00000001   -0.00000001   -0.00006504
     atom   53 type  1   force =    -0.00000017    0.00000010    0.00046415
     atom   54 type  1   force =     0.00000015   -0.00000009    0.00046402
     atom   55 type  2   force =     0.00000001   -0.00000001   -0.00006504
     atom   56 type  2   force =     0.00000000   -0.00000000   -0.00006504
     atom   57 type  1   force =    -0.00000001    0.00000001    0.00046415
     atom   58 type  1   force =    -0.00000000    0.00000021    0.00046395
     atom   59 type  2   force =    -0.00000001   -0.00000001   -0.00006502
     atom   60 type  2   force =    -0.00000000    0.00000001   -0.00006504
     atom   61 type  1   force =    -0.00000019   -0.00000009    0.00046387
     atom   62 type  1   force =    -0.00000000    0.00000018    0.00046402
     atom   63 type  2   force =     0.00000000    0.00000000   -0.00006504
     atom   64 type  2   force =    -0.00000000    0.00000000   -0.00006504
     atom   65 type  1   force =     0.00000000    0.00000007    0.00046423
     atom   66 type  1   force =     0.00000004    0.00000002    0.00046390
     atom   67 type  2   force =     0.00000000   -0.00000000   -0.00006504
     atom   68 type  2   force =     0.00000001    0.00000000   -0.00006505
     atom   69 type  1   force =     0.00000000   -0.00000020    0.00046415
     atom   70 type  1   force =     0.00000024    0.00000014    0.00046394
     atom   71 type  2   force =     0.00000000    0.00000001   -0.00006504
     atom   72 type  2   force =     0.00000001    0.00000001   -0.00006503
     The Hubbard contrib.    to forces
     atom    1 type  1   force =     0.00000000    0.00000000    0.00000000
     atom    2 type  1   force =     0.00000000    0.00000000    0.00000000
     atom    3 type  2   force =     0.00000000    0.00000000    0.00000000
     atom    4 type  2   force =     0.00000000    0.00000000    0.00000000
     atom    5 type  1   force =     0.00000000    0.00000000    0.00000000
     atom    6 type  1   force =     0.00000000    0.00000000    0.00000000
     atom    7 type  2   force =     0.00000000    0.00000000    0.00000000
     atom    8 type  2   force =     0.00000000    0.00000000    0.00000000
     atom    9 type  1   force =     0.00000000    0.00000000    0.00000000
     atom   10 type  1   force =     0.00000000    0.00000000    0.00000000
     atom   11 type  2   force =     0.00000000    0.00000000    0.00000000
     atom   12 type  2   force =     0.00000000    0.00000000    0.00000000
     atom   13 type  1   force =     0.00000000    0.00000000    0.00000000
     atom   14 type  1   force =     0.00000000    0.00000000    0.00000000
     atom   15 type  2   force =     0.00000000    0.00000000    0.00000000
     atom   16 type  2   force =     0.00000000    0.00000000    0.00000000
     atom   17 type  1   force =     0.00000000    0.00000000    0.00000000
     atom   18 type  1   force =     0.00000000    0.00000000    0.00000000
     atom   19 type  2   force =     0.00000000    0.00000000    0.00000000
     atom   20 type  2   force =     0.00000000    0.00000000    0.00000000
     atom   21 type  1   force =     0.00000000    0.00000000    0.00000000
     atom   22 type  1   force =     0.00000000    0.00000000    0.00000000
     atom   23 type  2   force =     0.00000000    0.00000000    0.00000000
     atom   24 type  2   force =     0.00000000    0.00000000    0.00000000
     atom   25 type  1   force =     0.00000000    0.00000000    0.00000000
     atom   26 type  1   force =     0.00000000    0.00000000    0.00000000
     atom   27 type  2   force =     0.00000000    0.00000000    0.00000000
     atom   28 type  2   force =     0.00000000    0.00000000    0.00000000
     atom   29 type  1   force =     0.00000000    0.00000000    0.00000000
     atom   30 type  1   force =     0.00000000    0.00000000    0.00000000
     atom   31 type  2   force =     0.00000000    0.00000000    0.00000000
     atom   32 type  2   force =     0.00000000    0.00000000    0.00000000
     atom   33 type  1   force =     0.00000000    0.00000000    0.00000000
     atom   34 type  1   force =     0.00000000    0.00000000    0.00000000
     atom   35 type  2   force =     0.00000000    0.00000000    0.00000000
     atom   36 type  2   force =     0.00000000    0.00000000    0.00000000
     atom   37 type  1   force =     0.00000000    0.00000000    0.00000000
     atom   38 type  1   force =     0.00000000    0.00000000    0.00000000
     atom   39 type  2   force =     0.00000000    0.00000000    0.00000000
     atom   40 type  2   force =     0.00000000    0.00000000    0.00000000
     atom   41 type  1   force =     0.00000000    0.00000000    0.00000000
     atom   42 type  1   force =     0.00000000    0.00000000    0.00000000
     atom   43 type  2   force =     0.00000000    0.00000000    0.00000000
     atom   44 type  2   force =     0.00000000    0.00000000    0.00000000
     atom   45 type  1   force =     0.00000000    0.00000000    0.00000000
     atom   46 type  1   force =     0.00000000    0.00000000    0.00000000
     atom   47 type  2   force =     0.00000000    0.00000000    0.00000000
     atom   48 type  2   force =     0.00000000    0.00000000    0.00000000
     atom   49 type  1   force =     0.00000000    0.00000000    0.00000000
     atom   50 type  1   force =     0.00000000    0.00000000    0.00000000
     atom   51 type  2   force =     0.00000000    0.00000000    0.00000000
     atom   52 type  2   force =     0.00000000    0.00000000    0.00000000
     atom   53 type  1   force =     0.00000000    0.00000000    0.00000000
     atom   54 type  1   force =     0.00000000    0.00000000    0.00000000
     atom   55 type  2   force =     0.00000000    0.00000000    0.00000000
     atom   56 type  2   force =     0.00000000    0.00000000    0.00000000
     atom   57 type  1   force =     0.00000000    0.00000000    0.00000000
     atom   58 type  1   force =     0.00000000    0.00000000    0.00000000
     atom   59 type  2   force =     0.00000000    0.00000000    0.00000000
     atom   60 type  2   force =     0.00000000    0.00000000    0.00000000
     atom   61 type  1   force =     0.00000000    0.00000000    0.00000000
     atom   62 type  1   force =     0.00000000    0.00000000    0.00000000
     atom   63 type  2   force =     0.00000000    0.00000000    0.00000000
     atom   64 type  2   force =     0.00000000    0.00000000    0.00000000
     atom   65 type  1   force =     0.00000000    0.00000000    0.00000000
     atom   66 type  1   force =     0.00000000    0.00000000    0.00000000
     atom   67 type  2   force =     0.00000000    0.00000000    0.00000000
     atom   68 type  2   force =     0.00000000    0.00000000    0.00000000
     atom   69 type  1   force =     0.00000000    0.00000000    0.00000000
     atom   70 type  1   force =     0.00000000    0.00000000    0.00000000
     atom   71 type  2   force =     0.00000000    0.00000000    0.00000000
     atom   72 type  2   force =     0.00000000    0.00000000    0.00000000
     The SCF correction term to forces
     atom    1 type  1   force =    -0.00001262   -0.00000729    0.00000541
     atom    2 type  1   force =     0.00000000   -0.00001257   -0.00000765
     atom    3 type  2   force =    -0.00000690   -0.00000398    0.00000278
     atom    4 type  2   force =     0.00000000   -0.00000756   -0.00000062
     atom    5 type  1   force =    -0.00000014   -0.00000008    0.00000347
     atom    6 type  1   force =     0.00000000   -0.00002444   -0.00000785
     atom    7 type  2   force =    -0.00000508   -0.00000294   -0.00000013
     atom    8 type  2   force =     0.00000000   -0.00000527    0.00000309
     atom    9 type  1   force =     0.00000000   -0.00000698   -0.00000998
     atom   10 type  1   force =     0.00000391    0.00000226   -0.00000679
     atom   11 type  2   force =    -0.00000000   -0.00000823    0.00000230
     atom   12 type  2   force =     0.00000003    0.00000002   -0.00000344
     atom   13 type  1   force =     0.00000000   -0.00000570    0.00001267
     atom   14 type  1   force =    -0.00001667   -0.00000962    0.00000486
     atom   15 type  2   force =    -0.00000000   -0.00000310    0.00000024
     atom   16 type  2   force =    -0.00000432   -0.00000249    0.00000652
     atom   17 type  1   force =    -0.00000604    0.00000349   -0.00000998
     atom   18 type  1   force =    -0.00001088    0.00000628   -0.00000765
     atom   19 type  2   force =    -0.00000712    0.00000411    0.00000230
     atom   20 type  2   force =    -0.00000655    0.00000378   -0.00000062
     atom   21 type  1   force =    -0.00000494    0.00000285    0.00001267
     atom   22 type  1   force =    -0.00002117    0.00001222   -0.00000785
     atom   23 type  2   force =    -0.00000269    0.00000155    0.00000024
     atom   24 type  2   force =    -0.00000456    0.00000263    0.00000309
     atom   25 type  1   force =    -0.00000000   -0.00000389    0.00000347
     atom   26 type  1   force =    -0.00001249   -0.00000721   -0.00001202
     atom   27 type  2   force =    -0.00000000    0.00000144    0.00000648
     atom   28 type  2   force =    -0.00000594   -0.00000343    0.00000035
     atom   29 type  1   force =    -0.00000000    0.00000599   -0.00000590
     atom   30 type  1   force =    -0.00000140   -0.00000081    0.00001108
     atom   31 type  2   force =    -0.00000000   -0.00000249   -0.00000428
     atom   32 type  2   force =     0.00000030    0.00000017    0.00000148
     atom   33 type  1   force =    -0.00000337    0.00000195    0.00000347
     atom   34 type  1   force =    -0.00000391    0.00000226   -0.00000679
     atom   35 type  2   force =     0.00000125   -0.00000072    0.00000648
     atom   36 type  2   force =    -0.00000003    0.00000002   -0.00000344
     atom   37 type  1   force =     0.00000518   -0.00000299   -0.00000590
     atom   38 type  1   force =     0.00001667   -0.00000962    0.00000486
     atom   39 type  2   force =    -0.00000215    0.00000124   -0.00000428
     atom   40 type  2   force =     0.00000432   -0.00000249    0.00000652
     atom   41 type  1   force =     0.00000604    0.00000349   -0.00000998
     atom   42 type  1   force =     0.00000000   -0.00000452   -0.00000679
     atom   43 type  2   force =     0.00000712    0.00000411    0.00000230
     atom   44 type  2   force =     0.00000000   -0.00000004   -0.00000344
     atom   45 type  1   force =     0.00000494    0.00000285    0.00001267
     atom   46 type  1   force =     0.00000000    0.00001924    0.00000486
     atom   47 type  2   force =     0.00000269    0.00000155    0.00000024
     atom   48 type  2   force =     0.00000000    0.00000499    0.00000652
     atom   49 type  1   force =     0.00001262   -0.00000729    0.00000541
     atom   50 type  1   force =     0.00001249   -0.00000721   -0.00001202
     atom   51 type  2   force =     0.00000690   -0.00000398    0.00000278
     atom   52 type  2   force =     0.00000594   -0.00000343    0.00000035
     atom   53 type  1   force =     0.00000014   -0.00000008    0.00000347
     atom   54 type  1   force =     0.00000140   -0.00000081    0.00001108
     atom   55 type  2   force =     0.00000508   -0.00000294   -0.00000013
     atom   56 type  2   force =    -0.00000030    0.00000017    0.00000148
     atom   57 type  1   force =     0.00000337    0.00000195    0.00000347
     atom   58 type  1   force =    -0.00000000    0.00001442   -0.00001202
     atom   59 type  2   force =    -0.00000125   -0.00000072    0.00000648
     atom   60 type  2   force =     0.00000000    0.00000686    0.00000035
     atom   61 type  1   force =    -0.00000518   -0.00000299   -0.00000590
     atom   62 type  1   force =    -0.00000000    0.00000162    0.00001108
     atom   63 type  2   force =     0.00000215    0.00000124   -0.00000428
     atom   64 type  2   force =     0.00000000   -0.00000034    0.00000148
     atom   65 type  1   force =    -0.00000000    0.00001458    0.00000541
     atom   66 type  1   force =     0.00001088    0.00000628   -0.00000765
     atom   67 type  2   force =    -0.00000000    0.00000796    0.00000278
     atom   68 type  2   force =     0.00000655    0.00000378   -0.00000062
     atom   69 type  1   force =    -0.00000000    0.00000016    0.00000347
     atom   70 type  1   force =     0.00002117    0.00001222   -0.00000785
     atom   71 type  2   force =    -0.00000000    0.00000587   -0.00000013
     atom   72 type  2   force =     0.00000456    0.00000263    0.00000309

     Total force =     0.000522     Total SCF correction =     0.000095
     SCF correction compared to forces is large: reduce conv_thr to get better values

     init_run     :     40.53s CPU     40.36s WALL (       1 calls)
     electrons    :   2789.96s CPU   2777.13s WALL (       1 calls)
     forces       :     22.67s CPU     22.70s WALL (       1 calls)

     Called by init_run:
     wfcinit      :     18.01s CPU     17.54s WALL (       1 calls)
     wfcinit:atom :      0.19s CPU      0.23s WALL (       1 calls)
     wfcinit:wfcr :     17.32s CPU     16.72s WALL (       1 calls)
     potinit      :     13.07s CPU     13.24s WALL (       1 calls)
     hinit0       :      7.99s CPU      8.04s WALL (       1 calls)

     Called by electrons:
     c_bands      :   2582.57s CPU   2557.99s WALL (      34 calls)
     sum_band     :    158.98s CPU    164.53s WALL (      34 calls)
     v_of_rho     :     21.85s CPU     22.89s WALL (      35 calls)
     v_h          :      1.42s CPU      1.53s WALL (      35 calls)
     v_xc         :     20.87s CPU     21.81s WALL (      36 calls)
     newd         :     21.18s CPU     25.92s WALL (      35 calls)
     mix_rho      :      1.78s CPU      1.94s WALL (      34 calls)

     Called by c_bands:
     init_us_2    :      4.47s CPU      4.62s WALL (      69 calls)
     init_us_2:cp :      4.47s CPU      4.62s WALL (      69 calls)
     cegterg      :   2354.35s CPU   2304.75s WALL (      34 calls)

     Called by sum_band:
     sum_band:wei :      0.62s CPU      0.65s WALL (      34 calls)
     sum_band:loo :    126.61s CPU    125.14s WALL (      34 calls)
     sum_band:buf :      0.00s CPU      0.00s WALL (      34 calls)
     sum_band:ini :      2.18s CPU      2.22s WALL (      34 calls)
     sum_band:cal :     53.68s CPU     48.19s WALL (      34 calls)
     sum_band:bec :      0.31s CPU      0.33s WALL (      34 calls)
     addusdens    :     13.46s CPU     18.66s WALL (      34 calls)
                                        0.00s GPU  (      34 calls)
     addusd:skk   :      0.55s CPU      0.59s WALL (      68 calls)
                                        0.00s GPU  (      68 calls)

     Called by *egterg:
     cdiaghg      :    481.28s CPU    556.36s WALL (     234 calls)
     cegterg:over :    253.74s CPU    234.36s WALL (     200 calls)
     cegterg:upda :    139.08s CPU    124.00s WALL (     200 calls)
     cegterg:last :    329.85s CPU    279.76s WALL (     120 calls)
     cdiaghg:chol :      6.88s CPU      7.09s WALL (     234 calls)
     cdiaghg:inve :      3.50s CPU      5.28s WALL (     234 calls)
     cdiaghg:para :     61.04s CPU     63.59s WALL (     468 calls)
     h_psi        :    918.92s CPU    920.74s WALL (     235 calls)
     s_psi        :    170.03s CPU    122.77s WALL (     235 calls)
     g_psi        :      1.68s CPU      1.67s WALL (     200 calls)

     Called by h_psi:
     h_psi:calbec :    223.36s CPU    200.12s WALL (     235 calls)
     vloc_psi     :    522.59s CPU    591.17s WALL (     235 calls)
     add_vuspsi   :    171.55s CPU    126.44s WALL (     235 calls)

     General routines
     calbec       :    283.34s CPU    254.11s WALL (     273 calls)
     fft          :     12.97s CPU     14.30s WALL (     464 calls)
     ffts         :      1.56s CPU      1.66s WALL (      69 calls)
     fftw         :    525.46s CPU    592.72s WALL (   92312 calls)
     interpolate  :      1.78s CPU      1.97s WALL (      35 calls)

     Parallel routines

     PWSCF        :  47m37.77s CPU  47m24.86s WALL


   This run was terminated on:  13:29:58  19Aug2025            

=------------------------------------------------------------------------------=
   JOB DONE.
=------------------------------------------------------------------------------=
Note: The following floating-point exceptions are signalling: IEEE_INVALID_FLAG
Note: The following floating-point exceptions are signalling: IEEE_INVALID_FLAG
Note: The following floating-point exceptions are signalling: IEEE_INVALID_FLAG
Note: The following floating-point exceptions are signalling: IEEE_INVALID_FLAG
Note: The following floating-point exceptions are signalling: IEEE_INVALID_FLAG
Note: The following floating-point exceptions are signalling: IEEE_INVALID_FLAG
Note: The following floating-point exceptions are signalling: IEEE_DENORMAL
Note: The following floating-point exceptions are signalling: IEEE_DENORMAL
Note: The following floating-point exceptions are signalling: IEEE_DENORMAL
Note: The following floating-point exceptions are signalling: IEEE_INVALID_FLAG
Note: The following floating-point exceptions are signalling: IEEE_DENORMAL
Note: The following floating-point exceptions are signalling: IEEE_INVALID_FLAG
