
     Program PWSCF v.7.0 starts on 28Aug2025 at 22:46: 5 

     This program is part of the open-source Quantum ESPRESSO suite
     for quantum simulation of materials; please cite
         "P. Giannozzi et al., J. Phys.:Condens. Matter 21 395502 (2009);
         "P. Giannozzi et al., J. Phys.:Condens. Matter 29 465901 (2017);
         "P. Giannozzi et al., J. Chem. Phys. 152 154105 (2020);
          URL http://www.quantum-espresso.org", 
     in publications or presentations arising from this work. More details at
     http://www.quantum-espresso.org/quote

     Parallel version (MPI & OpenMP), running on      32 processor cores
     Number of MPI processes:                32
     Threads/MPI process:                     1

     MPI processes distributed on     1 nodes
     K-points division:     npool     =       8
     R & G space division:  proc/nbgrp/npool/nimage =       4
     105627 MiB available memory on the printing compute node when the environment starts

     Reading input from /home/jvc/QEspresso7.2/ZnO_database/scripts/cell212.in/ZnO-3.07-1.71-212.in
Warning: card &CELL ignored
Warning: card / ignored
Warning: card &FCP ignored
Warning: card / ignored
Warning: card &RISM ignored
Warning: card / ignored

     Current dimensions of program PWSCF are:
     Max number of different atomic species (ntypx) = 10
     Max number of k-points (npk) =  40000
     Max angular momentum in pseudopotentials (lmaxx) =  4
     file Zn.upf: wavefunction(s)  3D renormalized
     Found identity + (  0.0000  0.0000 -0.5000) symmetry
     This is a supercell, fractional translations are disabled
     Message from routine setup:
     using ibrav=0 with symmetry is DISCOURAGED, use correct ibrav instead

     Subspace diagonalization in iterative solution of the eigenvalue problem:
     one sub-group per band group will be used
     scalapack distributed-memory algorithm (size of sub-group:  2*  2 procs)


     Parallelization info
     --------------------
     sticks:   dense  smooth     PW     G-vecs:    dense   smooth      PW
     Min         463     232     73                39203    13854    2433
     Max         464     233     74                39206    13859    2440
     Sum        1853     931    295               156819    55431    9749

     Using Slab Decomposition



     bravais-lattice index     =            0
     lattice parameter (alat)  =      11.6162  a.u.
     unit-cell volume          =    1161.4587 (a.u.)^3
     number of atoms/cell      =           16
     number of atomic types    =            2
     number of electrons       =       144.00
     number of Kohn-Sham states=           72
     kinetic-energy cutoff     =      50.0000  Ry
     charge density cutoff     =     400.0000  Ry
     scf convergence threshold =      1.0E-08
     mixing beta               =       0.3000
     number of iterations used =            8  plain     mixing
     Exchange-correlation= PBE
                           (   1   4   3   4   0   0   0)

     celldm(1)=  11.616245  celldm(2)=   0.000000  celldm(3)=   0.000000
     celldm(4)=   0.000000  celldm(5)=   0.000000  celldm(6)=   0.000000

     crystal axes: (cart. coord. in units of alat)
               a(1) = (   1.000000   0.000000   0.000000 )  
               a(2) = (  -0.250000   0.433013   0.000000 )  
               a(3) = (   0.000000   0.000000   1.711220 )  

     reciprocal axes: (cart. coord. in units 2 pi/alat)
               b(1) = (  1.000000  0.577350 -0.000000 )  
               b(2) = (  0.000000  2.309401  0.000000 )  
               b(3) = (  0.000000 -0.000000  0.584378 )  


     PseudoPot. # 1 for Zn read from file:
     /home/jvc/QEspresso7.2/ZnO_database/pseudos/Zn.upf
     MD5 check sum: 7f56cabf9682ed8c977c2f7d0c5985c5
     Pseudo is Ultrasoft + core correction, Zval = 12.0
     Generated using &quot;atomic&quot; code by A. Dal Corso  v.6.2.2
     Using radial grid of 1201 points,  6 beta functions with: 
                l(1) =   0
                l(2) =   0
                l(3) =   1
                l(4) =   1
                l(5) =   2
                l(6) =   2
     Q(r) pseudized with 0 coefficients 


     PseudoPot. # 2 for O  read from file:
     /home/jvc/QEspresso7.2/ZnO_database/pseudos/O.upf
     MD5 check sum: 91400c9766925bcf19f520983a725ff0
     Pseudo is Ultrasoft + core correction, Zval =  6.0
     Generated using &quot;atomic&quot; code by A. Dal Corso  v.6.3MaX
     Using radial grid of 1095 points,  4 beta functions with: 
                l(1) =   0
                l(2) =   0
                l(3) =   1
                l(4) =   1
     Q(r) pseudized with 0 coefficients 


     atomic species   valence    mass     pseudopotential
        Zn            12.00    65.38000     Zn( 1.00)
        O              6.00    15.99900     O ( 1.00)

      2 Sym. Ops. (no inversion) found


                                    s                        frac. trans.

      isym =  1     identity                                     

 cryst.   s( 1) = (     1          0          0      )
                  (     0          1          0      )
                  (     0          0          1      )

 cart.    s( 1) = (  1.0000000  0.0000000  0.0000000 )
                  (  0.0000000  1.0000000  0.0000000 )
                  (  0.0000000  0.0000000  1.0000000 )


      isym =  2     inv. 180 deg rotation - cryst. axis [0,1,0]  

 cryst.   s( 2) = (     1          2          0      )
                  (     0         -1          0      )
                  (     0          0          1      )

 cart.    s( 2) = (  0.5000000  0.8660254  0.0000000 )
                  (  0.8660254 -0.5000000  0.0000000 )
                  (  0.0000000  0.0000000  1.0000000 )


   Cartesian axes

     site n.     atom                  positions (alat units)
         1           Zn  tau(   1) = (   0.2500000   0.1443376   0.4283471  )
         2           Zn  tau(   2) = (  -0.0000000   0.2886751   0.0005421  )
         3           O   tau(   3) = (   0.2500000   0.1443376   0.7526599  )
         4           O   tau(   4) = (  -0.0000000   0.2886751   0.3248549  )
         5           Zn  tau(   5) = (   0.2500000   0.1443376   1.2839570  )
         6           Zn  tau(   6) = (  -0.0000000   0.2886751   0.8561520  )
         7           O   tau(   7) = (   0.2500000   0.1443376   1.6082698  )
         8           O   tau(   8) = (  -0.0000000   0.2886751   1.1804648  )
         9           Zn  tau(   9) = (   0.7500000   0.1443376   0.4283471  )
        10           Zn  tau(  10) = (   0.5000000   0.2886751   0.0005421  )
        11           O   tau(  11) = (   0.7500000   0.1443376   0.7526599  )
        12           O   tau(  12) = (   0.5000000   0.2886751   0.3248549  )
        13           Zn  tau(  13) = (   0.7500000   0.1443376   1.2839570  )
        14           Zn  tau(  14) = (   0.5000000   0.2886751   0.8561520  )
        15           O   tau(  15) = (   0.7500000   0.1443376   1.6082698  )
        16           O   tau(  16) = (   0.5000000   0.2886751   1.1804648  )

   Crystallographic axes

     site n.     atom                  positions (cryst. coord.)
         1           Zn  tau(   1) = (  0.3333333  0.3333333  0.2503168  )
         2           Zn  tau(   2) = (  0.1666667  0.6666667  0.0003168  )
         3           O   tau(   3) = (  0.3333333  0.3333333  0.4398382  )
         4           O   tau(   4) = (  0.1666667  0.6666667  0.1898382  )
         5           Zn  tau(   5) = (  0.3333333  0.3333333  0.7503168  )
         6           Zn  tau(   6) = (  0.1666667  0.6666667  0.5003168  )
         7           O   tau(   7) = (  0.3333333  0.3333333  0.9398382  )
         8           O   tau(   8) = (  0.1666667  0.6666667  0.6898382  )
         9           Zn  tau(   9) = (  0.8333333  0.3333333  0.2503168  )
        10           Zn  tau(  10) = (  0.6666667  0.6666667  0.0003168  )
        11           O   tau(  11) = (  0.8333333  0.3333333  0.4398382  )
        12           O   tau(  12) = (  0.6666667  0.6666667  0.1898382  )
        13           Zn  tau(  13) = (  0.8333333  0.3333333  0.7503168  )
        14           Zn  tau(  14) = (  0.6666667  0.6666667  0.5003168  )
        15           O   tau(  15) = (  0.8333333  0.3333333  0.9398382  )
        16           O   tau(  16) = (  0.6666667  0.6666667  0.6898382  )

     number of k points=    80
                       cart. coord. in units 2pi/alat
        k(    1) = (   0.0000000   0.0000000   0.0000000), wk =   0.0092593
        k(    2) = (   0.0000000   0.0000000   0.0973964), wk =   0.0185185
        k(    3) = (   0.0000000   0.0000000   0.1947928), wk =   0.0185185
        k(    4) = (   0.0000000   0.0000000  -0.2921892), wk =   0.0092593
        k(    5) = (   0.0000000   0.3849002   0.0000000), wk =   0.0370370
        k(    6) = (   0.0000000   0.3849002   0.0973964), wk =   0.0370370
        k(    7) = (   0.0000000   0.3849002   0.1947928), wk =   0.0370370
        k(    8) = (   0.0000000   0.3849002  -0.2921892), wk =   0.0370370
        k(    9) = (   0.0000000   0.7698004   0.0000000), wk =   0.0370370
        k(   10) = (   0.0000000   0.7698004   0.0973964), wk =   0.0370370
        k(   11) = (   0.0000000   0.7698004   0.1947928), wk =   0.0370370
        k(   12) = (   0.0000000   0.7698004  -0.2921892), wk =   0.0370370
        k(   13) = (   0.0000000  -1.1547005   0.0000000), wk =   0.0092593
        k(   14) = (   0.0000000  -1.1547005   0.0973964), wk =   0.0185185
        k(   15) = (   0.0000000  -1.1547005   0.1947928), wk =   0.0185185
        k(   16) = (   0.0000000  -1.1547005  -0.2921892), wk =   0.0092593
        k(   17) = (   0.1666667   0.0962250   0.0000000), wk =   0.0185185
        k(   18) = (   0.1666667   0.0962250   0.0973964), wk =   0.0185185
        k(   19) = (   0.1666667   0.0962250   0.1947928), wk =   0.0185185
        k(   20) = (   0.1666667   0.0962250  -0.2921892), wk =   0.0185185
        k(   21) = (   0.1666667   0.4811252   0.0000000), wk =   0.0370370
        k(   22) = (   0.1666667   0.4811252   0.0973964), wk =   0.0370370
        k(   23) = (   0.1666667   0.4811252   0.1947928), wk =   0.0370370
        k(   24) = (   0.1666667   0.4811252  -0.2921892), wk =   0.0370370
        k(   25) = (   0.1666667   0.8660254   0.0000000), wk =   0.0185185
        k(   26) = (   0.1666667   0.8660254   0.0973964), wk =   0.0370370
        k(   27) = (   0.1666667   0.8660254   0.1947928), wk =   0.0370370
        k(   28) = (   0.1666667   0.8660254  -0.2921892), wk =   0.0185185
        k(   29) = (   0.1666667  -1.0584755   0.0000000), wk =   0.0185185
        k(   30) = (   0.1666667  -1.0584755   0.0973964), wk =   0.0185185
        k(   31) = (   0.1666667  -1.0584755   0.1947928), wk =   0.0185185
        k(   32) = (   0.1666667  -1.0584755  -0.2921892), wk =   0.0185185
        k(   33) = (   0.1666667  -0.6735753   0.0000000), wk =   0.0370370
        k(   34) = (   0.1666667  -0.6735753   0.0973964), wk =   0.0370370
        k(   35) = (   0.1666667  -0.6735753   0.1947928), wk =   0.0370370
        k(   36) = (   0.1666667  -0.6735753  -0.2921892), wk =   0.0370370
        k(   37) = (   0.1666667  -0.2886751   0.0000000), wk =   0.0185185
        k(   38) = (   0.1666667  -0.2886751   0.0973964), wk =   0.0370370
        k(   39) = (   0.1666667  -0.2886751   0.1947928), wk =   0.0370370
        k(   40) = (   0.1666667  -0.2886751  -0.2921892), wk =   0.0185185
        k(   41) = (   0.3333333   0.1924501   0.0000000), wk =   0.0185185
        k(   42) = (   0.3333333   0.1924501   0.0973964), wk =   0.0185185
        k(   43) = (   0.3333333   0.1924501   0.1947928), wk =   0.0185185
        k(   44) = (   0.3333333   0.1924501  -0.2921892), wk =   0.0185185
        k(   45) = (   0.3333333   0.5773503   0.0000000), wk =   0.0185185
        k(   46) = (   0.3333333   0.5773503   0.0973964), wk =   0.0370370
        k(   47) = (   0.3333333   0.5773503   0.1947928), wk =   0.0370370
        k(   48) = (   0.3333333   0.5773503  -0.2921892), wk =   0.0185185
        k(   49) = (   0.3333333  -0.9622504   0.0000000), wk =   0.0185185
        k(   50) = (   0.3333333  -0.9622504   0.0973964), wk =   0.0185185
        k(   51) = (   0.3333333  -0.9622504   0.1947928), wk =   0.0185185
        k(   52) = (   0.3333333  -0.9622504  -0.2921892), wk =   0.0185185
        k(   53) = (   0.3333333  -0.5773503   0.0000000), wk =   0.0185185
        k(   54) = (   0.3333333  -0.5773503   0.0973964), wk =   0.0370370
        k(   55) = (   0.3333333  -0.5773503   0.1947928), wk =   0.0370370
        k(   56) = (   0.3333333  -0.5773503  -0.2921892), wk =   0.0185185
        k(   57) = (  -0.5000000  -0.2886751   0.0000000), wk =   0.0092593
        k(   58) = (  -0.5000000  -0.2886751   0.0973964), wk =   0.0185185
        k(   59) = (  -0.5000000  -0.2886751   0.1947928), wk =   0.0185185
        k(   60) = (  -0.5000000  -0.2886751  -0.2921892), wk =   0.0092593
        k(   61) = (  -0.5000000  -1.4433757   0.0000000), wk =   0.0092593
        k(   62) = (  -0.5000000  -1.4433757   0.0973964), wk =   0.0185185
        k(   63) = (  -0.5000000  -1.4433757   0.1947928), wk =   0.0185185
        k(   64) = (  -0.5000000  -1.4433757  -0.2921892), wk =   0.0092593
        k(   65) = (   0.3333333  -0.1924501  -0.0973964), wk =   0.0370370
        k(   66) = (   0.3333333  -0.1924501  -0.1947928), wk =   0.0370370
        k(   67) = (   0.6666667  -0.3849002  -0.0973964), wk =   0.0370370
        k(   68) = (   0.6666667  -0.3849002  -0.1947928), wk =   0.0370370
        k(   69) = (   0.1666667   0.0962250  -0.0973964), wk =   0.0185185
        k(   70) = (   0.1666667   0.0962250  -0.1947928), wk =   0.0185185
        k(   71) = (   0.5000000  -0.0962250  -0.0973964), wk =   0.0370370
        k(   72) = (   0.5000000  -0.0962250  -0.1947928), wk =   0.0370370
        k(   73) = (  -0.8333333   0.6735753  -0.0973964), wk =   0.0185185
        k(   74) = (  -0.8333333   0.6735753  -0.1947928), wk =   0.0185185
        k(   75) = (  -0.5000000   0.4811252  -0.0973964), wk =   0.0370370
        k(   76) = (  -0.5000000   0.4811252  -0.1947928), wk =   0.0370370
        k(   77) = (   0.3333333   0.1924501  -0.0973964), wk =   0.0185185
        k(   78) = (   0.3333333   0.1924501  -0.1947928), wk =   0.0185185
        k(   79) = (  -0.6666667   0.7698004  -0.0973964), wk =   0.0185185
        k(   80) = (  -0.6666667   0.7698004  -0.1947928), wk =   0.0185185

                       cryst. coord.
        k(    1) = (   0.0000000   0.0000000   0.0000000), wk =   0.0092593
        k(    2) = (   0.0000000   0.0000000   0.1666667), wk =   0.0185185
        k(    3) = (   0.0000000   0.0000000   0.3333333), wk =   0.0185185
        k(    4) = (   0.0000000   0.0000000  -0.5000000), wk =   0.0092593
        k(    5) = (   0.0000000   0.1666667   0.0000000), wk =   0.0370370
        k(    6) = (   0.0000000   0.1666667   0.1666667), wk =   0.0370370
        k(    7) = (   0.0000000   0.1666667   0.3333333), wk =   0.0370370
        k(    8) = (   0.0000000   0.1666667  -0.5000000), wk =   0.0370370
        k(    9) = (   0.0000000   0.3333333   0.0000000), wk =   0.0370370
        k(   10) = (   0.0000000   0.3333333   0.1666667), wk =   0.0370370
        k(   11) = (   0.0000000   0.3333333   0.3333333), wk =   0.0370370
        k(   12) = (   0.0000000   0.3333333  -0.5000000), wk =   0.0370370
        k(   13) = (   0.0000000  -0.5000000   0.0000000), wk =   0.0092593
        k(   14) = (   0.0000000  -0.5000000   0.1666667), wk =   0.0185185
        k(   15) = (   0.0000000  -0.5000000   0.3333333), wk =   0.0185185
        k(   16) = (   0.0000000  -0.5000000  -0.5000000), wk =   0.0092593
        k(   17) = (   0.1666667   0.0000000   0.0000000), wk =   0.0185185
        k(   18) = (   0.1666667   0.0000000   0.1666667), wk =   0.0185185
        k(   19) = (   0.1666667   0.0000000   0.3333333), wk =   0.0185185
        k(   20) = (   0.1666667   0.0000000  -0.5000000), wk =   0.0185185
        k(   21) = (   0.1666667   0.1666667   0.0000000), wk =   0.0370370
        k(   22) = (   0.1666667   0.1666667   0.1666667), wk =   0.0370370
        k(   23) = (   0.1666667   0.1666667   0.3333333), wk =   0.0370370
        k(   24) = (   0.1666667   0.1666667  -0.5000000), wk =   0.0370370
        k(   25) = (   0.1666667   0.3333333   0.0000000), wk =   0.0185185
        k(   26) = (   0.1666667   0.3333333   0.1666667), wk =   0.0370370
        k(   27) = (   0.1666667   0.3333333   0.3333333), wk =   0.0370370
        k(   28) = (   0.1666667   0.3333333  -0.5000000), wk =   0.0185185
        k(   29) = (   0.1666667  -0.5000000   0.0000000), wk =   0.0185185
        k(   30) = (   0.1666667  -0.5000000   0.1666667), wk =   0.0185185
        k(   31) = (   0.1666667  -0.5000000   0.3333333), wk =   0.0185185
        k(   32) = (   0.1666667  -0.5000000  -0.5000000), wk =   0.0185185
        k(   33) = (   0.1666667  -0.3333333   0.0000000), wk =   0.0370370
        k(   34) = (   0.1666667  -0.3333333   0.1666667), wk =   0.0370370
        k(   35) = (   0.1666667  -0.3333333   0.3333333), wk =   0.0370370
        k(   36) = (   0.1666667  -0.3333333  -0.5000000), wk =   0.0370370
        k(   37) = (   0.1666667  -0.1666667   0.0000000), wk =   0.0185185
        k(   38) = (   0.1666667  -0.1666667   0.1666667), wk =   0.0370370
        k(   39) = (   0.1666667  -0.1666667   0.3333333), wk =   0.0370370
        k(   40) = (   0.1666667  -0.1666667  -0.5000000), wk =   0.0185185
        k(   41) = (   0.3333333   0.0000000   0.0000000), wk =   0.0185185
        k(   42) = (   0.3333333   0.0000000   0.1666667), wk =   0.0185185
        k(   43) = (   0.3333333   0.0000000   0.3333333), wk =   0.0185185
        k(   44) = (   0.3333333   0.0000000  -0.5000000), wk =   0.0185185
        k(   45) = (   0.3333333   0.1666667   0.0000000), wk =   0.0185185
        k(   46) = (   0.3333333   0.1666667   0.1666667), wk =   0.0370370
        k(   47) = (   0.3333333   0.1666667   0.3333333), wk =   0.0370370
        k(   48) = (   0.3333333   0.1666667  -0.5000000), wk =   0.0185185
        k(   49) = (   0.3333333  -0.5000000   0.0000000), wk =   0.0185185
        k(   50) = (   0.3333333  -0.5000000   0.1666667), wk =   0.0185185
        k(   51) = (   0.3333333  -0.5000000   0.3333333), wk =   0.0185185
        k(   52) = (   0.3333333  -0.5000000  -0.5000000), wk =   0.0185185
        k(   53) = (   0.3333333  -0.3333333   0.0000000), wk =   0.0185185
        k(   54) = (   0.3333333  -0.3333333   0.1666667), wk =   0.0370370
        k(   55) = (   0.3333333  -0.3333333   0.3333333), wk =   0.0370370
        k(   56) = (   0.3333333  -0.3333333  -0.5000000), wk =   0.0185185
        k(   57) = (  -0.5000000  -0.0000000   0.0000000), wk =   0.0092593
        k(   58) = (  -0.5000000  -0.0000000   0.1666667), wk =   0.0185185
        k(   59) = (  -0.5000000  -0.0000000   0.3333333), wk =   0.0185185
        k(   60) = (  -0.5000000  -0.0000000  -0.5000000), wk =   0.0092593
        k(   61) = (  -0.5000000  -0.5000000   0.0000000), wk =   0.0092593
        k(   62) = (  -0.5000000  -0.5000000   0.1666667), wk =   0.0185185
        k(   63) = (  -0.5000000  -0.5000000   0.3333333), wk =   0.0185185
        k(   64) = (  -0.5000000  -0.5000000  -0.5000000), wk =   0.0092593
        k(   65) = (   0.3333333  -0.1666667  -0.1666667), wk =   0.0370370
        k(   66) = (   0.3333333  -0.1666667  -0.3333333), wk =   0.0370370
        k(   67) = (   0.6666667  -0.3333333  -0.1666667), wk =   0.0370370
        k(   68) = (   0.6666667  -0.3333333  -0.3333333), wk =   0.0370370
        k(   69) = (   0.1666667   0.0000000  -0.1666667), wk =   0.0185185
        k(   70) = (   0.1666667   0.0000000  -0.3333333), wk =   0.0185185
        k(   71) = (   0.5000000  -0.1666667  -0.1666667), wk =   0.0370370
        k(   72) = (   0.5000000  -0.1666667  -0.3333333), wk =   0.0370370
        k(   73) = (  -0.8333333   0.5000000  -0.1666667), wk =   0.0185185
        k(   74) = (  -0.8333333   0.5000000  -0.3333333), wk =   0.0185185
        k(   75) = (  -0.5000000   0.3333333  -0.1666667), wk =   0.0370370
        k(   76) = (  -0.5000000   0.3333333  -0.3333333), wk =   0.0370370
        k(   77) = (   0.3333333   0.0000000  -0.1666667), wk =   0.0185185
        k(   78) = (   0.3333333   0.0000000  -0.3333333), wk =   0.0185185
        k(   79) = (  -0.6666667   0.5000000  -0.1666667), wk =   0.0185185
        k(   80) = (  -0.6666667   0.5000000  -0.3333333), wk =   0.0185185

     Dense  grid:   156819 G-vectors     FFT dimensions: (  75,  40, 128)

     Smooth grid:    55431 G-vectors     FFT dimensions: (  54,  27,  90)

     Dynamical RAM for                 wfc:       1.90 MB

     Dynamical RAM for     wfc (w. buffer):      20.94 MB

     Dynamical RAM for           str. fact:       1.20 MB

     Dynamical RAM for           local pot:       0.00 MB

     Dynamical RAM for          nlocal pot:       5.50 MB

     Dynamical RAM for                qrad:       3.21 MB

     Dynamical RAM for          rho,v,vnew:       3.99 MB

     Dynamical RAM for               rhoin:       1.33 MB

     Dynamical RAM for            rho*nmix:       9.57 MB

     Dynamical RAM for           G-vectors:       2.35 MB

     Dynamical RAM for          h,s,v(r/c):       0.24 MB

     Dynamical RAM for          <psi|beta>:       0.23 MB

     Dynamical RAM for                 psi:       3.81 MB

     Dynamical RAM for                hpsi:       3.81 MB

     Dynamical RAM for                spsi:       3.81 MB

     Dynamical RAM for      wfcinit/wfcrot:       5.75 MB

     Dynamical RAM for           addusdens:      15.03 MB

     Dynamical RAM for          addusforce:      15.88 MB

     Estimated static dynamical RAM per process >      43.98 MB

     Estimated max dynamical RAM per process >      69.43 MB

     Estimated total dynamical RAM >       1.91 GB

     Check: negative core charge=   -0.000002

     Initial potential from superposition of free atoms

     starting charge     143.9702, renormalised to     144.0000
     Starting wfcs are  104 randomized atomic wfcs

     total cpu time spent up to now is       11.5 secs

     per-process dynamical memory:    63.0 Mb

     Self-consistent Calculation

     iteration #  1     ecut=    50.00 Ry     beta= 0.30
     Davidson diagonalization with overlap

---- Real-time Memory Report at c_bands before calling an iterative solver
            92 MiB given to the printing process from OS
            61 MiB allocation reported by mallinfo(arena+hblkhd)
        103667 MiB available memory on the node where the printing process lives
------------------
     ethr =  1.00E-02,  avg # of iterations =  2.0

     total cpu time spent up to now is       24.7 secs

     total energy              =   -1445.82261549 Ry
     estimated scf accuracy    <       2.69470307 Ry

     iteration #  2     ecut=    50.00 Ry     beta= 0.30
     Davidson diagonalization with overlap

---- Real-time Memory Report at c_bands before calling an iterative solver
           105 MiB given to the printing process from OS
            74 MiB allocation reported by mallinfo(arena+hblkhd)
        103117 MiB available memory on the node where the printing process lives
------------------
     ethr =  1.87E-03,  avg # of iterations =  2.0

     total cpu time spent up to now is       40.6 secs

     total energy              =   -1446.09024591 Ry
     estimated scf accuracy    <       0.45012587 Ry

     iteration #  3     ecut=    50.00 Ry     beta= 0.30
     Davidson diagonalization with overlap

---- Real-time Memory Report at c_bands before calling an iterative solver
           106 MiB given to the printing process from OS
            74 MiB allocation reported by mallinfo(arena+hblkhd)
        103145 MiB available memory on the node where the printing process lives
------------------
     ethr =  3.13E-04,  avg # of iterations =  6.6

     total cpu time spent up to now is       68.3 secs

     total energy              =   -1446.29078730 Ry
     estimated scf accuracy    <       0.30236554 Ry

     iteration #  4     ecut=    50.00 Ry     beta= 0.30
     Davidson diagonalization with overlap

---- Real-time Memory Report at c_bands before calling an iterative solver
           107 MiB given to the printing process from OS
            75 MiB allocation reported by mallinfo(arena+hblkhd)
        103083 MiB available memory on the node where the printing process lives
------------------
     ethr =  2.10E-04,  avg # of iterations =  5.3

     total cpu time spent up to now is       90.7 secs

     total energy              =   -1446.46933447 Ry
     estimated scf accuracy    <       0.08832309 Ry

     iteration #  5     ecut=    50.00 Ry     beta= 0.30
     Davidson diagonalization with overlap

---- Real-time Memory Report at c_bands before calling an iterative solver
           107 MiB given to the printing process from OS
            75 MiB allocation reported by mallinfo(arena+hblkhd)
        103091 MiB available memory on the node where the printing process lives
------------------
     ethr =  6.13E-05,  avg # of iterations =  5.5

     total cpu time spent up to now is      113.5 secs

     total energy              =   -1446.27877699 Ry
     estimated scf accuracy    <       0.37453815 Ry

     iteration #  6     ecut=    50.00 Ry     beta= 0.30
     Davidson diagonalization with overlap

---- Real-time Memory Report at c_bands before calling an iterative solver
           108 MiB given to the printing process from OS
            76 MiB allocation reported by mallinfo(arena+hblkhd)
        103085 MiB available memory on the node where the printing process lives
------------------
     ethr =  6.13E-05,  avg # of iterations =  8.8

     total cpu time spent up to now is      146.5 secs

     total energy              =   -1446.38898476 Ry
     estimated scf accuracy    <       0.06785748 Ry

     iteration #  7     ecut=    50.00 Ry     beta= 0.30
     Davidson diagonalization with overlap

---- Real-time Memory Report at c_bands before calling an iterative solver
           108 MiB given to the printing process from OS
            76 MiB allocation reported by mallinfo(arena+hblkhd)
        103084 MiB available memory on the node where the printing process lives
------------------
     ethr =  4.71E-05,  avg # of iterations =  2.0

     total cpu time spent up to now is      159.9 secs

     total energy              =   -1446.40653547 Ry
     estimated scf accuracy    <       0.02020010 Ry

     iteration #  8     ecut=    50.00 Ry     beta= 0.30
     Davidson diagonalization with overlap

---- Real-time Memory Report at c_bands before calling an iterative solver
           109 MiB given to the printing process from OS
            77 MiB allocation reported by mallinfo(arena+hblkhd)
        103084 MiB available memory on the node where the printing process lives
------------------
     ethr =  1.40E-05,  avg # of iterations =  2.0

     total cpu time spent up to now is      173.9 secs

     total energy              =   -1446.39090995 Ry
     estimated scf accuracy    <       0.04383094 Ry

     iteration #  9     ecut=    50.00 Ry     beta= 0.30
     Davidson diagonalization with overlap

---- Real-time Memory Report at c_bands before calling an iterative solver
           109 MiB given to the printing process from OS
            77 MiB allocation reported by mallinfo(arena+hblkhd)
        103067 MiB available memory on the node where the printing process lives
------------------
     ethr =  1.40E-05,  avg # of iterations =  3.6

     total cpu time spent up to now is      191.0 secs

     total energy              =   -1446.38539870 Ry
     estimated scf accuracy    <       0.01046391 Ry

     iteration # 10     ecut=    50.00 Ry     beta= 0.30
     Davidson diagonalization with overlap

---- Real-time Memory Report at c_bands before calling an iterative solver
           110 MiB given to the printing process from OS
            77 MiB allocation reported by mallinfo(arena+hblkhd)
        103076 MiB available memory on the node where the printing process lives
------------------
     ethr =  7.27E-06,  avg # of iterations =  9.0

     total cpu time spent up to now is      226.6 secs

     total energy              =   -1446.41150004 Ry
     estimated scf accuracy    <       0.07957189 Ry

     iteration # 11     ecut=    50.00 Ry     beta= 0.30
     Davidson diagonalization with overlap

---- Real-time Memory Report at c_bands before calling an iterative solver
           110 MiB given to the printing process from OS
            77 MiB allocation reported by mallinfo(arena+hblkhd)
        103076 MiB available memory on the node where the printing process lives
------------------
     ethr =  7.27E-06,  avg # of iterations =  1.1

     total cpu time spent up to now is      238.8 secs

     total energy              =   -1446.40388729 Ry
     estimated scf accuracy    <       0.06604996 Ry

     iteration # 12     ecut=    50.00 Ry     beta= 0.30
     Davidson diagonalization with overlap

---- Real-time Memory Report at c_bands before calling an iterative solver
           110 MiB given to the printing process from OS
            77 MiB allocation reported by mallinfo(arena+hblkhd)
        103076 MiB available memory on the node where the printing process lives
------------------
     ethr =  7.27E-06,  avg # of iterations =  2.0

     total cpu time spent up to now is      252.6 secs

     total energy              =   -1446.40574892 Ry
     estimated scf accuracy    <       0.04416297 Ry

     iteration # 13     ecut=    50.00 Ry     beta= 0.30
     Davidson diagonalization with overlap

---- Real-time Memory Report at c_bands before calling an iterative solver
           110 MiB given to the printing process from OS
            77 MiB allocation reported by mallinfo(arena+hblkhd)
        103076 MiB available memory on the node where the printing process lives
------------------
     ethr =  7.27E-06,  avg # of iterations =  1.0

     total cpu time spent up to now is      264.5 secs

     total energy              =   -1446.40634418 Ry
     estimated scf accuracy    <       0.04289136 Ry

     iteration # 14     ecut=    50.00 Ry     beta= 0.30
     Davidson diagonalization with overlap

---- Real-time Memory Report at c_bands before calling an iterative solver
           110 MiB given to the printing process from OS
            77 MiB allocation reported by mallinfo(arena+hblkhd)
        103076 MiB available memory on the node where the printing process lives
------------------
     ethr =  7.27E-06,  avg # of iterations =  1.0

     total cpu time spent up to now is      276.4 secs

     total energy              =   -1446.38944069 Ry
     estimated scf accuracy    <       0.04198542 Ry

     iteration # 15     ecut=    50.00 Ry     beta= 0.30
     Davidson diagonalization with overlap

---- Real-time Memory Report at c_bands before calling an iterative solver
           110 MiB given to the printing process from OS
            77 MiB allocation reported by mallinfo(arena+hblkhd)
        103076 MiB available memory on the node where the printing process lives
------------------
     ethr =  7.27E-06,  avg # of iterations =  6.3

     total cpu time spent up to now is      301.9 secs

     total energy              =   -1446.39607335 Ry
     estimated scf accuracy    <       0.00103893 Ry

     iteration # 16     ecut=    50.00 Ry     beta= 0.30
     Davidson diagonalization with overlap

---- Real-time Memory Report at c_bands before calling an iterative solver
           110 MiB given to the printing process from OS
            77 MiB allocation reported by mallinfo(arena+hblkhd)
        103076 MiB available memory on the node where the printing process lives
------------------
     ethr =  7.21E-07,  avg # of iterations =  5.3

     total cpu time spent up to now is      320.6 secs

     total energy              =   -1446.39704528 Ry
     estimated scf accuracy    <       0.00094615 Ry

     iteration # 17     ecut=    50.00 Ry     beta= 0.30
     Davidson diagonalization with overlap

---- Real-time Memory Report at c_bands before calling an iterative solver
           110 MiB given to the printing process from OS
            77 MiB allocation reported by mallinfo(arena+hblkhd)
        103076 MiB available memory on the node where the printing process lives
------------------
     ethr =  6.57E-07,  avg # of iterations =  3.2

     total cpu time spent up to now is      337.2 secs

     total energy              =   -1446.39718848 Ry
     estimated scf accuracy    <       0.00273367 Ry

     iteration # 18     ecut=    50.00 Ry     beta= 0.30
     Davidson diagonalization with overlap

---- Real-time Memory Report at c_bands before calling an iterative solver
           110 MiB given to the printing process from OS
            77 MiB allocation reported by mallinfo(arena+hblkhd)
        103076 MiB available memory on the node where the printing process lives
------------------
     ethr =  6.57E-07,  avg # of iterations =  2.0

     total cpu time spent up to now is      350.9 secs

     total energy              =   -1446.39683821 Ry
     estimated scf accuracy    <       0.00330144 Ry

     iteration # 19     ecut=    50.00 Ry     beta= 0.30
     Davidson diagonalization with overlap

---- Real-time Memory Report at c_bands before calling an iterative solver
           110 MiB given to the printing process from OS
            77 MiB allocation reported by mallinfo(arena+hblkhd)
        103076 MiB available memory on the node where the printing process lives
------------------
     ethr =  6.57E-07,  avg # of iterations =  1.0

     total cpu time spent up to now is      363.0 secs

     total energy              =   -1446.39641280 Ry
     estimated scf accuracy    <       0.00266055 Ry

     iteration # 20     ecut=    50.00 Ry     beta= 0.30
     Davidson diagonalization with overlap

---- Real-time Memory Report at c_bands before calling an iterative solver
           110 MiB given to the printing process from OS
            77 MiB allocation reported by mallinfo(arena+hblkhd)
        103076 MiB available memory on the node where the printing process lives
------------------
     ethr =  6.57E-07,  avg # of iterations =  1.1

     total cpu time spent up to now is      375.4 secs

     total energy              =   -1446.39683038 Ry
     estimated scf accuracy    <       0.00178952 Ry

     iteration # 21     ecut=    50.00 Ry     beta= 0.30
     Davidson diagonalization with overlap

---- Real-time Memory Report at c_bands before calling an iterative solver
           110 MiB given to the printing process from OS
            77 MiB allocation reported by mallinfo(arena+hblkhd)
        103076 MiB available memory on the node where the printing process lives
------------------
     ethr =  6.57E-07,  avg # of iterations =  1.0

     total cpu time spent up to now is      387.3 secs

     total energy              =   -1446.39506155 Ry
     estimated scf accuracy    <       0.00249741 Ry

     iteration # 22     ecut=    50.00 Ry     beta= 0.30
     Davidson diagonalization with overlap

---- Real-time Memory Report at c_bands before calling an iterative solver
           110 MiB given to the printing process from OS
            77 MiB allocation reported by mallinfo(arena+hblkhd)
        103076 MiB available memory on the node where the printing process lives
------------------
     ethr =  6.57E-07,  avg # of iterations =  8.7

     total cpu time spent up to now is      420.4 secs

     total energy              =   -1446.39629364 Ry
     estimated scf accuracy    <       0.00168168 Ry

     iteration # 23     ecut=    50.00 Ry     beta= 0.30
     Davidson diagonalization with overlap

---- Real-time Memory Report at c_bands before calling an iterative solver
           110 MiB given to the printing process from OS
            77 MiB allocation reported by mallinfo(arena+hblkhd)
        103076 MiB available memory on the node where the printing process lives
------------------
     ethr =  6.57E-07,  avg # of iterations =  1.1

     total cpu time spent up to now is      432.5 secs

     total energy              =   -1446.39579916 Ry
     estimated scf accuracy    <       0.00107699 Ry

     iteration # 24     ecut=    50.00 Ry     beta= 0.30
     Davidson diagonalization with overlap

---- Real-time Memory Report at c_bands before calling an iterative solver
           110 MiB given to the printing process from OS
            77 MiB allocation reported by mallinfo(arena+hblkhd)
        103076 MiB available memory on the node where the printing process lives
------------------
     ethr =  6.57E-07,  avg # of iterations =  4.5

     total cpu time spent up to now is      452.5 secs

     total energy              =   -1446.39608932 Ry
     estimated scf accuracy    <       0.00000074 Ry

     iteration # 25     ecut=    50.00 Ry     beta= 0.30
     Davidson diagonalization with overlap

---- Real-time Memory Report at c_bands before calling an iterative solver
           110 MiB given to the printing process from OS
            77 MiB allocation reported by mallinfo(arena+hblkhd)
        103076 MiB available memory on the node where the printing process lives
------------------
     c_bands:  1 eigenvalues not converged
     c_bands:  1 eigenvalues not converged
     c_bands:  2 eigenvalues not converged
     ethr =  5.10E-10,  avg # of iterations = 14.7

     total cpu time spent up to now is      511.5 secs

     total energy              =   -1446.39612782 Ry
     estimated scf accuracy    <       0.00002823 Ry

     iteration # 26     ecut=    50.00 Ry     beta= 0.30
     Davidson diagonalization with overlap

---- Real-time Memory Report at c_bands before calling an iterative solver
           110 MiB given to the printing process from OS
            77 MiB allocation reported by mallinfo(arena+hblkhd)
        103076 MiB available memory on the node where the printing process lives
------------------
     ethr =  5.10E-10,  avg # of iterations =  8.9

     total cpu time spent up to now is      546.2 secs

     total energy              =   -1446.39612832 Ry
     estimated scf accuracy    <       0.00000623 Ry

     iteration # 27     ecut=    50.00 Ry     beta= 0.30
     Davidson diagonalization with overlap

---- Real-time Memory Report at c_bands before calling an iterative solver
           110 MiB given to the printing process from OS
            77 MiB allocation reported by mallinfo(arena+hblkhd)
        103076 MiB available memory on the node where the printing process lives
------------------
     ethr =  5.10E-10,  avg # of iterations =  2.7

     total cpu time spent up to now is      561.1 secs

     total energy              =   -1446.39612590 Ry
     estimated scf accuracy    <       0.00000407 Ry

     iteration # 28     ecut=    50.00 Ry     beta= 0.30
     Davidson diagonalization with overlap

---- Real-time Memory Report at c_bands before calling an iterative solver
           110 MiB given to the printing process from OS
            77 MiB allocation reported by mallinfo(arena+hblkhd)
        105332 MiB available memory on the node where the printing process lives
------------------
     ethr =  5.10E-10,  avg # of iterations =  9.8

     total cpu time spent up to now is      597.9 secs

     total energy              =   -1446.39612810 Ry
     estimated scf accuracy    <       0.00000195 Ry

     iteration # 29     ecut=    50.00 Ry     beta= 0.30
     Davidson diagonalization with overlap

---- Real-time Memory Report at c_bands before calling an iterative solver
           110 MiB given to the printing process from OS
            77 MiB allocation reported by mallinfo(arena+hblkhd)
        103120 MiB available memory on the node where the printing process lives
------------------
     ethr =  5.10E-10,  avg # of iterations =  1.1

     total cpu time spent up to now is      610.2 secs

     total energy              =   -1446.39612751 Ry
     estimated scf accuracy    <       0.00000144 Ry

     iteration # 30     ecut=    50.00 Ry     beta= 0.30
     Davidson diagonalization with overlap

---- Real-time Memory Report at c_bands before calling an iterative solver
           110 MiB given to the printing process from OS
            77 MiB allocation reported by mallinfo(arena+hblkhd)
        103112 MiB available memory on the node where the printing process lives
------------------
     ethr =  5.10E-10,  avg # of iterations =  4.8

     total cpu time spent up to now is      632.1 secs

     total energy              =   -1446.39612778 Ry
     estimated scf accuracy    <       0.00000003 Ry

     iteration # 31     ecut=    50.00 Ry     beta= 0.30
     Davidson diagonalization with overlap

---- Real-time Memory Report at c_bands before calling an iterative solver
           110 MiB given to the printing process from OS
            77 MiB allocation reported by mallinfo(arena+hblkhd)
        103112 MiB available memory on the node where the printing process lives
------------------
     ethr =  2.31E-11,  avg # of iterations =  6.4

     total cpu time spent up to now is      661.8 secs

     End of self-consistent calculation

          k = 0.0000 0.0000 0.0000 (  6959 PWs)   bands (ev):

   -10.0951  -9.7216  -9.7215  -9.3188  -9.2131  -9.0891  -9.0891  -8.9796
     2.0222   2.0222   2.2249   2.2678   2.2903   2.3152   2.3152   2.5883
     2.5885   2.6631   2.6667   2.6667   2.6669   2.6669   2.7796   2.7797
     2.9312   3.1729   3.1729   3.3003   3.3003   3.3638   3.4112   3.4843
     4.1718   4.1718   4.1802   4.2960   4.2960   4.2960   4.2960   4.3840
     4.3904   4.3904   4.4090   4.4090   4.4621   4.4778   4.4778   4.5632
     4.7647   4.8599   4.8599   4.9011   4.9533   5.8116   6.4115   6.4115
     6.5346   7.1502   7.1502   7.2596   7.2596   7.3798   7.9127   8.2089
     8.2092   8.5920   8.5920   8.5923   8.5923   8.6640   8.9736   8.9740

     occupation numbers 
     1.0000   1.0000   1.0000   1.0000   1.0000   1.0000   1.0000   1.0000
     1.0000   1.0000   1.0000   1.0000   1.0000   1.0000   1.0000   1.0000
     1.0000   1.0000   1.0000   1.0000   1.0000   1.0000   1.0000   1.0000
     1.0000   1.0000   1.0000   1.0000   1.0000   1.0000   1.0000   1.0000
     1.0000   1.0000   1.0000   1.0000   1.0000   1.0000   1.0000   1.0000
     1.0000   1.0000   1.0000   1.0000   1.0000   1.0000   1.0000   1.0000
     1.0000   1.0000   1.0000   1.0000   1.0000   1.0000   1.0000   1.0000
     1.0000   1.0000   1.0000   1.0000   1.0000   1.0000   1.0000   1.0000
     1.0000   1.0000   1.0000   1.0000   1.0000   1.0000   1.0000   1.0000

          k = 0.0000 0.0000 0.0974 (  6957 PWs)   bands (ev):

   -10.0828  -9.8209  -9.6203  -9.3331  -9.2087  -9.1199  -9.0593  -8.9831
     2.0354   2.0386   2.2113   2.2605   2.2644   2.2703   2.3837   2.5905
     2.5907   2.6434   2.6436   2.6481   2.6923   2.6925   2.7750   2.7752
     2.9388   3.1051   3.2454   3.2926   3.3160   3.3531   3.4047   3.4720
     4.1765   4.1765   4.2008   4.2665   4.2665   4.3236   4.3236   4.3847
     4.3877   4.3877   4.4012   4.4184   4.4319   4.4590   4.5132   4.5626
     4.8270   4.8620   4.8640   4.8980   4.9423   5.8776   5.9991   6.5617
     6.8371   6.8998   7.0823   7.3314   7.3950   7.4326   7.8909   8.2220
     8.2223   8.4818   8.4929   8.4932   8.6910   8.6913   8.9607   8.9610

     occupation numbers 
     1.0000   1.0000   1.0000   1.0000   1.0000   1.0000   1.0000   1.0000
     1.0000   1.0000   1.0000   1.0000   1.0000   1.0000   1.0000   1.0000
     1.0000   1.0000   1.0000   1.0000   1.0000   1.0000   1.0000   1.0000
     1.0000   1.0000   1.0000   1.0000   1.0000   1.0000   1.0000   1.0000
     1.0000   1.0000   1.0000   1.0000   1.0000   1.0000   1.0000   1.0000
     1.0000   1.0000   1.0000   1.0000   1.0000   1.0000   1.0000   1.0000
     1.0000   1.0000   1.0000   1.0000   1.0000   1.0000   1.0000   1.0000
     1.0000   1.0000   1.0000   1.0000   1.0000   1.0000   1.0000   1.0000
     1.0000   1.0000   1.0000   1.0000   1.0000   1.0000   1.0000   1.0000

          k = 0.0000 0.0000 0.1948 (  6947 PWs)   bands (ev):

   -10.0466  -9.9117  -9.5241  -9.3747  -9.1958  -9.1495  -9.0324  -8.9933
     2.0727   2.0834   2.1741   2.2172   2.2372   2.2442   2.4620   2.5970
     2.5972   2.6044   2.6236   2.6239   2.7185   2.7187   2.7622   2.7624
     2.9609   3.0456   3.2949   3.3174   3.3297   3.3379   3.3868   3.4370
     4.1902   4.1902   4.2376   4.2376   4.2518   4.3474   4.3474   4.3767
     4.3793   4.3794   4.3869   4.3949   4.4289   4.4512   4.5378   4.5599
     4.8692   4.8752   4.8901   4.9181   5.0039   5.6144   6.0581   6.6094
     6.6397   6.9118   7.2674   7.4293   7.4296   7.5908   7.8271   8.1119
     8.2602   8.2606   8.4005   8.4008   8.7831   8.7835   8.9227   8.9230

     occupation numbers 
     1.0000   1.0000   1.0000   1.0000   1.0000   1.0000   1.0000   1.0000
     1.0000   1.0000   1.0000   1.0000   1.0000   1.0000   1.0000   1.0000
     1.0000   1.0000   1.0000   1.0000   1.0000   1.0000   1.0000   1.0000
     1.0000   1.0000   1.0000   1.0000   1.0000   1.0000   1.0000   1.0000
     1.0000   1.0000   1.0000   1.0000   1.0000   1.0000   1.0000   1.0000
     1.0000   1.0000   1.0000   1.0000   1.0000   1.0000   1.0000   1.0000
     1.0000   1.0000   1.0000   1.0000   1.0000   1.0000   1.0000   1.0000
     1.0000   1.0000   1.0000   1.0000   1.0000   1.0000   1.0000   1.0000
     1.0000   1.0000   1.0000   1.0000   1.0000   1.0000   1.0000   1.0000

          k = 0.0000 0.0000-0.2922 (  6952 PWs)   bands (ev):

    -9.9885  -9.9885  -9.4401  -9.4401  -9.1755  -9.1755  -9.0101  -9.0100
     2.1234   2.1234   2.1482   2.1482   2.2325   2.2325   2.5391   2.5391
     2.6081   2.6081   2.6083   2.6083   2.7426   2.7426   2.7428   2.7428
     2.9968   2.9968   3.3077   3.3077   3.3626   3.3626   3.3834   3.3834
     4.2113   4.2113   4.2113   4.2113   4.3146   4.3146   4.3661   4.3661
     4.3661   4.3661   4.3902   4.3902   4.4403   4.4403   4.5524   4.5525
     4.8795   4.8795   4.8936   4.8936   5.2750   5.2750   6.3156   6.3156
     6.7602   6.7602   7.4529   7.4529   7.6955   7.6955   7.7250   7.7250
     8.3211   8.3211   8.3215   8.3215   8.8621   8.8621   8.8625   8.8625

     occupation numbers 
     1.0000   1.0000   1.0000   1.0000   1.0000   1.0000   1.0000   1.0000
     1.0000   1.0000   1.0000   1.0000   1.0000   1.0000   1.0000   1.0000
     1.0000   1.0000   1.0000   1.0000   1.0000   1.0000   1.0000   1.0000
     1.0000   1.0000   1.0000   1.0000   1.0000   1.0000   1.0000   1.0000
     1.0000   1.0000   1.0000   1.0000   1.0000   1.0000   1.0000   1.0000
     1.0000   1.0000   1.0000   1.0000   1.0000   1.0000   1.0000   1.0000
     1.0000   1.0000   1.0000   1.0000   1.0000   1.0000   1.0000   1.0000
     1.0000   1.0000   1.0000   1.0000   1.0000   1.0000   1.0000   1.0000
     1.0000   1.0000   1.0000   1.0000   1.0000   1.0000   1.0000   1.0000

          k = 0.0000 0.3849 0.0000 (  6950 PWs)   bands (ev):

    -9.9050  -9.5709  -9.5709  -9.2245  -9.2183  -9.0930  -9.0930  -8.9752
     2.2134   2.2134   2.2171   2.2171   2.3387   2.3427   2.5627   2.5953
     2.6939   2.6970   2.7770   2.7770   2.7926   2.7926   2.8163   2.9056
     2.9264   2.9912   2.9912   3.1939   3.3167   3.3167   3.4643   3.4904
     4.0685   4.0833   4.1664   4.2049   4.2850   4.2850   4.2918   4.2918
     4.3080   4.3080   4.4001   4.4832   4.4941   4.5325   4.5325   4.6582
     4.7120   4.8128   5.1697   5.1697   5.3865   5.7519   6.1424   6.4329
     6.4329   6.6199   6.6199   7.1728   7.2693   7.2693   7.3331   7.6092
     7.7706   7.7706   7.8185   7.8323   8.2801   8.2801   8.4885   8.7331

     occupation numbers 
     1.0000   1.0000   1.0000   1.0000   1.0000   1.0000   1.0000   1.0000
     1.0000   1.0000   1.0000   1.0000   1.0000   1.0000   1.0000   1.0000
     1.0000   1.0000   1.0000   1.0000   1.0000   1.0000   1.0000   1.0000
     1.0000   1.0000   1.0000   1.0000   1.0000   1.0000   1.0000   1.0000
     1.0000   1.0000   1.0000   1.0000   1.0000   1.0000   1.0000   1.0000
     1.0000   1.0000   1.0000   1.0000   1.0000   1.0000   1.0000   1.0000
     1.0000   1.0000   1.0000   1.0000   1.0000   1.0000   1.0000   1.0000
     1.0000   1.0000   1.0000   1.0000   1.0000   1.0000   1.0000   1.0000
     1.0000   1.0000   1.0000   1.0000   1.0000   1.0000   1.0000   1.0000

          k = 0.0000 0.3849 0.0974 (  6934 PWs)   bands (ev):

    -9.8939  -9.6591  -9.4815  -9.2306  -9.2198  -9.1258  -9.0611  -8.9789
     2.2079   2.2096   2.2493   2.2504   2.3292   2.3332   2.5416   2.5420
     2.6968   2.7244   2.7642   2.7655   2.7914   2.8161   2.8236   2.9030
     2.9211   2.9507   3.0357   3.1835   3.3187   3.3292   3.4502   3.4693
     4.0733   4.0916   4.1711   4.2376   4.2384   4.2611   4.2661   4.3216
     4.3296   4.3317   4.3971   4.4730   4.4821   4.5025   4.5770   4.6810
     4.7959   4.7995   5.0685   5.2626   5.4069   5.7746   6.0576   6.1755
     6.4326   6.7349   6.7796   7.1208   7.1857   7.3332   7.4223   7.5982
     7.6246   7.7858   7.8344   7.9355   8.1617   8.3981   8.4624   8.7178

     occupation numbers 
     1.0000   1.0000   1.0000   1.0000   1.0000   1.0000   1.0000   1.0000
     1.0000   1.0000   1.0000   1.0000   1.0000   1.0000   1.0000   1.0000
     1.0000   1.0000   1.0000   1.0000   1.0000   1.0000   1.0000   1.0000
     1.0000   1.0000   1.0000   1.0000   1.0000   1.0000   1.0000   1.0000
     1.0000   1.0000   1.0000   1.0000   1.0000   1.0000   1.0000   1.0000
     1.0000   1.0000   1.0000   1.0000   1.0000   1.0000   1.0000   1.0000
     1.0000   1.0000   1.0000   1.0000   1.0000   1.0000   1.0000   1.0000
     1.0000   1.0000   1.0000   1.0000   1.0000   1.0000   1.0000   1.0000
     1.0000   1.0000   1.0000   1.0000   1.0000   1.0000   1.0000   1.0000

          k = 0.0000 0.3849 0.1948 (  6952 PWs)   bands (ev):

    -9.8612  -9.7402  -9.3970  -9.2666  -9.2061  -9.1572  -9.0322  -8.9901
     2.2279   2.2288   2.3012   2.3024   2.3055   2.3167   2.4526   2.4827
     2.7054   2.7394   2.7480   2.7583   2.8046   2.8160   2.8545   2.8990
     2.9060   2.9199   3.0790   3.1559   3.3354   3.3556   3.4088   3.4322
     4.1014   4.1150   4.1842   4.1919   4.2107   4.2312   4.2909   4.3374
     4.3481   4.3700   4.3868   4.4396   4.4801   4.4865   4.6314   4.7293
     4.7719   4.9619   5.0168   5.3437   5.4280   5.6777   5.8641   6.2291
     6.2765   6.6389   7.0694   7.1387   7.2183   7.3128   7.5179   7.5179
     7.5772   7.6617   7.8810   8.0507   8.1048   8.3846   8.5075   8.6728

     occupation numbers 
     1.0000   1.0000   1.0000   1.0000   1.0000   1.0000   1.0000   1.0000
     1.0000   1.0000   1.0000   1.0000   1.0000   1.0000   1.0000   1.0000
     1.0000   1.0000   1.0000   1.0000   1.0000   1.0000   1.0000   1.0000
     1.0000   1.0000   1.0000   1.0000   1.0000   1.0000   1.0000   1.0000
     1.0000   1.0000   1.0000   1.0000   1.0000   1.0000   1.0000   1.0000
     1.0000   1.0000   1.0000   1.0000   1.0000   1.0000   1.0000   1.0000
     1.0000   1.0000   1.0000   1.0000   1.0000   1.0000   1.0000   1.0000
     1.0000   1.0000   1.0000   1.0000   1.0000   1.0000   1.0000   1.0000
     1.0000   1.0000   1.0000   1.0000   1.0000   1.0000   1.0000   1.0000

          k = 0.0000 0.3849-0.2922 (  6938 PWs)   bands (ev):

    -9.8090  -9.8090  -9.3236  -9.3235  -9.1847  -9.1847  -9.0081  -9.0081
     2.2650   2.2650   2.2653   2.2653   2.3693   2.3693   2.4006   2.4006
     2.7197   2.7197   2.7549   2.7549   2.8135   2.8135   2.8830   2.8830
     2.9027   2.9027   3.1193   3.1193   3.3659   3.3659   3.3925   3.3925
     4.1496   4.1496   4.1517   4.1517   4.2050   4.2050   4.3251   4.3251
     4.3703   4.3704   4.4063   4.4063   4.4804   4.4804   4.6885   4.6885
     4.8549   4.8549   5.3207   5.3207   5.4043   5.4043   6.0291   6.0291
     6.4418   6.4418   7.2264   7.2264   7.2415   7.2415   7.5215   7.5215
     7.5589   7.5589   7.9549   7.9549   8.2607   8.2607   8.6011   8.6011

     occupation numbers 
     1.0000   1.0000   1.0000   1.0000   1.0000   1.0000   1.0000   1.0000
     1.0000   1.0000   1.0000   1.0000   1.0000   1.0000   1.0000   1.0000
     1.0000   1.0000   1.0000   1.0000   1.0000   1.0000   1.0000   1.0000
     1.0000   1.0000   1.0000   1.0000   1.0000   1.0000   1.0000   1.0000
     1.0000   1.0000   1.0000   1.0000   1.0000   1.0000   1.0000   1.0000
     1.0000   1.0000   1.0000   1.0000   1.0000   1.0000   1.0000   1.0000
     1.0000   1.0000   1.0000   1.0000   1.0000   1.0000   1.0000   1.0000
     1.0000   1.0000   1.0000   1.0000   1.0000   1.0000   1.0000   1.0000
     1.0000   1.0000   1.0000   1.0000   1.0000   1.0000   1.0000   1.0000

          k = 0.0000 0.7698 0.0000 (  6930 PWs)   bands (ev):

    -9.4788  -9.2551  -9.2550  -9.2245  -9.0930  -9.0930  -9.0347  -8.9752
     2.0561   2.0561   2.1054   2.2135   2.2135   2.3388   2.5230   2.5627
     2.8707   2.9056   2.9911   2.9911   3.0495   3.0495   3.0879   3.0879
     3.0995   3.1939   3.2729   3.3083   3.3167   3.3167   3.4643   3.4903
     3.9912   4.0686   4.2048   4.2584   4.3081   4.3081   4.3102   4.3102
     4.3359   4.3359   4.4277   4.4832   4.5325   4.5325   4.5533   4.6583
     4.8129   4.8328   5.1698   5.1698   5.3866   5.4796   5.7147   5.7147
     5.7519   6.1423   6.5415   6.6198   6.6198   7.0012   7.1355   7.1355
     7.2693   7.2693   7.3330   7.6091   7.6228   7.6228   7.8945   8.2067

     occupation numbers 
     1.0000   1.0000   1.0000   1.0000   1.0000   1.0000   1.0000   1.0000
     1.0000   1.0000   1.0000   1.0000   1.0000   1.0000   1.0000   1.0000
     1.0000   1.0000   1.0000   1.0000   1.0000   1.0000   1.0000   1.0000
     1.0000   1.0000   1.0000   1.0000   1.0000   1.0000   1.0000   1.0000
     1.0000   1.0000   1.0000   1.0000   1.0000   1.0000   1.0000   1.0000
     1.0000   1.0000   1.0000   1.0000   1.0000   1.0000   1.0000   1.0000
     1.0000   1.0000   1.0000   1.0000   1.0000   1.0000   1.0000   1.0000
     1.0000   1.0000   1.0000   1.0000   1.0000   1.0000   1.0000   1.0000
     1.0000   1.0000   1.0000   1.0000   1.0000   1.0000   1.0000   1.0000

          k = 0.0000 0.7698 0.0974 (  6919 PWs)   bands (ev):

    -9.4712  -9.3127  -9.2198  -9.1976  -9.1258  -9.0611  -9.0421  -8.9790
     2.0337   2.0983   2.1094   2.2080   2.2505   2.3293   2.4913   2.5416
     2.8763   2.9029   2.9506   2.9997   3.0356   3.0705   3.0935   3.1024
     3.1152   3.1835   3.2644   3.2874   3.3187   3.3292   3.4503   3.4691
     4.0064   4.0734   4.2376   4.2404   4.2610   4.2662   4.3153   4.3317
     4.3577   4.3773   4.4241   4.4821   4.5026   4.5508   4.5770   4.6811
     4.7959   4.9016   5.0685   5.2627   5.4070   5.5050   5.6034   5.7745
     5.7922   6.1754   6.4325   6.5254   6.7348   6.8268   7.0234   7.1208
     7.3331   7.4223   7.4255   7.4670   7.5981   7.7762   7.8912   8.1871

     occupation numbers 
     1.0000   1.0000   1.0000   1.0000   1.0000   1.0000   1.0000   1.0000
     1.0000   1.0000   1.0000   1.0000   1.0000   1.0000   1.0000   1.0000
     1.0000   1.0000   1.0000   1.0000   1.0000   1.0000   1.0000   1.0000
     1.0000   1.0000   1.0000   1.0000   1.0000   1.0000   1.0000   1.0000
     1.0000   1.0000   1.0000   1.0000   1.0000   1.0000   1.0000   1.0000
     1.0000   1.0000   1.0000   1.0000   1.0000   1.0000   1.0000   1.0000
     1.0000   1.0000   1.0000   1.0000   1.0000   1.0000   1.0000   1.0000
     1.0000   1.0000   1.0000   1.0000   1.0000   1.0000   1.0000   1.0000
     1.0000   1.0000   1.0000   1.0000   1.0000   1.0000   1.0000   1.0000

          k = 0.0000 0.7698 0.1948 (  6918 PWs)   bands (ev):

    -9.4487  -9.3667  -9.2061  -9.1572  -9.1443  -9.0639  -9.0322  -8.9901
     2.0365   2.0794   2.1929   2.2289   2.3025   2.3167   2.4073   2.4828
     2.8927   2.8990   2.9198   2.9556   3.0639   3.0790   3.0800   3.1507
     3.1546   3.1559   3.2397   3.2416   3.3353   3.3556   3.4088   3.4321
     4.0469   4.1015   4.1702   4.2108   4.2685   4.2909   4.2965   4.3374
     4.3790   4.4139   4.4387   4.4801   4.4866   4.5310   4.6314   4.7293
     4.7719   4.9620   5.0816   5.3438   5.4281   5.4663   5.5819   5.7976
     5.8641   6.2290   6.2763   6.4904   6.5808   6.6388   7.0882   7.1386
     7.3127   7.3192   7.5178   7.5772   7.6520   7.8686   7.9175   8.1296

     occupation numbers 
     1.0000   1.0000   1.0000   1.0000   1.0000   1.0000   1.0000   1.0000
     1.0000   1.0000   1.0000   1.0000   1.0000   1.0000   1.0000   1.0000
     1.0000   1.0000   1.0000   1.0000   1.0000   1.0000   1.0000   1.0000
     1.0000   1.0000   1.0000   1.0000   1.0000   1.0000   1.0000   1.0000
     1.0000   1.0000   1.0000   1.0000   1.0000   1.0000   1.0000   1.0000
     1.0000   1.0000   1.0000   1.0000   1.0000   1.0000   1.0000   1.0000
     1.0000   1.0000   1.0000   1.0000   1.0000   1.0000   1.0000   1.0000
     1.0000   1.0000   1.0000   1.0000   1.0000   1.0000   1.0000   1.0000
     1.0000   1.0000   1.0000   1.0000   1.0000   1.0000   1.0000   1.0000

          k = 0.0000 0.7698-0.2922 (  6910 PWs)   bands (ev):

    -9.4131  -9.4131  -9.1847  -9.1847  -9.0987  -9.0987  -9.0081  -9.0081
     2.0555   2.0555   2.2651   2.2651   2.2984   2.2985   2.4006   2.4006
     2.9026   2.9026   2.9195   2.9195   3.0679   3.0679   3.1193   3.1193
     3.1934   3.1934   3.2018   3.2018   3.3659   3.3659   3.3925   3.3925
     4.1039   4.1039   4.1518   4.1518   4.2806   4.2806   4.3252   4.3252
     4.3982   4.3982   4.4804   4.4804   4.4915   4.4915   4.6886   4.6886
     4.8550   4.8550   5.2917   5.2917   5.4044   5.4044   5.7017   5.7017
     6.0290   6.0290   6.4417   6.4417   6.4810   6.4810   7.1896   7.1896
     7.2414   7.2414   7.5588   7.5589   7.7974   7.7974   8.0378   8.0378

     occupation numbers 
     1.0000   1.0000   1.0000   1.0000   1.0000   1.0000   1.0000   1.0000
     1.0000   1.0000   1.0000   1.0000   1.0000   1.0000   1.0000   1.0000
     1.0000   1.0000   1.0000   1.0000   1.0000   1.0000   1.0000   1.0000
     1.0000   1.0000   1.0000   1.0000   1.0000   1.0000   1.0000   1.0000
     1.0000   1.0000   1.0000   1.0000   1.0000   1.0000   1.0000   1.0000
     1.0000   1.0000   1.0000   1.0000   1.0000   1.0000   1.0000   1.0000
     1.0000   1.0000   1.0000   1.0000   1.0000   1.0000   1.0000   1.0000
     1.0000   1.0000   1.0000   1.0000   1.0000   1.0000   1.0000   1.0000
     1.0000   1.0000   1.0000   1.0000   1.0000   1.0000   1.0000   1.0000

          k = 0.0000-1.1547 0.0000 (  6892 PWs)   bands (ev):

    -9.2131  -9.2131  -9.0891  -9.0891  -9.0891  -9.0891  -8.9796  -8.9796
     2.0223   2.0223   2.0223   2.0223   2.2250   2.2250   2.2905   2.2905
     2.9311   2.9311   3.1727   3.1727   3.1727   3.1727   3.3004   3.3004
     3.3004   3.3004   3.3638   3.3638   3.4113   3.4113   3.4841   3.4841
     4.1802   4.1802   4.3840   4.3840   4.4090   4.4090   4.4090   4.4090
     4.4622   4.4622   4.4779   4.4779   4.4779   4.4779   4.5632   4.5632
     4.8600   4.8600   4.8600   4.8600   4.9012   4.9012   4.9535   4.9535
     5.8116   5.8116   6.5344   6.5344   7.1502   7.1502   7.1502   7.1502
     7.2594   7.2594   7.2594   7.2594   7.3798   7.3798   7.9124   7.9124

     occupation numbers 
     1.0000   1.0000   1.0000   1.0000   1.0000   1.0000   1.0000   1.0000
     1.0000   1.0000   1.0000   1.0000   1.0000   1.0000   1.0000   1.0000
     1.0000   1.0000   1.0000   1.0000   1.0000   1.0000   1.0000   1.0000
     1.0000   1.0000   1.0000   1.0000   1.0000   1.0000   1.0000   1.0000
     1.0000   1.0000   1.0000   1.0000   1.0000   1.0000   1.0000   1.0000
     1.0000   1.0000   1.0000   1.0000   1.0000   1.0000   1.0000   1.0000
     1.0000   1.0000   1.0000   1.0000   1.0000   1.0000   1.0000   1.0000
     1.0000   1.0000   1.0000   1.0000   1.0000   1.0000   1.0000   1.0000
     1.0000   1.0000   1.0000   1.0000   1.0000   1.0000   1.0000   1.0000

          k = 0.0000-1.1547 0.0974 (  6888 PWs)   bands (ev):

    -9.2087  -9.2087  -9.1199  -9.1199  -9.0593  -9.0593  -8.9831  -8.9831
     2.0355   2.0355   2.0387   2.0387   2.2114   2.2114   2.2705   2.2705
     2.9386   2.9386   3.1050   3.1050   3.2452   3.2452   3.2927   3.2927
     3.3161   3.3161   3.3532   3.3532   3.4048   3.4048   3.4718   3.4718
     4.2008   4.2008   4.3848   4.3848   4.4013   4.4013   4.4184   4.4184
     4.4319   4.4319   4.4591   4.4591   4.5133   4.5133   4.5627   4.5627
     4.8621   4.8621   4.8641   4.8641   4.8981   4.8981   4.9424   4.9424
     5.8776   5.8776   6.5614   6.5614   6.8998   6.8998   7.0820   7.0820
     7.3314   7.3314   7.3950   7.3950   7.4324   7.4324   7.8907   7.8907

     occupation numbers 
     1.0000   1.0000   1.0000   1.0000   1.0000   1.0000   1.0000   1.0000
     1.0000   1.0000   1.0000   1.0000   1.0000   1.0000   1.0000   1.0000
     1.0000   1.0000   1.0000   1.0000   1.0000   1.0000   1.0000   1.0000
     1.0000   1.0000   1.0000   1.0000   1.0000   1.0000   1.0000   1.0000
     1.0000   1.0000   1.0000   1.0000   1.0000   1.0000   1.0000   1.0000
     1.0000   1.0000   1.0000   1.0000   1.0000   1.0000   1.0000   1.0000
     1.0000   1.0000   1.0000   1.0000   1.0000   1.0000   1.0000   1.0000
     1.0000   1.0000   1.0000   1.0000   1.0000   1.0000   1.0000   1.0000
     1.0000   1.0000   1.0000   1.0000   1.0000   1.0000   1.0000   1.0000

          k = 0.0000-1.1547 0.1948 (  6880 PWs)   bands (ev):

    -9.1958  -9.1958  -9.1495  -9.1495  -9.0324  -9.0324  -8.9934  -8.9934
     2.0728   2.0728   2.0836   2.0836   2.1742   2.1742   2.2173   2.2173
     2.9607   2.9607   3.0454   3.0454   3.2949   3.2949   3.3172   3.3172
     3.3297   3.3297   3.3379   3.3379   3.3869   3.3869   3.4368   3.4368
     4.2519   4.2519   4.3767   4.3767   4.3869   4.3869   4.3950   4.3950
     4.4290   4.4290   4.4513   4.4513   4.5379   4.5379   4.5599   4.5599
     4.8692   4.8692   4.8752   4.8752   4.8901   4.8901   4.9182   4.9182
     6.0581   6.0581   6.6094   6.6094   6.6395   6.6395   6.9115   6.9115
     7.4293   7.4293   7.4296   7.4296   7.5906   7.5906   7.8268   7.8268

     occupation numbers 
     1.0000   1.0000   1.0000   1.0000   1.0000   1.0000   1.0000   1.0000
     1.0000   1.0000   1.0000   1.0000   1.0000   1.0000   1.0000   1.0000
     1.0000   1.0000   1.0000   1.0000   1.0000   1.0000   1.0000   1.0000
     1.0000   1.0000   1.0000   1.0000   1.0000   1.0000   1.0000   1.0000
     1.0000   1.0000   1.0000   1.0000   1.0000   1.0000   1.0000   1.0000
     1.0000   1.0000   1.0000   1.0000   1.0000   1.0000   1.0000   1.0000
     1.0000   1.0000   1.0000   1.0000   1.0000   1.0000   1.0000   1.0000
     1.0000   1.0000   1.0000   1.0000   1.0000   1.0000   1.0000   1.0000
     1.0000   1.0000   1.0000   1.0000   1.0000   1.0000   1.0000   1.0000

          k = 0.0000-1.1547-0.2922 (  6904 PWs)   bands (ev):

    -9.1755  -9.1755  -9.1755  -9.1755  -9.0101  -9.0101  -9.0101  -9.0100
     2.1235   2.1235   2.1235   2.1235   2.1483   2.1483   2.1483   2.1484
     2.9966   2.9966   2.9966   2.9966   3.3078   3.3078   3.3078   3.3078
     3.3626   3.3626   3.3626   3.3626   3.3832   3.3832   3.3832   3.3832
     4.3146   4.3146   4.3146   4.3146   4.3902   4.3902   4.3903   4.3903
     4.4404   4.4404   4.4404   4.4404   4.5525   4.5525   4.5525   4.5525
     4.8795   4.8795   4.8795   4.8795   4.8937   4.8937   4.8937   4.8937
     6.3156   6.3156   6.3156   6.3156   6.7599   6.7599   6.7599   6.7599
     7.4529   7.4529   7.4529   7.4529   7.7247   7.7247   7.7247   7.7247

     occupation numbers 
     1.0000   1.0000   1.0000   1.0000   1.0000   1.0000   1.0000   1.0000
     1.0000   1.0000   1.0000   1.0000   1.0000   1.0000   1.0000   1.0000
     1.0000   1.0000   1.0000   1.0000   1.0000   1.0000   1.0000   1.0000
     1.0000   1.0000   1.0000   1.0000   1.0000   1.0000   1.0000   1.0000
     1.0000   1.0000   1.0000   1.0000   1.0000   1.0000   1.0000   1.0000
     1.0000   1.0000   1.0000   1.0000   1.0000   1.0000   1.0000   1.0000
     1.0000   1.0000   1.0000   1.0000   1.0000   1.0000   1.0000   1.0000
     1.0000   1.0000   1.0000   1.0000   1.0000   1.0000   1.0000   1.0000
     1.0000   1.0000   1.0000   1.0000   1.0000   1.0000   1.0000   1.0000

          k = 0.1667 0.0962 0.0000 (  6939 PWs)   bands (ev):

   -10.0453  -9.6816  -9.6816  -9.2924  -9.2916  -9.1341  -9.1341  -8.9874
     2.0271   2.0271   2.1298   2.2904   2.2904   2.3371   2.4094   2.5359
     2.6174   2.6908   2.6913   2.6913   2.7003   2.7003   2.7672   2.8178
     2.9174   3.1409   3.1409   3.2366   3.2366   3.2760   3.4191   3.4249
     4.1268   4.1479   4.1676   4.2923   4.2923   4.2939   4.2939   4.3425
     4.3841   4.3841   4.3843   4.3843   4.3934   4.4165   4.4504   4.6218
     4.7514   4.7556   5.1067   5.1510   5.1510   6.0171   6.4275   6.4275
     6.6668   7.1398   7.1398   7.3606   7.3606   7.5446   7.9172   7.9943
     8.1047   8.3395   8.3395   8.4720   8.5093   8.5093   8.6449   8.9109

     occupation numbers 
     1.0000   1.0000   1.0000   1.0000   1.0000   1.0000   1.0000   1.0000
     1.0000   1.0000   1.0000   1.0000   1.0000   1.0000   1.0000   1.0000
     1.0000   1.0000   1.0000   1.0000   1.0000   1.0000   1.0000   1.0000
     1.0000   1.0000   1.0000   1.0000   1.0000   1.0000   1.0000   1.0000
     1.0000   1.0000   1.0000   1.0000   1.0000   1.0000   1.0000   1.0000
     1.0000   1.0000   1.0000   1.0000   1.0000   1.0000   1.0000   1.0000
     1.0000   1.0000   1.0000   1.0000   1.0000   1.0000   1.0000   1.0000
     1.0000   1.0000   1.0000   1.0000   1.0000   1.0000   1.0000   1.0000
     1.0000   1.0000   1.0000   1.0000   1.0000   1.0000   1.0000   1.0000

          k = 0.1667 0.0962 0.0974 (  6959 PWs)   bands (ev):

   -10.0333  -9.7781  -9.5834  -9.3054  -9.2869  -9.1741  -9.0949  -8.9921
     2.0152   2.0692   2.1200   2.2559   2.3235   2.3439   2.3843   2.5295
     2.6197   2.6743   2.6758   2.6843   2.7114   2.7272   2.7658   2.8130
     2.9242   3.0783   3.2074   3.2222   3.2609   3.2674   3.4051   3.4138
     4.1370   4.1532   4.1723   4.2582   4.2636   4.3222   4.3244   4.3254
     4.3437   4.3722   4.3904   4.3977   4.4101   4.4418   4.4471   4.6204
     4.7680   4.8185   5.0721   5.1447   5.2189   6.0198   6.0372   6.6923
     6.8403   6.8585   7.1895   7.3633   7.5280   7.5551   7.9291   7.9731
     8.1185   8.2308   8.3161   8.4049   8.4491   8.6136   8.6846   8.8972

     occupation numbers 
     1.0000   1.0000   1.0000   1.0000   1.0000   1.0000   1.0000   1.0000
     1.0000   1.0000   1.0000   1.0000   1.0000   1.0000   1.0000   1.0000
     1.0000   1.0000   1.0000   1.0000   1.0000   1.0000   1.0000   1.0000
     1.0000   1.0000   1.0000   1.0000   1.0000   1.0000   1.0000   1.0000
     1.0000   1.0000   1.0000   1.0000   1.0000   1.0000   1.0000   1.0000
     1.0000   1.0000   1.0000   1.0000   1.0000   1.0000   1.0000   1.0000
     1.0000   1.0000   1.0000   1.0000   1.0000   1.0000   1.0000   1.0000
     1.0000   1.0000   1.0000   1.0000   1.0000   1.0000   1.0000   1.0000
     1.0000   1.0000   1.0000   1.0000   1.0000   1.0000   1.0000   1.0000

          k = 0.1667 0.0962 0.1948 (  6955 PWs)   bands (ev):

    -9.9979  -9.8665  -9.4902  -9.3456  -9.2707  -9.2120  -9.0591  -9.0063
     2.0291   2.0936   2.1393   2.2463   2.2918   2.3170   2.4065   2.5075
     2.6267   2.6550   2.6632   2.6705   2.7316   2.7544   2.7605   2.7998
     2.9446   3.0231   3.2196   3.2476   3.2734   3.2934   3.3714   3.3821
     4.1671   4.1692   4.1861   4.2243   4.2340   4.2673   4.3472   4.3473
     4.3527   4.3618   4.3816   4.3959   4.4119   4.4384   4.4974   4.5952
     4.8216   4.9876   5.0061   5.2221   5.2653   5.6329   6.1182   6.5593
     6.7661   7.0257   7.2464   7.5064   7.5737   7.6814   7.9109   7.9370
     8.0441   8.1312   8.1590   8.3073   8.5506   8.6845   8.7106   8.8573

     occupation numbers 
     1.0000   1.0000   1.0000   1.0000   1.0000   1.0000   1.0000   1.0000
     1.0000   1.0000   1.0000   1.0000   1.0000   1.0000   1.0000   1.0000
     1.0000   1.0000   1.0000   1.0000   1.0000   1.0000   1.0000   1.0000
     1.0000   1.0000   1.0000   1.0000   1.0000   1.0000   1.0000   1.0000
     1.0000   1.0000   1.0000   1.0000   1.0000   1.0000   1.0000   1.0000
     1.0000   1.0000   1.0000   1.0000   1.0000   1.0000   1.0000   1.0000
     1.0000   1.0000   1.0000   1.0000   1.0000   1.0000   1.0000   1.0000
     1.0000   1.0000   1.0000   1.0000   1.0000   1.0000   1.0000   1.0000
     1.0000   1.0000   1.0000   1.0000   1.0000   1.0000   1.0000   1.0000

          k = 0.1667 0.0962-0.2922 (  6970 PWs)   bands (ev):

    -9.9413  -9.9413  -9.4089  -9.4088  -9.2451  -9.2451  -9.0290  -9.0290
     2.0593   2.0593   2.2277   2.2277   2.2609   2.2609   2.4651   2.4651
     2.6384   2.6384   2.6614   2.6614   2.7488   2.7488   2.7793   2.7793
     2.9780   2.9780   3.2289   3.2289   3.3315   3.3315   3.3335   3.3335
     4.1936   4.1936   4.2072   4.2072   4.2127   4.2127   4.3535   4.3535
     4.3671   4.3671   4.3765   4.3765   4.4259   4.4259   4.5498   4.5498
     4.9018   4.9018   5.2713   5.2713   5.2869   5.2869   6.2952   6.2952
     6.8807   6.8807   7.5691   7.5691   7.6345   7.6345   7.8117   7.8117
     8.0491   8.0491   8.2234   8.2234   8.6335   8.6336   8.7936   8.7936

     occupation numbers 
     1.0000   1.0000   1.0000   1.0000   1.0000   1.0000   1.0000   1.0000
     1.0000   1.0000   1.0000   1.0000   1.0000   1.0000   1.0000   1.0000
     1.0000   1.0000   1.0000   1.0000   1.0000   1.0000   1.0000   1.0000
     1.0000   1.0000   1.0000   1.0000   1.0000   1.0000   1.0000   1.0000
     1.0000   1.0000   1.0000   1.0000   1.0000   1.0000   1.0000   1.0000
     1.0000   1.0000   1.0000   1.0000   1.0000   1.0000   1.0000   1.0000
     1.0000   1.0000   1.0000   1.0000   1.0000   1.0000   1.0000   1.0000
     1.0000   1.0000   1.0000   1.0000   1.0000   1.0000   1.0000   1.0000
     1.0000   1.0000   1.0000   1.0000   1.0000   1.0000   1.0000   1.0000

          k = 0.1667 0.4811 0.0000 (  6953 PWs)   bands (ev):

    -9.7781  -9.4731  -9.4731  -9.3943  -9.1973  -9.1972  -9.1564  -9.0073
     2.1684   2.1684   2.1714   2.1714   2.2816   2.2917   2.5180   2.5745
     2.7322   2.7981   2.7981   2.8467   2.8918   2.8940   2.9244   2.9244
     2.9262   2.9262   3.0445   3.0576   3.1951   3.1951   3.3352   3.3646
     3.9855   4.0426   4.1672   4.2207   4.2860   4.2860   4.2962   4.2962
     4.3092   4.3092   4.4041   4.4069   4.4069   4.4460   4.5705   4.6344
     4.6877   4.9125   5.6118   5.6777   5.6777   6.1858   6.3696   6.3696
     6.4245   6.7072   6.8788   6.8788   7.2246   7.3325   7.3325   7.4359
     7.4359   7.6325   7.7662   7.8477   8.0148   8.0148   8.3521   8.5180

     occupation numbers 
     1.0000   1.0000   1.0000   1.0000   1.0000   1.0000   1.0000   1.0000
     1.0000   1.0000   1.0000   1.0000   1.0000   1.0000   1.0000   1.0000
     1.0000   1.0000   1.0000   1.0000   1.0000   1.0000   1.0000   1.0000
     1.0000   1.0000   1.0000   1.0000   1.0000   1.0000   1.0000   1.0000
     1.0000   1.0000   1.0000   1.0000   1.0000   1.0000   1.0000   1.0000
     1.0000   1.0000   1.0000   1.0000   1.0000   1.0000   1.0000   1.0000
     1.0000   1.0000   1.0000   1.0000   1.0000   1.0000   1.0000   1.0000
     1.0000   1.0000   1.0000   1.0000   1.0000   1.0000   1.0000   1.0000
     1.0000   1.0000   1.0000   1.0000   1.0000   1.0000   1.0000   1.0000

          k = 0.1667 0.4811 0.0974 (  6950 PWs)   bands (ev):

    -9.7679  -9.5532  -9.3922  -9.3875  -9.2477  -9.1674  -9.1473  -9.0136
     2.1594   2.1713   2.1995   2.2087   2.2717   2.2836   2.5001   2.5345
     2.7355   2.7868   2.8048   2.8388   2.8905   2.9027   2.9074   2.9144
     2.9445   2.9454   3.0391   3.0463   3.1860   3.2200   3.3082   3.3559
     3.9998   4.0528   4.1729   4.2314   4.2417   4.2459   4.2639   4.3229
     4.3339   4.3432   4.4004   4.4050   4.4433   4.4436   4.5276   4.6307
     4.8002   4.9599   5.5536   5.6489   5.7870   6.0550   6.1882   6.4317
     6.6265   6.7107   6.7237   6.8278   7.2148   7.2353   7.3388   7.4983
     7.6276   7.6602   7.7514   7.8398   7.8972   8.1428   8.3283   8.5007

     occupation numbers 
     1.0000   1.0000   1.0000   1.0000   1.0000   1.0000   1.0000   1.0000
     1.0000   1.0000   1.0000   1.0000   1.0000   1.0000   1.0000   1.0000
     1.0000   1.0000   1.0000   1.0000   1.0000   1.0000   1.0000   1.0000
     1.0000   1.0000   1.0000   1.0000   1.0000   1.0000   1.0000   1.0000
     1.0000   1.0000   1.0000   1.0000   1.0000   1.0000   1.0000   1.0000
     1.0000   1.0000   1.0000   1.0000   1.0000   1.0000   1.0000   1.0000
     1.0000   1.0000   1.0000   1.0000   1.0000   1.0000   1.0000   1.0000
     1.0000   1.0000   1.0000   1.0000   1.0000   1.0000   1.0000   1.0000
     1.0000   1.0000   1.0000   1.0000   1.0000   1.0000   1.0000   1.0000

          k = 0.1667 0.4811 0.1948 (  6942 PWs)   bands (ev):

    -9.7380  -9.6271  -9.3676  -9.3162  -9.2951  -9.1995  -9.1012  -9.0322
     2.1764   2.1936   2.2449   2.2568   2.2605   2.2784   2.4424   2.4463
     2.7440   2.7720   2.8094   2.8265   2.8839   2.8912   2.9145   2.9150
     2.9635   2.9725   3.0181   3.0235   3.1937   3.2562   3.2573   3.3316
     4.0404   4.0815   4.1719   4.1756   4.1878   4.2351   4.2790   4.3270
     4.3497   4.3895   4.3930   4.4143   4.4361   4.4803   4.5039   4.6077
     5.0388   5.0921   5.4153   5.7050   5.7544   5.8686   6.1899   6.4413
     6.4712   6.6890   6.7706   6.8034   7.0996   7.1747   7.4628   7.6319
     7.6651   7.6940   7.7448   7.8200   7.9316   8.2515   8.2643   8.4500

     occupation numbers 
     1.0000   1.0000   1.0000   1.0000   1.0000   1.0000   1.0000   1.0000
     1.0000   1.0000   1.0000   1.0000   1.0000   1.0000   1.0000   1.0000
     1.0000   1.0000   1.0000   1.0000   1.0000   1.0000   1.0000   1.0000
     1.0000   1.0000   1.0000   1.0000   1.0000   1.0000   1.0000   1.0000
     1.0000   1.0000   1.0000   1.0000   1.0000   1.0000   1.0000   1.0000
     1.0000   1.0000   1.0000   1.0000   1.0000   1.0000   1.0000   1.0000
     1.0000   1.0000   1.0000   1.0000   1.0000   1.0000   1.0000   1.0000
     1.0000   1.0000   1.0000   1.0000   1.0000   1.0000   1.0000   1.0000
     1.0000   1.0000   1.0000   1.0000   1.0000   1.0000   1.0000   1.0000

          k = 0.1667 0.4811-0.2922 (  6940 PWs)   bands (ev):

    -9.6900  -9.6900  -9.3360  -9.3360  -9.2503  -9.2503  -9.0620  -9.0620
     2.2091   2.2091   2.2274   2.2274   2.3411   2.3411   2.3650   2.3650
     2.7567   2.7567   2.8161   2.8161   2.8827   2.8827   2.9175   2.9175
     2.9876   2.9876   3.0001   3.0001   3.2173   3.2173   3.2961   3.2961
     4.1005   4.1005   4.1241   4.1241   4.2091   4.2091   4.3082   4.3082
     4.3723   4.3723   4.4257   4.4257   4.4378   4.4378   4.5626   4.5626
     5.2588   5.2588   5.3532   5.3532   5.8697   5.8697   6.2376   6.2376
     6.5607   6.5607   6.8302   6.8302   7.1028   7.1029   7.5923   7.5923
     7.6732   7.6732   7.7709   7.7709   8.1146   8.1146   8.3693   8.3693

     occupation numbers 
     1.0000   1.0000   1.0000   1.0000   1.0000   1.0000   1.0000   1.0000
     1.0000   1.0000   1.0000   1.0000   1.0000   1.0000   1.0000   1.0000
     1.0000   1.0000   1.0000   1.0000   1.0000   1.0000   1.0000   1.0000
     1.0000   1.0000   1.0000   1.0000   1.0000   1.0000   1.0000   1.0000
     1.0000   1.0000   1.0000   1.0000   1.0000   1.0000   1.0000   1.0000
     1.0000   1.0000   1.0000   1.0000   1.0000   1.0000   1.0000   1.0000
     1.0000   1.0000   1.0000   1.0000   1.0000   1.0000   1.0000   1.0000
     1.0000   1.0000   1.0000   1.0000   1.0000   1.0000   1.0000   1.0000
     1.0000   1.0000   1.0000   1.0000   1.0000   1.0000   1.0000   1.0000

          k = 0.1667 0.8660 0.0000 (  6932 PWs)   bands (ev):

    -9.3571  -9.3571  -9.1737  -9.1737  -9.1737  -9.1737  -8.9992  -8.9992
     2.0803   2.0803   2.0803   2.0803   2.1582   2.1582   2.5036   2.5036
     2.8778   2.8778   3.0471   3.0471   3.0471   3.0471   3.1768   3.1768
     3.2046   3.2046   3.2046   3.2046   3.3792   3.3792   3.3988   3.3988
     4.0412   4.0412   4.2668   4.2668   4.3238   4.3238   4.3238   4.3238
     4.3984   4.3984   4.3984   4.3984   4.4460   4.4460   4.6076   4.6076
     4.8720   4.8720   5.2614   5.2614   5.4226   5.4226   5.4226   5.4226
     6.2195   6.2195   6.5943   6.5943   7.0590   7.0590   7.0590   7.0590
     7.3721   7.3721   7.3721   7.3721   7.6812   7.6812   7.9661   7.9661

     occupation numbers 
     1.0000   1.0000   1.0000   1.0000   1.0000   1.0000   1.0000   1.0000
     1.0000   1.0000   1.0000   1.0000   1.0000   1.0000   1.0000   1.0000
     1.0000   1.0000   1.0000   1.0000   1.0000   1.0000   1.0000   1.0000
     1.0000   1.0000   1.0000   1.0000   1.0000   1.0000   1.0000   1.0000
     1.0000   1.0000   1.0000   1.0000   1.0000   1.0000   1.0000   1.0000
     1.0000   1.0000   1.0000   1.0000   1.0000   1.0000   1.0000   1.0000
     1.0000   1.0000   1.0000   1.0000   1.0000   1.0000   1.0000   1.0000
     1.0000   1.0000   1.0000   1.0000   1.0000   1.0000   1.0000   1.0000
     1.0000   1.0000   1.0000   1.0000   1.0000   1.0000   1.0000   1.0000

          k = 0.1667 0.8660 0.0974 (  6922 PWs)   bands (ev):

    -9.3507  -9.3507  -9.2205  -9.2205  -9.1276  -9.1276  -9.0049  -9.0049
     2.0631   2.0631   2.1285   2.1285   2.1496   2.1496   2.4763   2.4763
     2.8830   2.8830   3.0032   3.0032   3.0844   3.0844   3.1695   3.1695
     3.2033   3.2033   3.2276   3.2276   3.3676   3.3676   3.3774   3.3774
     4.0511   4.0511   4.2653   4.2653   4.2799   4.2799   4.3448   4.3448
     4.3983   4.3983   4.4342   4.4342   4.4432   4.4432   4.6082   4.6082
     4.9008   4.9008   5.3039   5.3039   5.3233   5.3233   5.5052   5.5052
     6.2147   6.2147   6.6211   6.6211   6.7973   6.7973   7.0968   7.0968
     7.3929   7.3929   7.5255   7.5255   7.6851   7.6851   7.9454   7.9454

     occupation numbers 
     1.0000   1.0000   1.0000   1.0000   1.0000   1.0000   1.0000   1.0000
     1.0000   1.0000   1.0000   1.0000   1.0000   1.0000   1.0000   1.0000
     1.0000   1.0000   1.0000   1.0000   1.0000   1.0000   1.0000   1.0000
     1.0000   1.0000   1.0000   1.0000   1.0000   1.0000   1.0000   1.0000
     1.0000   1.0000   1.0000   1.0000   1.0000   1.0000   1.0000   1.0000
     1.0000   1.0000   1.0000   1.0000   1.0000   1.0000   1.0000   1.0000
     1.0000   1.0000   1.0000   1.0000   1.0000   1.0000   1.0000   1.0000
     1.0000   1.0000   1.0000   1.0000   1.0000   1.0000   1.0000   1.0000
     1.0000   1.0000   1.0000   1.0000   1.0000   1.0000   1.0000   1.0000

          k = 0.1667 0.8660 0.1948 (  6926 PWs)   bands (ev):

    -9.3321  -9.3321  -9.2645  -9.2645  -9.0852  -9.0851  -9.0219  -9.0219
     2.0719   2.0719   2.1267   2.1267   2.2063   2.2063   2.4025   2.4025
     2.8986   2.8986   2.9606   2.9606   3.1098   3.1098   3.1513   3.1513
     3.2266   3.2266   3.2648   3.2648   3.3210   3.3210   3.3461   3.3461
     4.0832   4.0832   4.1985   4.1985   4.3031   4.3031   4.3370   4.3370
     4.4102   4.4102   4.4351   4.4351   4.4916   4.4916   4.5901   4.5902
     4.9873   4.9873   5.2149   5.2149   5.4135   5.4135   5.5509   5.5509
     6.2225   6.2225   6.5149   6.5149   6.6968   6.6968   6.9538   6.9538
     7.5423   7.5423   7.6759   7.6759   7.6835   7.6835   7.8857   7.8857

     occupation numbers 
     1.0000   1.0000   1.0000   1.0000   1.0000   1.0000   1.0000   1.0000
     1.0000   1.0000   1.0000   1.0000   1.0000   1.0000   1.0000   1.0000
     1.0000   1.0000   1.0000   1.0000   1.0000   1.0000   1.0000   1.0000
     1.0000   1.0000   1.0000   1.0000   1.0000   1.0000   1.0000   1.0000
[...]
     4.3481   4.3700   4.3789   4.3868   4.4138   4.4387   4.4395   4.5310
     5.0168   5.0816   5.4662   5.5818   5.6777   5.7974   6.4903   6.5808
     7.0694   7.0884   7.2181   7.3194   7.5177   7.6520   7.6616   7.8686
     7.8813   7.9177   8.0509   8.1046   8.1298   8.3845   8.5077   8.6731

     occupation numbers 
     1.0000   1.0000   1.0000   1.0000   1.0000   1.0000   1.0000   1.0000
     1.0000   1.0000   1.0000   1.0000   1.0000   1.0000   1.0000   1.0000
     1.0000   1.0000   1.0000   1.0000   1.0000   1.0000   1.0000   1.0000
     1.0000   1.0000   1.0000   1.0000   1.0000   1.0000   1.0000   1.0000
     1.0000   1.0000   1.0000   1.0000   1.0000   1.0000   1.0000   1.0000
     1.0000   1.0000   1.0000   1.0000   1.0000   1.0000   1.0000   1.0000
     1.0000   1.0000   1.0000   1.0000   1.0000   1.0000   1.0000   1.0000
     1.0000   1.0000   1.0000   1.0000   1.0000   1.0000   1.0000   1.0000
     1.0000   1.0000   1.0000   1.0000   1.0000   1.0000   1.0000   1.0000

          k =-0.6667 0.7698-0.0974 (  6912 PWs)   bands (ev):

    -9.2198  -9.2198  -9.1258  -9.1258  -9.0611  -9.0611  -8.9790  -8.9790
     2.2080   2.2080   2.2505   2.2505   2.3293   2.3293   2.5417   2.5417
     2.9028   2.9028   2.9506   2.9506   3.0356   3.0356   3.1835   3.1835
     3.3187   3.3187   3.3292   3.3292   3.4503   3.4503   3.4691   3.4691
     4.0733   4.0733   4.2376   4.2376   4.2661   4.2661   4.3317   4.3317
     4.4822   4.4822   4.5026   4.5026   4.5771   4.5771   4.6811   4.6811
     4.7959   4.7959   5.0685   5.0685   5.2627   5.2627   5.4070   5.4070
     5.7744   5.7744   6.1755   6.1755   6.4325   6.4325   6.7348   6.7348
     7.1208   7.1208   7.3330   7.3330   7.4223   7.4223   7.5981   7.5981

     occupation numbers 
     1.0000   1.0000   1.0000   1.0000   1.0000   1.0000   1.0000   1.0000
     1.0000   1.0000   1.0000   1.0000   1.0000   1.0000   1.0000   1.0000
     1.0000   1.0000   1.0000   1.0000   1.0000   1.0000   1.0000   1.0000
     1.0000   1.0000   1.0000   1.0000   1.0000   1.0000   1.0000   1.0000
     1.0000   1.0000   1.0000   1.0000   1.0000   1.0000   1.0000   1.0000
     1.0000   1.0000   1.0000   1.0000   1.0000   1.0000   1.0000   1.0000
     1.0000   1.0000   1.0000   1.0000   1.0000   1.0000   1.0000   1.0000
     1.0000   1.0000   1.0000   1.0000   1.0000   1.0000   1.0000   1.0000
     1.0000   1.0000   1.0000   1.0000   1.0000   1.0000   1.0000   1.0000

          k =-0.6667 0.7698-0.1948 (  6918 PWs)   bands (ev):

    -9.2061  -9.2061  -9.1572  -9.1572  -9.0322  -9.0322  -8.9901  -8.9901
     2.2290   2.2290   2.3025   2.3025   2.3168   2.3168   2.4829   2.4829
     2.8989   2.8989   2.9197   2.9197   3.0790   3.0790   3.1558   3.1558
     3.3354   3.3354   3.3555   3.3555   3.4088   3.4088   3.4321   3.4321
     4.1014   4.1014   4.2107   4.2107   4.2909   4.2909   4.3374   4.3374
     4.4801   4.4801   4.4866   4.4866   4.6314   4.6314   4.7294   4.7294
     4.7719   4.7719   4.9620   4.9620   5.3437   5.3437   5.4281   5.4281
     5.8640   5.8640   6.2289   6.2289   6.2764   6.2764   6.6388   6.6388
     7.1386   7.1386   7.3127   7.3127   7.5178   7.5178   7.5772   7.5772

     occupation numbers 
     1.0000   1.0000   1.0000   1.0000   1.0000   1.0000   1.0000   1.0000
     1.0000   1.0000   1.0000   1.0000   1.0000   1.0000   1.0000   1.0000
     1.0000   1.0000   1.0000   1.0000   1.0000   1.0000   1.0000   1.0000
     1.0000   1.0000   1.0000   1.0000   1.0000   1.0000   1.0000   1.0000
     1.0000   1.0000   1.0000   1.0000   1.0000   1.0000   1.0000   1.0000
     1.0000   1.0000   1.0000   1.0000   1.0000   1.0000   1.0000   1.0000
     1.0000   1.0000   1.0000   1.0000   1.0000   1.0000   1.0000   1.0000
     1.0000   1.0000   1.0000   1.0000   1.0000   1.0000   1.0000   1.0000
     1.0000   1.0000   1.0000   1.0000   1.0000   1.0000   1.0000   1.0000

     highest occupied level (ev):     8.9740

!    total energy              =   -1446.39612782 Ry
     estimated scf accuracy    <          6.5E-09 Ry

     The total energy is the sum of the following terms:
     one-electron contribution =    -559.29406115 Ry
     hartree contribution      =     452.62372145 Ry
     xc contribution           =    -439.31353381 Ry
     ewald contribution        =    -900.41225431 Ry

     convergence has been achieved in  31 iterations

     Forces acting on atoms (cartesian axes, Ry/au):

     atom    1 type  1   force =     0.00000603    0.00000348    0.03072576
     atom    2 type  1   force =    -0.00000949   -0.00000548    0.03072100
     atom    3 type  2   force =    -0.00000244   -0.00000141   -0.03072370
     atom    4 type  2   force =     0.00000258    0.00000149   -0.03072352
     atom    5 type  1   force =     0.00000614    0.00000354    0.03071710
     atom    6 type  1   force =    -0.00000450   -0.00000260    0.03072855
     atom    7 type  2   force =    -0.00000246   -0.00000142   -0.03072305
     atom    8 type  2   force =     0.00000267    0.00000154   -0.03072290
     atom    9 type  1   force =     0.00000976    0.00000564    0.03072252
     atom   10 type  1   force =    -0.00000877   -0.00000506    0.03072548
     atom   11 type  2   force =    -0.00000272   -0.00000157   -0.03072393
     atom   12 type  2   force =     0.00000277    0.00000160   -0.03072341
     atom   13 type  1   force =     0.00001222    0.00000705    0.03071993
     atom   14 type  1   force =    -0.00001204   -0.00000695    0.03072635
     atom   15 type  2   force =    -0.00000262   -0.00000151   -0.03072301
     atom   16 type  2   force =     0.00000286    0.00000165   -0.03072317
     The non-local contrib.  to forces
     atom    1 type  1   force =    -0.00002876   -0.00001660    0.16812207
     atom    2 type  1   force =     0.00002740    0.00001582    0.16811992
     atom    3 type  2   force =    -0.00017193   -0.00009926    0.14089898
     atom    4 type  2   force =     0.00017151    0.00009902    0.14089927
     atom    5 type  1   force =    -0.00002917   -0.00001684    0.16811635
     atom    6 type  1   force =     0.00002893    0.00001670    0.16812283
     atom    7 type  2   force =    -0.00017128   -0.00009889    0.14090189
     atom    8 type  2   force =     0.00017205    0.00009933    0.14090274
     atom    9 type  1   force =    -0.00002778   -0.00001604    0.16812109
     atom   10 type  1   force =     0.00002855    0.00001648    0.16812067
     atom   11 type  2   force =    -0.00017312   -0.00009995    0.14089859
     atom   12 type  2   force =     0.00017292    0.00009983    0.14089908
     atom   13 type  1   force =    -0.00002670   -0.00001541    0.16811721
     atom   14 type  1   force =     0.00002685    0.00001550    0.16812328
     atom   15 type  2   force =    -0.00017303   -0.00009990    0.14090177
     atom   16 type  2   force =     0.00017318    0.00009999    0.14090262
     The ionic contribution  to forces
     atom    1 type  1   force =     0.00000000    0.00000001    1.37965180
     atom    2 type  1   force =     0.00000001    0.00000000    1.37965181
     atom    3 type  2   force =     0.00000000    0.00000001   -1.37965180
     atom    4 type  2   force =     0.00000001   -0.00000000   -1.37965181
     atom    5 type  1   force =     0.00000000    0.00000001    1.37965180
     atom    6 type  1   force =     0.00000001    0.00000000    1.37965181
     atom    7 type  2   force =     0.00000000    0.00000001   -1.37965180
     atom    8 type  2   force =     0.00000001   -0.00000000   -1.37965181
     atom    9 type  1   force =    -0.00000000   -0.00000000    1.37965181
     atom   10 type  1   force =    -0.00000001   -0.00000001    1.37965181
     atom   11 type  2   force =    -0.00000000   -0.00000000   -1.37965181
     atom   12 type  2   force =    -0.00000001   -0.00000000   -1.37965181
     atom   13 type  1   force =    -0.00000000   -0.00000000    1.37965181
     atom   14 type  1   force =    -0.00000001   -0.00000001    1.37965181
     atom   15 type  2   force =    -0.00000000   -0.00000000   -1.37965181
     atom   16 type  2   force =    -0.00000001   -0.00000000   -1.37965181
     The local contribution  to forces
     atom    1 type  1   force =     0.00004441    0.00002564   -1.50367452
     atom    2 type  1   force =    -0.00004112   -0.00002383   -1.50367097
     atom    3 type  2   force =     0.00016698    0.00009641    1.20905624
     atom    4 type  2   force =    -0.00016684   -0.00009635    1.20905796
     atom    5 type  1   force =     0.00004612    0.00002662   -1.50365971
     atom    6 type  1   force =    -0.00004794   -0.00002777   -1.50367552
     atom    7 type  2   force =     0.00016708    0.00009646    1.20905933
     atom    8 type  2   force =    -0.00016621   -0.00009598    1.20906569
     atom    9 type  1   force =     0.00004160    0.00002402   -1.50366951
     atom   10 type  1   force =    -0.00004345   -0.00002509   -1.50367295
     atom   11 type  2   force =     0.00016775    0.00009685    1.20905734
     atom   12 type  2   force =    -0.00016798   -0.00009698    1.20905964
     atom   13 type  1   force =     0.00003810    0.00002200   -1.50366269
     atom   14 type  1   force =    -0.00003701   -0.00002137   -1.50367530
     atom   15 type  2   force =     0.00016582    0.00009574    1.20906042
     atom   16 type  2   force =    -0.00016817   -0.00009709    1.20906541
     The core correction contribution to forces
     atom    1 type  1   force =    -0.00000607   -0.00000351   -0.01336875
     atom    2 type  1   force =     0.00000631    0.00000357   -0.01336866
     atom    3 type  2   force =     0.00000196    0.00000113   -0.00103107
     atom    4 type  2   force =    -0.00000192   -0.00000111   -0.00103107
     atom    5 type  1   force =    -0.00000614   -0.00000355   -0.01336888
     atom    6 type  1   force =     0.00000643    0.00000365   -0.01336891
     atom    7 type  2   force =     0.00000195    0.00000112   -0.00103110
     atom    8 type  2   force =    -0.00000192   -0.00000111   -0.00103110
     atom    9 type  1   force =    -0.00000628   -0.00000357   -0.01336891
     atom   10 type  1   force =     0.00000609    0.00000352   -0.01336873
     atom   11 type  2   force =     0.00000194    0.00000112   -0.00103106
     atom   12 type  2   force =    -0.00000198   -0.00000114   -0.00103106
     atom   13 type  1   force =    -0.00000626   -0.00000356   -0.01336890
     atom   14 type  1   force =     0.00000596    0.00000344   -0.01336890
     atom   15 type  2   force =     0.00000194    0.00000112   -0.00103110
     atom   16 type  2   force =    -0.00000198   -0.00000114   -0.00103110
     The Hubbard contrib.    to forces
     atom    1 type  1   force =     0.00000000    0.00000000    0.00000000
     atom    2 type  1   force =     0.00000000    0.00000000    0.00000000
     atom    3 type  2   force =     0.00000000    0.00000000    0.00000000
     atom    4 type  2   force =     0.00000000    0.00000000    0.00000000
     atom    5 type  1   force =     0.00000000    0.00000000    0.00000000
     atom    6 type  1   force =     0.00000000    0.00000000    0.00000000
     atom    7 type  2   force =     0.00000000    0.00000000    0.00000000
     atom    8 type  2   force =     0.00000000    0.00000000    0.00000000
     atom    9 type  1   force =     0.00000000    0.00000000    0.00000000
     atom   10 type  1   force =     0.00000000    0.00000000    0.00000000
     atom   11 type  2   force =     0.00000000    0.00000000    0.00000000
     atom   12 type  2   force =     0.00000000    0.00000000    0.00000000
     atom   13 type  1   force =     0.00000000    0.00000000    0.00000000
     atom   14 type  1   force =     0.00000000    0.00000000    0.00000000
     atom   15 type  2   force =     0.00000000    0.00000000    0.00000000
     atom   16 type  2   force =     0.00000000    0.00000000    0.00000000
     The SCF correction term to forces
     atom    1 type  1   force =    -0.00000362   -0.00000209   -0.00001021
     atom    2 type  1   force =    -0.00000208   -0.00000120   -0.00001645
     atom    3 type  2   force =     0.00000049    0.00000028   -0.00000140
     atom    4 type  2   force =    -0.00000022   -0.00000013   -0.00000323
     atom    5 type  1   force =    -0.00000473   -0.00000273   -0.00002782
     atom    6 type  1   force =     0.00000807    0.00000466   -0.00000700
     atom    7 type  2   force =    -0.00000027   -0.00000016   -0.00000671
     atom    8 type  2   force =    -0.00000130   -0.00000075   -0.00001377
     atom    9 type  1   force =     0.00000214    0.00000124   -0.00001732
     atom   10 type  1   force =    -0.00000001   -0.00000000   -0.00001066
     atom   11 type  2   force =     0.00000064    0.00000037   -0.00000234
     atom   12 type  2   force =    -0.00000024   -0.00000014   -0.00000461
     atom   13 type  1   force =     0.00000700    0.00000404   -0.00002286
     atom   14 type  1   force =    -0.00000788   -0.00000455   -0.00000989
     atom   15 type  2   force =     0.00000260    0.00000150   -0.00000764
     atom   16 type  2   force =    -0.00000023   -0.00000013   -0.00001365

     Total force =     0.122893     Total SCF correction =     0.000055

     init_run     :     10.70s CPU     11.02s WALL (       1 calls)
     electrons    :    634.08s CPU    650.35s WALL (       1 calls)
     forces       :      4.23s CPU      4.25s WALL (       1 calls)

     Called by init_run:
     wfcinit      :      5.76s CPU      5.99s WALL (       1 calls)
     wfcinit:atom :      0.03s CPU      0.03s WALL (      10 calls)
     wfcinit:wfcr :      5.43s CPU      5.65s WALL (      10 calls)
     potinit      :      1.54s CPU      1.57s WALL (       1 calls)
     hinit0       :      3.06s CPU      3.08s WALL (       1 calls)

     Called by electrons:
     c_bands      :    568.49s CPU    582.14s WALL (      31 calls)
     sum_band     :     53.89s CPU     56.14s WALL (      31 calls)
     v_of_rho     :      6.04s CPU      6.24s WALL (      32 calls)
     v_h          :      0.27s CPU      0.29s WALL (      32 calls)
     v_xc         :      5.88s CPU      6.06s WALL (      33 calls)
     newd         :      4.72s CPU      4.80s WALL (      32 calls)
     mix_rho      :      0.63s CPU      0.67s WALL (      31 calls)

     Called by c_bands:
     init_us_2    :      4.46s CPU      4.49s WALL (     640 calls)
     init_us_2:cp :      4.45s CPU      4.49s WALL (     640 calls)
     cegterg      :    486.90s CPU    500.45s WALL (     310 calls)

     Called by sum_band:
     sum_band:wei :      0.02s CPU      0.02s WALL (      31 calls)
     sum_band:loo :     47.89s CPU     49.89s WALL (      31 calls)
     sum_band:buf :      0.34s CPU      0.36s WALL (     310 calls)
     sum_band:ini :      1.52s CPU      1.53s WALL (     310 calls)
     sum_band:cal :     10.65s CPU     10.75s WALL (     310 calls)
     sum_band:bec :      0.13s CPU      0.13s WALL (     310 calls)
     addusdens    :      4.26s CPU      4.33s WALL (      31 calls)
     addusd:skk   :      0.08s CPU      0.08s WALL (      62 calls)
     addusd:dgemm :      0.61s CPU      0.62s WALL (      62 calls)
     addusd:qvan2 :      3.22s CPU      3.23s WALL (      62 calls)

     Called by *egterg:
     cdiaghg      :     35.59s CPU     36.44s WALL (    1778 calls)
     cegterg:over :     43.08s CPU     43.25s WALL (    1468 calls)
     cegterg:upda :     23.20s CPU     23.33s WALL (    1468 calls)
     cegterg:last :     48.94s CPU     49.19s WALL (     950 calls)
     cdiaghg:chol :      1.97s CPU      1.98s WALL (    1778 calls)
     cdiaghg:inve :      0.54s CPU      0.54s WALL (    1778 calls)
     cdiaghg:para :      5.55s CPU      6.24s WALL (    3556 calls)
     h_psi        :    296.11s CPU    308.36s WALL (    1788 calls)
     s_psi        :     31.64s CPU     31.66s WALL (    1788 calls)
     g_psi        :      1.23s CPU      1.24s WALL (    1468 calls)

     Called by h_psi:
     h_psi:calbec :     39.11s CPU     39.49s WALL (    1788 calls)
     vloc_psi     :    224.04s CPU    235.88s WALL (    1788 calls)
     add_vuspsi   :     31.95s CPU     31.97s WALL (    1788 calls)

     General routines
     calbec       :     51.19s CPU     51.68s WALL (    2138 calls)
     fft          :      3.10s CPU      3.39s WALL (     425 calls)
     ffts         :      0.36s CPU      0.37s WALL (      63 calls)
     fftw         :    224.88s CPU    237.48s WALL (  172490 calls)
     interpolate  :      0.46s CPU      0.49s WALL (      32 calls)

     Parallel routines

     PWSCF        :  10m49.99s CPU  11m 6.63s WALL


   This run was terminated on:  22:57:11  28Aug2025            

=------------------------------------------------------------------------------=
   JOB DONE.
=------------------------------------------------------------------------------=
Note: The following floating-point exceptions are signalling: IEEE_UNDERFLOW_FLAG IEEE_DENORMAL
Note: The following floating-point exceptions are signalling: IEEE_UNDERFLOW_FLAG IEEE_DENORMAL
Note: The following floating-point exceptions are signalling: IEEE_UNDERFLOW_FLAG IEEE_DENORMAL
Note: The following floating-point exceptions are signalling: IEEE_UNDERFLOW_FLAG IEEE_DENORMAL
Note: The following floating-point exceptions are signalling: IEEE_UNDERFLOW_FLAG IEEE_DENORMAL
Note: The following floating-point exceptions are signalling: IEEE_UNDERFLOW_FLAG IEEE_DENORMAL
Note: The following floating-point exceptions are signalling: IEEE_UNDERFLOW_FLAG IEEE_DENORMAL
Note: The following floating-point exceptions are signalling: IEEE_UNDERFLOW_FLAG IEEE_DENORMAL
Note: The following floating-point exceptions are signalling: IEEE_UNDERFLOW_FLAG IEEE_DENORMAL
Note: The following floating-point exceptions are signalling: IEEE_UNDERFLOW_FLAG IEEE_DENORMAL
Note: The following floating-point exceptions are signalling: IEEE_UNDERFLOW_FLAG IEEE_DENORMAL
Note: The following floating-point exceptions are signalling: IEEE_UNDERFLOW_FLAG IEEE_DENORMAL
Note: The following floating-point exceptions are signalling: IEEE_UNDERFLOW_FLAG IEEE_DENORMAL
Note: The following floating-point exceptions are signalling: IEEE_UNDERFLOW_FLAG IEEE_DENORMAL
Note: The following floating-point exceptions are signalling: IEEE_UNDERFLOW_FLAG IEEE_DENORMAL
Note: The following floating-point exceptions are signalling: IEEE_UNDERFLOW_FLAG IEEE_DENORMAL
Note: The following floating-point exceptions are signalling: IEEE_UNDERFLOW_FLAG IEEE_DENORMAL
Note: The following floating-point exceptions are signalling: IEEE_UNDERFLOW_FLAG IEEE_DENORMAL
Note: The following floating-point exceptions are signalling: IEEE_UNDERFLOW_FLAG IEEE_DENORMAL
Note: The following floating-point exceptions are signalling: IEEE_UNDERFLOW_FLAG IEEE_DENORMAL
Note: The following floating-point exceptions are signalling: IEEE_UNDERFLOW_FLAG IEEE_DENORMAL
Note: The following floating-point exceptions are signalling: IEEE_UNDERFLOW_FLAG IEEE_DENORMAL
Note: The following floating-point exceptions are signalling: IEEE_UNDERFLOW_FLAG IEEE_DENORMAL
Note: The following floating-point exceptions are signalling: IEEE_UNDERFLOW_FLAG IEEE_DENORMAL
Note: The following floating-point exceptions are signalling: IEEE_UNDERFLOW_FLAG IEEE_DENORMAL
Note: The following floating-point exceptions are signalling: IEEE_UNDERFLOW_FLAG IEEE_DENORMAL
Note: The following floating-point exceptions are signalling: IEEE_UNDERFLOW_FLAG IEEE_DENORMAL
Note: The following floating-point exceptions are signalling: IEEE_UNDERFLOW_FLAG IEEE_DENORMAL
Note: The following floating-point exceptions are signalling: IEEE_UNDERFLOW_FLAG IEEE_DENORMAL
Note: The following floating-point exceptions are signalling: IEEE_UNDERFLOW_FLAG IEEE_DENORMAL
Note: The following floating-point exceptions are signalling: IEEE_UNDERFLOW_FLAG IEEE_DENORMAL
Note: The following floating-point exceptions are signalling: IEEE_UNDERFLOW_FLAG IEEE_DENORMAL
