
     Program PWSCF v.7.0 starts on 29Aug2025 at  7:46: 1 

     This program is part of the open-source Quantum ESPRESSO suite
     for quantum simulation of materials; please cite
         "P. Giannozzi et al., J. Phys.:Condens. Matter 21 395502 (2009);
         "P. Giannozzi et al., J. Phys.:Condens. Matter 29 465901 (2017);
         "P. Giannozzi et al., J. Chem. Phys. 152 154105 (2020);
          URL http://www.quantum-espresso.org", 
     in publications or presentations arising from this work. More details at
     http://www.quantum-espresso.org/quote

     Parallel version (MPI & OpenMP), running on      32 processor cores
     Number of MPI processes:                32
     Threads/MPI process:                     1

     MPI processes distributed on     1 nodes
     K-points division:     npool     =       8
     R & G space division:  proc/nbgrp/npool/nimage =       4
     104679 MiB available memory on the printing compute node when the environment starts

     Reading input from /home/jvc/QEspresso7.2/ZnO_database/scripts/cell212.in/ZnO-3.34-1.71-212.in
Warning: card &CELL ignored
Warning: card / ignored
Warning: card &FCP ignored
Warning: card / ignored
Warning: card &RISM ignored
Warning: card / ignored

     Current dimensions of program PWSCF are:
     Max number of different atomic species (ntypx) = 10
     Max number of k-points (npk) =  40000
     Max angular momentum in pseudopotentials (lmaxx) =  4
     file Zn.upf: wavefunction(s)  3D renormalized
     Found identity + (  0.0000  0.0000 -0.5000) symmetry
     This is a supercell, fractional translations are disabled
     Message from routine setup:
     using ibrav=0 with symmetry is DISCOURAGED, use correct ibrav instead

     Subspace diagonalization in iterative solution of the eigenvalue problem:
     one sub-group per band group will be used
     scalapack distributed-memory algorithm (size of sub-group:  2*  2 procs)


     Parallelization info
     --------------------
     sticks:   dense  smooth     PW     G-vecs:    dense   smooth      PW
     Min         548     274     83                50110    17720    3017
     Max         549     275     84                50115    17724    3024
     Sum        2193    1097    333               200445    70889   12077

     Using Slab Decomposition



     bravais-lattice index     =            0
     lattice parameter (alat)  =      12.6049  a.u.
     unit-cell volume          =    1483.9550 (a.u.)^3
     number of atoms/cell      =           16
     number of atomic types    =            2
     number of electrons       =       144.00
     number of Kohn-Sham states=           72
     kinetic-energy cutoff     =      50.0000  Ry
     charge density cutoff     =     400.0000  Ry
     scf convergence threshold =      1.0E-08
     mixing beta               =       0.3000
     number of iterations used =            8  plain     mixing
     Exchange-correlation= PBE
                           (   1   4   3   4   0   0   0)

     celldm(1)=  12.604862  celldm(2)=   0.000000  celldm(3)=   0.000000
     celldm(4)=   0.000000  celldm(5)=   0.000000  celldm(6)=   0.000000

     crystal axes: (cart. coord. in units of alat)
               a(1) = (   1.000000   0.000000   0.000000 )  
               a(2) = (  -0.250000   0.433013   0.000000 )  
               a(3) = (   0.000000   0.000000   1.711220 )  

     reciprocal axes: (cart. coord. in units 2 pi/alat)
               b(1) = (  1.000000  0.577350 -0.000000 )  
               b(2) = (  0.000000  2.309401  0.000000 )  
               b(3) = (  0.000000 -0.000000  0.584378 )  


     PseudoPot. # 1 for Zn read from file:
     /home/jvc/QEspresso7.2/ZnO_database/pseudos/Zn.upf
     MD5 check sum: 7f56cabf9682ed8c977c2f7d0c5985c5
     Pseudo is Ultrasoft + core correction, Zval = 12.0
     Generated using &quot;atomic&quot; code by A. Dal Corso  v.6.2.2
     Using radial grid of 1201 points,  6 beta functions with: 
                l(1) =   0
                l(2) =   0
                l(3) =   1
                l(4) =   1
                l(5) =   2
                l(6) =   2
     Q(r) pseudized with 0 coefficients 


     PseudoPot. # 2 for O  read from file:
     /home/jvc/QEspresso7.2/ZnO_database/pseudos/O.upf
     MD5 check sum: 91400c9766925bcf19f520983a725ff0
     Pseudo is Ultrasoft + core correction, Zval =  6.0
     Generated using &quot;atomic&quot; code by A. Dal Corso  v.6.3MaX
     Using radial grid of 1095 points,  4 beta functions with: 
                l(1) =   0
                l(2) =   0
                l(3) =   1
                l(4) =   1
     Q(r) pseudized with 0 coefficients 


     atomic species   valence    mass     pseudopotential
        Zn            12.00    65.38000     Zn( 1.00)
        O              6.00    15.99900     O ( 1.00)

      2 Sym. Ops. (no inversion) found


                                    s                        frac. trans.

      isym =  1     identity                                     

 cryst.   s( 1) = (     1          0          0      )
                  (     0          1          0      )
                  (     0          0          1      )

 cart.    s( 1) = (  1.0000000  0.0000000  0.0000000 )
                  (  0.0000000  1.0000000  0.0000000 )
                  (  0.0000000  0.0000000  1.0000000 )


      isym =  2     inv. 180 deg rotation - cryst. axis [0,1,0]  

 cryst.   s( 2) = (     1          2          0      )
                  (     0         -1          0      )
                  (     0          0          1      )

 cart.    s( 2) = (  0.5000000  0.8660254  0.0000000 )
                  (  0.8660254 -0.5000000  0.0000000 )
                  (  0.0000000  0.0000000  1.0000000 )


   Cartesian axes

     site n.     atom                  positions (alat units)
         1           Zn  tau(   1) = (   0.2500000   0.1443376   0.4283471  )
         2           Zn  tau(   2) = (  -0.0000000   0.2886751   0.0005421  )
         3           O   tau(   3) = (   0.2500000   0.1443376   0.7526599  )
         4           O   tau(   4) = (  -0.0000000   0.2886751   0.3248549  )
         5           Zn  tau(   5) = (   0.2500000   0.1443376   1.2839570  )
         6           Zn  tau(   6) = (  -0.0000000   0.2886751   0.8561520  )
         7           O   tau(   7) = (   0.2500000   0.1443376   1.6082698  )
         8           O   tau(   8) = (  -0.0000000   0.2886751   1.1804648  )
         9           Zn  tau(   9) = (   0.7500000   0.1443376   0.4283471  )
        10           Zn  tau(  10) = (   0.5000000   0.2886751   0.0005421  )
        11           O   tau(  11) = (   0.7500000   0.1443376   0.7526599  )
        12           O   tau(  12) = (   0.5000000   0.2886751   0.3248549  )
        13           Zn  tau(  13) = (   0.7500000   0.1443376   1.2839570  )
        14           Zn  tau(  14) = (   0.5000000   0.2886751   0.8561520  )
        15           O   tau(  15) = (   0.7500000   0.1443376   1.6082698  )
        16           O   tau(  16) = (   0.5000000   0.2886751   1.1804648  )

   Crystallographic axes

     site n.     atom                  positions (cryst. coord.)
         1           Zn  tau(   1) = (  0.3333333  0.3333333  0.2503168  )
         2           Zn  tau(   2) = (  0.1666667  0.6666667  0.0003168  )
         3           O   tau(   3) = (  0.3333333  0.3333333  0.4398382  )
         4           O   tau(   4) = (  0.1666667  0.6666667  0.1898382  )
         5           Zn  tau(   5) = (  0.3333333  0.3333333  0.7503168  )
         6           Zn  tau(   6) = (  0.1666667  0.6666667  0.5003168  )
         7           O   tau(   7) = (  0.3333333  0.3333333  0.9398382  )
         8           O   tau(   8) = (  0.1666667  0.6666667  0.6898382  )
         9           Zn  tau(   9) = (  0.8333333  0.3333333  0.2503168  )
        10           Zn  tau(  10) = (  0.6666667  0.6666667  0.0003168  )
        11           O   tau(  11) = (  0.8333333  0.3333333  0.4398382  )
        12           O   tau(  12) = (  0.6666667  0.6666667  0.1898382  )
        13           Zn  tau(  13) = (  0.8333333  0.3333333  0.7503168  )
        14           Zn  tau(  14) = (  0.6666667  0.6666667  0.5003168  )
        15           O   tau(  15) = (  0.8333333  0.3333333  0.9398382  )
        16           O   tau(  16) = (  0.6666667  0.6666667  0.6898382  )

     number of k points=    80
                       cart. coord. in units 2pi/alat
        k(    1) = (   0.0000000   0.0000000   0.0000000), wk =   0.0092593
        k(    2) = (   0.0000000   0.0000000   0.0973964), wk =   0.0185185
        k(    3) = (   0.0000000   0.0000000   0.1947928), wk =   0.0185185
        k(    4) = (   0.0000000   0.0000000  -0.2921892), wk =   0.0092593
        k(    5) = (   0.0000000   0.3849002   0.0000000), wk =   0.0370370
        k(    6) = (   0.0000000   0.3849002   0.0973964), wk =   0.0370370
        k(    7) = (   0.0000000   0.3849002   0.1947928), wk =   0.0370370
        k(    8) = (   0.0000000   0.3849002  -0.2921892), wk =   0.0370370
        k(    9) = (   0.0000000   0.7698004   0.0000000), wk =   0.0370370
        k(   10) = (   0.0000000   0.7698004   0.0973964), wk =   0.0370370
        k(   11) = (   0.0000000   0.7698004   0.1947928), wk =   0.0370370
        k(   12) = (   0.0000000   0.7698004  -0.2921892), wk =   0.0370370
        k(   13) = (   0.0000000  -1.1547005   0.0000000), wk =   0.0092593
        k(   14) = (   0.0000000  -1.1547005   0.0973964), wk =   0.0185185
        k(   15) = (   0.0000000  -1.1547005   0.1947928), wk =   0.0185185
        k(   16) = (   0.0000000  -1.1547005  -0.2921892), wk =   0.0092593
        k(   17) = (   0.1666667   0.0962250   0.0000000), wk =   0.0185185
        k(   18) = (   0.1666667   0.0962250   0.0973964), wk =   0.0185185
        k(   19) = (   0.1666667   0.0962250   0.1947928), wk =   0.0185185
        k(   20) = (   0.1666667   0.0962250  -0.2921892), wk =   0.0185185
        k(   21) = (   0.1666667   0.4811252   0.0000000), wk =   0.0370370
        k(   22) = (   0.1666667   0.4811252   0.0973964), wk =   0.0370370
        k(   23) = (   0.1666667   0.4811252   0.1947928), wk =   0.0370370
        k(   24) = (   0.1666667   0.4811252  -0.2921892), wk =   0.0370370
        k(   25) = (   0.1666667   0.8660254   0.0000000), wk =   0.0185185
        k(   26) = (   0.1666667   0.8660254   0.0973964), wk =   0.0370370
        k(   27) = (   0.1666667   0.8660254   0.1947928), wk =   0.0370370
        k(   28) = (   0.1666667   0.8660254  -0.2921892), wk =   0.0185185
        k(   29) = (   0.1666667  -1.0584755   0.0000000), wk =   0.0185185
        k(   30) = (   0.1666667  -1.0584755   0.0973964), wk =   0.0185185
        k(   31) = (   0.1666667  -1.0584755   0.1947928), wk =   0.0185185
        k(   32) = (   0.1666667  -1.0584755  -0.2921892), wk =   0.0185185
        k(   33) = (   0.1666667  -0.6735753   0.0000000), wk =   0.0370370
        k(   34) = (   0.1666667  -0.6735753   0.0973964), wk =   0.0370370
        k(   35) = (   0.1666667  -0.6735753   0.1947928), wk =   0.0370370
        k(   36) = (   0.1666667  -0.6735753  -0.2921892), wk =   0.0370370
        k(   37) = (   0.1666667  -0.2886751   0.0000000), wk =   0.0185185
        k(   38) = (   0.1666667  -0.2886751   0.0973964), wk =   0.0370370
        k(   39) = (   0.1666667  -0.2886751   0.1947928), wk =   0.0370370
        k(   40) = (   0.1666667  -0.2886751  -0.2921892), wk =   0.0185185
        k(   41) = (   0.3333333   0.1924501   0.0000000), wk =   0.0185185
        k(   42) = (   0.3333333   0.1924501   0.0973964), wk =   0.0185185
        k(   43) = (   0.3333333   0.1924501   0.1947928), wk =   0.0185185
        k(   44) = (   0.3333333   0.1924501  -0.2921892), wk =   0.0185185
        k(   45) = (   0.3333333   0.5773503   0.0000000), wk =   0.0185185
        k(   46) = (   0.3333333   0.5773503   0.0973964), wk =   0.0370370
        k(   47) = (   0.3333333   0.5773503   0.1947928), wk =   0.0370370
        k(   48) = (   0.3333333   0.5773503  -0.2921892), wk =   0.0185185
        k(   49) = (   0.3333333  -0.9622504   0.0000000), wk =   0.0185185
        k(   50) = (   0.3333333  -0.9622504   0.0973964), wk =   0.0185185
        k(   51) = (   0.3333333  -0.9622504   0.1947928), wk =   0.0185185
        k(   52) = (   0.3333333  -0.9622504  -0.2921892), wk =   0.0185185
        k(   53) = (   0.3333333  -0.5773503   0.0000000), wk =   0.0185185
        k(   54) = (   0.3333333  -0.5773503   0.0973964), wk =   0.0370370
        k(   55) = (   0.3333333  -0.5773503   0.1947928), wk =   0.0370370
        k(   56) = (   0.3333333  -0.5773503  -0.2921892), wk =   0.0185185
        k(   57) = (  -0.5000000  -0.2886751   0.0000000), wk =   0.0092593
        k(   58) = (  -0.5000000  -0.2886751   0.0973964), wk =   0.0185185
        k(   59) = (  -0.5000000  -0.2886751   0.1947928), wk =   0.0185185
        k(   60) = (  -0.5000000  -0.2886751  -0.2921892), wk =   0.0092593
        k(   61) = (  -0.5000000  -1.4433757   0.0000000), wk =   0.0092593
        k(   62) = (  -0.5000000  -1.4433757   0.0973964), wk =   0.0185185
        k(   63) = (  -0.5000000  -1.4433757   0.1947928), wk =   0.0185185
        k(   64) = (  -0.5000000  -1.4433757  -0.2921892), wk =   0.0092593
        k(   65) = (   0.3333333  -0.1924501  -0.0973964), wk =   0.0370370
        k(   66) = (   0.3333333  -0.1924501  -0.1947928), wk =   0.0370370
        k(   67) = (   0.6666667  -0.3849002  -0.0973964), wk =   0.0370370
        k(   68) = (   0.6666667  -0.3849002  -0.1947928), wk =   0.0370370
        k(   69) = (   0.1666667   0.0962250  -0.0973964), wk =   0.0185185
        k(   70) = (   0.1666667   0.0962250  -0.1947928), wk =   0.0185185
        k(   71) = (   0.5000000  -0.0962250  -0.0973964), wk =   0.0370370
        k(   72) = (   0.5000000  -0.0962250  -0.1947928), wk =   0.0370370
        k(   73) = (  -0.8333333   0.6735753  -0.0973964), wk =   0.0185185
        k(   74) = (  -0.8333333   0.6735753  -0.1947928), wk =   0.0185185
        k(   75) = (  -0.5000000   0.4811252  -0.0973964), wk =   0.0370370
        k(   76) = (  -0.5000000   0.4811252  -0.1947928), wk =   0.0370370
        k(   77) = (   0.3333333   0.1924501  -0.0973964), wk =   0.0185185
        k(   78) = (   0.3333333   0.1924501  -0.1947928), wk =   0.0185185
        k(   79) = (  -0.6666667   0.7698004  -0.0973964), wk =   0.0185185
        k(   80) = (  -0.6666667   0.7698004  -0.1947928), wk =   0.0185185

                       cryst. coord.
        k(    1) = (   0.0000000   0.0000000   0.0000000), wk =   0.0092593
        k(    2) = (   0.0000000   0.0000000   0.1666667), wk =   0.0185185
        k(    3) = (   0.0000000   0.0000000   0.3333333), wk =   0.0185185
        k(    4) = (   0.0000000   0.0000000  -0.5000000), wk =   0.0092593
        k(    5) = (   0.0000000   0.1666667   0.0000000), wk =   0.0370370
        k(    6) = (   0.0000000   0.1666667   0.1666667), wk =   0.0370370
        k(    7) = (   0.0000000   0.1666667   0.3333333), wk =   0.0370370
        k(    8) = (   0.0000000   0.1666667  -0.5000000), wk =   0.0370370
        k(    9) = (   0.0000000   0.3333333   0.0000000), wk =   0.0370370
        k(   10) = (   0.0000000   0.3333333   0.1666667), wk =   0.0370370
        k(   11) = (   0.0000000   0.3333333   0.3333333), wk =   0.0370370
        k(   12) = (   0.0000000   0.3333333  -0.5000000), wk =   0.0370370
        k(   13) = (   0.0000000  -0.5000000   0.0000000), wk =   0.0092593
        k(   14) = (   0.0000000  -0.5000000   0.1666667), wk =   0.0185185
        k(   15) = (   0.0000000  -0.5000000   0.3333333), wk =   0.0185185
        k(   16) = (   0.0000000  -0.5000000  -0.5000000), wk =   0.0092593
        k(   17) = (   0.1666667   0.0000000   0.0000000), wk =   0.0185185
        k(   18) = (   0.1666667   0.0000000   0.1666667), wk =   0.0185185
        k(   19) = (   0.1666667   0.0000000   0.3333333), wk =   0.0185185
        k(   20) = (   0.1666667   0.0000000  -0.5000000), wk =   0.0185185
        k(   21) = (   0.1666667   0.1666667   0.0000000), wk =   0.0370370
        k(   22) = (   0.1666667   0.1666667   0.1666667), wk =   0.0370370
        k(   23) = (   0.1666667   0.1666667   0.3333333), wk =   0.0370370
        k(   24) = (   0.1666667   0.1666667  -0.5000000), wk =   0.0370370
        k(   25) = (   0.1666667   0.3333333   0.0000000), wk =   0.0185185
        k(   26) = (   0.1666667   0.3333333   0.1666667), wk =   0.0370370
        k(   27) = (   0.1666667   0.3333333   0.3333333), wk =   0.0370370
        k(   28) = (   0.1666667   0.3333333  -0.5000000), wk =   0.0185185
        k(   29) = (   0.1666667  -0.5000000   0.0000000), wk =   0.0185185
        k(   30) = (   0.1666667  -0.5000000   0.1666667), wk =   0.0185185
        k(   31) = (   0.1666667  -0.5000000   0.3333333), wk =   0.0185185
        k(   32) = (   0.1666667  -0.5000000  -0.5000000), wk =   0.0185185
        k(   33) = (   0.1666667  -0.3333333   0.0000000), wk =   0.0370370
        k(   34) = (   0.1666667  -0.3333333   0.1666667), wk =   0.0370370
        k(   35) = (   0.1666667  -0.3333333   0.3333333), wk =   0.0370370
        k(   36) = (   0.1666667  -0.3333333  -0.5000000), wk =   0.0370370
        k(   37) = (   0.1666667  -0.1666667   0.0000000), wk =   0.0185185
        k(   38) = (   0.1666667  -0.1666667   0.1666667), wk =   0.0370370
        k(   39) = (   0.1666667  -0.1666667   0.3333333), wk =   0.0370370
        k(   40) = (   0.1666667  -0.1666667  -0.5000000), wk =   0.0185185
        k(   41) = (   0.3333333   0.0000000   0.0000000), wk =   0.0185185
        k(   42) = (   0.3333333   0.0000000   0.1666667), wk =   0.0185185
        k(   43) = (   0.3333333   0.0000000   0.3333333), wk =   0.0185185
        k(   44) = (   0.3333333   0.0000000  -0.5000000), wk =   0.0185185
        k(   45) = (   0.3333333   0.1666667   0.0000000), wk =   0.0185185
        k(   46) = (   0.3333333   0.1666667   0.1666667), wk =   0.0370370
        k(   47) = (   0.3333333   0.1666667   0.3333333), wk =   0.0370370
        k(   48) = (   0.3333333   0.1666667  -0.5000000), wk =   0.0185185
        k(   49) = (   0.3333333  -0.5000000   0.0000000), wk =   0.0185185
        k(   50) = (   0.3333333  -0.5000000   0.1666667), wk =   0.0185185
        k(   51) = (   0.3333333  -0.5000000   0.3333333), wk =   0.0185185
        k(   52) = (   0.3333333  -0.5000000  -0.5000000), wk =   0.0185185
        k(   53) = (   0.3333333  -0.3333333   0.0000000), wk =   0.0185185
        k(   54) = (   0.3333333  -0.3333333   0.1666667), wk =   0.0370370
        k(   55) = (   0.3333333  -0.3333333   0.3333333), wk =   0.0370370
        k(   56) = (   0.3333333  -0.3333333  -0.5000000), wk =   0.0185185
        k(   57) = (  -0.5000000   0.0000000   0.0000000), wk =   0.0092593
        k(   58) = (  -0.5000000   0.0000000   0.1666667), wk =   0.0185185
        k(   59) = (  -0.5000000   0.0000000   0.3333333), wk =   0.0185185
        k(   60) = (  -0.5000000   0.0000000  -0.5000000), wk =   0.0092593
        k(   61) = (  -0.5000000  -0.5000000   0.0000000), wk =   0.0092593
        k(   62) = (  -0.5000000  -0.5000000   0.1666667), wk =   0.0185185
        k(   63) = (  -0.5000000  -0.5000000   0.3333333), wk =   0.0185185
        k(   64) = (  -0.5000000  -0.5000000  -0.5000000), wk =   0.0092593
        k(   65) = (   0.3333333  -0.1666667  -0.1666667), wk =   0.0370370
        k(   66) = (   0.3333333  -0.1666667  -0.3333333), wk =   0.0370370
        k(   67) = (   0.6666667  -0.3333333  -0.1666667), wk =   0.0370370
        k(   68) = (   0.6666667  -0.3333333  -0.3333333), wk =   0.0370370
        k(   69) = (   0.1666667   0.0000000  -0.1666667), wk =   0.0185185
        k(   70) = (   0.1666667   0.0000000  -0.3333333), wk =   0.0185185
        k(   71) = (   0.5000000  -0.1666667  -0.1666667), wk =   0.0370370
        k(   72) = (   0.5000000  -0.1666667  -0.3333333), wk =   0.0370370
        k(   73) = (  -0.8333333   0.5000000  -0.1666667), wk =   0.0185185
        k(   74) = (  -0.8333333   0.5000000  -0.3333333), wk =   0.0185185
        k(   75) = (  -0.5000000   0.3333333  -0.1666667), wk =   0.0370370
        k(   76) = (  -0.5000000   0.3333333  -0.3333333), wk =   0.0370370
        k(   77) = (   0.3333333   0.0000000  -0.1666667), wk =   0.0185185
        k(   78) = (   0.3333333   0.0000000  -0.3333333), wk =   0.0185185
        k(   79) = (  -0.6666667   0.5000000  -0.1666667), wk =   0.0185185
        k(   80) = (  -0.6666667   0.5000000  -0.3333333), wk =   0.0185185

     Dense  grid:   200445 G-vectors     FFT dimensions: (  81,  45, 144)

     Smooth grid:    70889 G-vectors     FFT dimensions: (  60,  30, 100)

     Dynamical RAM for                 wfc:       2.43 MB

     Dynamical RAM for     wfc (w. buffer):      26.77 MB

     Dynamical RAM for           str. fact:       1.53 MB

     Dynamical RAM for           local pot:       0.00 MB

     Dynamical RAM for          nlocal pot:       7.03 MB

     Dynamical RAM for                qrad:       3.21 MB

     Dynamical RAM for          rho,v,vnew:       5.30 MB

     Dynamical RAM for               rhoin:       1.77 MB

     Dynamical RAM for            rho*nmix:      12.23 MB

     Dynamical RAM for           G-vectors:       3.00 MB

     Dynamical RAM for          h,s,v(r/c):       0.24 MB

     Dynamical RAM for          <psi|beta>:       0.23 MB

     Dynamical RAM for                 psi:       4.87 MB

     Dynamical RAM for                hpsi:       4.87 MB

     Dynamical RAM for                spsi:       4.87 MB

     Dynamical RAM for      wfcinit/wfcrot:       7.28 MB

     Dynamical RAM for           addusdens:      19.21 MB

     Dynamical RAM for          addusforce:      20.29 MB

     Estimated static dynamical RAM per process >      55.90 MB

     Estimated max dynamical RAM per process >      88.43 MB

     Estimated total dynamical RAM >       2.43 GB

     Check: negative core charge=   -0.000002

     Initial potential from superposition of free atoms

     starting charge     143.9702, renormalised to     144.0000
     Starting wfcs are  104 randomized atomic wfcs

     total cpu time spent up to now is       12.9 secs

     per-process dynamical memory:    75.6 Mb

     Self-consistent Calculation

     iteration #  1     ecut=    50.00 Ry     beta= 0.30
     Davidson diagonalization with overlap

---- Real-time Memory Report at c_bands before calling an iterative solver
           103 MiB given to the printing process from OS
            73 MiB allocation reported by mallinfo(arena+hblkhd)
        102375 MiB available memory on the node where the printing process lives
------------------
     ethr =  1.00E-02,  avg # of iterations =  1.7

     total cpu time spent up to now is       27.6 secs

     total energy              =   -1445.77167152 Ry
     estimated scf accuracy    <       2.97728622 Ry

     iteration #  2     ecut=    50.00 Ry     beta= 0.30
     Davidson diagonalization with overlap

---- Real-time Memory Report at c_bands before calling an iterative solver
           122 MiB given to the printing process from OS
            91 MiB allocation reported by mallinfo(arena+hblkhd)
        101571 MiB available memory on the node where the printing process lives
------------------
     ethr =  2.07E-03,  avg # of iterations =  2.0

     total cpu time spent up to now is       46.4 secs

     total energy              =   -1446.23927495 Ry
     estimated scf accuracy    <       0.33354460 Ry

     iteration #  3     ecut=    50.00 Ry     beta= 0.30
     Davidson diagonalization with overlap

---- Real-time Memory Report at c_bands before calling an iterative solver
           123 MiB given to the printing process from OS
            92 MiB allocation reported by mallinfo(arena+hblkhd)
        101640 MiB available memory on the node where the printing process lives
------------------
     ethr =  2.32E-04,  avg # of iterations =  7.4

     total cpu time spent up to now is       79.1 secs

     total energy              =   -1446.31727635 Ry
     estimated scf accuracy    <       0.31216177 Ry

     iteration #  4     ecut=    50.00 Ry     beta= 0.30
     Davidson diagonalization with overlap

---- Real-time Memory Report at c_bands before calling an iterative solver
           123 MiB given to the printing process from OS
            92 MiB allocation reported by mallinfo(arena+hblkhd)
        101642 MiB available memory on the node where the printing process lives
------------------
     ethr =  2.17E-04,  avg # of iterations =  9.5

     total cpu time spent up to now is      121.7 secs

     total energy              =   -1446.54691169 Ry
     estimated scf accuracy    <       1.28596511 Ry

     iteration #  5     ecut=    50.00 Ry     beta= 0.30
     Davidson diagonalization with overlap

---- Real-time Memory Report at c_bands before calling an iterative solver
           124 MiB given to the printing process from OS
            93 MiB allocation reported by mallinfo(arena+hblkhd)
        101623 MiB available memory on the node where the printing process lives
------------------
     ethr =  2.17E-04,  avg # of iterations =  2.0

     total cpu time spent up to now is      136.9 secs

     total energy              =   -1446.08023048 Ry
     estimated scf accuracy    <       0.77488961 Ry

     iteration #  6     ecut=    50.00 Ry     beta= 0.30
     Davidson diagonalization with overlap

---- Real-time Memory Report at c_bands before calling an iterative solver
           125 MiB given to the printing process from OS
            93 MiB allocation reported by mallinfo(arena+hblkhd)
        101639 MiB available memory on the node where the printing process lives
------------------
     ethr =  2.17E-04,  avg # of iterations =  7.6

     total cpu time spent up to now is      170.7 secs

     total energy              =   -1446.51246655 Ry
     estimated scf accuracy    <       0.55828535 Ry

     iteration #  7     ecut=    50.00 Ry     beta= 0.30
     Davidson diagonalization with overlap

---- Real-time Memory Report at c_bands before calling an iterative solver
           125 MiB given to the printing process from OS
            94 MiB allocation reported by mallinfo(arena+hblkhd)
        101607 MiB available memory on the node where the printing process lives
------------------
     ethr =  2.17E-04,  avg # of iterations =  1.1

     total cpu time spent up to now is      184.7 secs

     total energy              =   -1446.47402305 Ry
     estimated scf accuracy    <       0.34813367 Ry

     iteration #  8     ecut=    50.00 Ry     beta= 0.30
     Davidson diagonalization with overlap

---- Real-time Memory Report at c_bands before calling an iterative solver
           126 MiB given to the printing process from OS
            94 MiB allocation reported by mallinfo(arena+hblkhd)
        101613 MiB available memory on the node where the printing process lives
------------------
     ethr =  2.17E-04,  avg # of iterations =  2.0

     total cpu time spent up to now is      200.6 secs

     total energy              =   -1446.49031701 Ry
     estimated scf accuracy    <       0.15564672 Ry

     iteration #  9     ecut=    50.00 Ry     beta= 0.30
     Davidson diagonalization with overlap

---- Real-time Memory Report at c_bands before calling an iterative solver
           126 MiB given to the printing process from OS
            95 MiB allocation reported by mallinfo(arena+hblkhd)
        101616 MiB available memory on the node where the printing process lives
------------------
     ethr =  1.08E-04,  avg # of iterations =  1.0

     total cpu time spent up to now is      213.9 secs

     total energy              =   -1446.47414893 Ry
     estimated scf accuracy    <       0.14309148 Ry

     iteration # 10     ecut=    50.00 Ry     beta= 0.30
     Davidson diagonalization with overlap

---- Real-time Memory Report at c_bands before calling an iterative solver
           127 MiB given to the printing process from OS
            96 MiB allocation reported by mallinfo(arena+hblkhd)
        101615 MiB available memory on the node where the printing process lives
------------------
     ethr =  9.94E-05,  avg # of iterations =  1.1

     total cpu time spent up to now is      227.5 secs

     total energy              =   -1446.46255779 Ry
     estimated scf accuracy    <       0.09351806 Ry

     iteration # 11     ecut=    50.00 Ry     beta= 0.30
     Davidson diagonalization with overlap

---- Real-time Memory Report at c_bands before calling an iterative solver
           127 MiB given to the printing process from OS
            96 MiB allocation reported by mallinfo(arena+hblkhd)
        101615 MiB available memory on the node where the printing process lives
------------------
     ethr =  6.49E-05,  avg # of iterations =  2.1

     total cpu time spent up to now is      243.2 secs

     total energy              =   -1446.45828581 Ry
     estimated scf accuracy    <       0.03980850 Ry

     iteration # 12     ecut=    50.00 Ry     beta= 0.30
     Davidson diagonalization with overlap

---- Real-time Memory Report at c_bands before calling an iterative solver
           127 MiB given to the printing process from OS
            96 MiB allocation reported by mallinfo(arena+hblkhd)
        101595 MiB available memory on the node where the printing process lives
------------------
     ethr =  2.76E-05,  avg # of iterations =  5.9

     total cpu time spent up to now is      266.1 secs

     total energy              =   -1446.47068447 Ry
     estimated scf accuracy    <       0.00031673 Ry

     iteration # 13     ecut=    50.00 Ry     beta= 0.30
     Davidson diagonalization with overlap

---- Real-time Memory Report at c_bands before calling an iterative solver
           127 MiB given to the printing process from OS
            96 MiB allocation reported by mallinfo(arena+hblkhd)
        101601 MiB available memory on the node where the printing process lives
------------------
     ethr =  2.20E-07,  avg # of iterations = 10.9

     total cpu time spent up to now is      310.7 secs

     total energy              =   -1446.47200622 Ry
     estimated scf accuracy    <       0.00023759 Ry

     iteration # 14     ecut=    50.00 Ry     beta= 0.30
     Davidson diagonalization with overlap

---- Real-time Memory Report at c_bands before calling an iterative solver
           127 MiB given to the printing process from OS
            96 MiB allocation reported by mallinfo(arena+hblkhd)
        101887 MiB available memory on the node where the printing process lives
------------------
     ethr =  1.65E-07,  avg # of iterations =  1.0

     total cpu time spent up to now is      326.6 secs

     total energy              =   -1446.47189075 Ry
     estimated scf accuracy    <       0.00020037 Ry

     iteration # 15     ecut=    50.00 Ry     beta= 0.30
     Davidson diagonalization with overlap

---- Real-time Memory Report at c_bands before calling an iterative solver
           127 MiB given to the printing process from OS
            96 MiB allocation reported by mallinfo(arena+hblkhd)
        101477 MiB available memory on the node where the printing process lives
------------------
     ethr =  1.39E-07,  avg # of iterations =  5.3

     total cpu time spent up to now is      353.6 secs

     total energy              =   -1446.47197171 Ry
     estimated scf accuracy    <       0.00005272 Ry

     iteration # 16     ecut=    50.00 Ry     beta= 0.30
     Davidson diagonalization with overlap

---- Real-time Memory Report at c_bands before calling an iterative solver
           127 MiB given to the printing process from OS
            96 MiB allocation reported by mallinfo(arena+hblkhd)
        101594 MiB available memory on the node where the printing process lives
------------------
     ethr =  3.66E-08,  avg # of iterations =  2.7

     total cpu time spent up to now is      370.7 secs

     total energy              =   -1446.47195168 Ry
     estimated scf accuracy    <       0.00003611 Ry

     iteration # 17     ecut=    50.00 Ry     beta= 0.30
     Davidson diagonalization with overlap

---- Real-time Memory Report at c_bands before calling an iterative solver
           127 MiB given to the printing process from OS
            96 MiB allocation reported by mallinfo(arena+hblkhd)
        101600 MiB available memory on the node where the printing process lives
------------------
     ethr =  2.51E-08,  avg # of iterations =  5.9

     total cpu time spent up to now is      398.8 secs

     total energy              =   -1446.47199461 Ry
     estimated scf accuracy    <       0.00001759 Ry

     iteration # 18     ecut=    50.00 Ry     beta= 0.30
     Davidson diagonalization with overlap

---- Real-time Memory Report at c_bands before calling an iterative solver
           127 MiB given to the printing process from OS
            96 MiB allocation reported by mallinfo(arena+hblkhd)
        101601 MiB available memory on the node where the printing process lives
------------------
     ethr =  1.22E-08,  avg # of iterations =  7.7

     total cpu time spent up to now is      432.8 secs

     total energy              =   -1446.47197182 Ry
     estimated scf accuracy    <       0.00017224 Ry

     iteration # 19     ecut=    50.00 Ry     beta= 0.30
     Davidson diagonalization with overlap

---- Real-time Memory Report at c_bands before calling an iterative solver
           127 MiB given to the printing process from OS
            96 MiB allocation reported by mallinfo(arena+hblkhd)
        101601 MiB available memory on the node where the printing process lives
------------------
     ethr =  1.22E-08,  avg # of iterations =  5.5

     total cpu time spent up to now is      456.3 secs

     total energy              =   -1446.47200320 Ry
     estimated scf accuracy    <       0.00006137 Ry

     iteration # 20     ecut=    50.00 Ry     beta= 0.30
     Davidson diagonalization with overlap

---- Real-time Memory Report at c_bands before calling an iterative solver
           127 MiB given to the printing process from OS
            96 MiB allocation reported by mallinfo(arena+hblkhd)
        101601 MiB available memory on the node where the printing process lives
------------------
     ethr =  1.22E-08,  avg # of iterations =  5.1

     total cpu time spent up to now is      477.7 secs

     total energy              =   -1446.47197922 Ry
     estimated scf accuracy    <       0.00013179 Ry

     iteration # 21     ecut=    50.00 Ry     beta= 0.30
     Davidson diagonalization with overlap

---- Real-time Memory Report at c_bands before calling an iterative solver
           127 MiB given to the printing process from OS
            96 MiB allocation reported by mallinfo(arena+hblkhd)
        101600 MiB available memory on the node where the printing process lives
------------------
     ethr =  1.22E-08,  avg # of iterations =  2.0

     total cpu time spent up to now is      495.0 secs

     total energy              =   -1446.47192596 Ry
     estimated scf accuracy    <       0.00008648 Ry

     iteration # 22     ecut=    50.00 Ry     beta= 0.30
     Davidson diagonalization with overlap

---- Real-time Memory Report at c_bands before calling an iterative solver
           127 MiB given to the printing process from OS
            96 MiB allocation reported by mallinfo(arena+hblkhd)
        101587 MiB available memory on the node where the printing process lives
------------------
     c_bands:  1 eigenvalues not converged
     ethr =  1.22E-08,  avg # of iterations = 11.2

     total cpu time spent up to now is      542.0 secs

     total energy              =   -1446.47196275 Ry
     estimated scf accuracy    <       0.00006684 Ry

     iteration # 23     ecut=    50.00 Ry     beta= 0.30
     Davidson diagonalization with overlap

---- Real-time Memory Report at c_bands before calling an iterative solver
           127 MiB given to the printing process from OS
            96 MiB allocation reported by mallinfo(arena+hblkhd)
        101584 MiB available memory on the node where the printing process lives
------------------
     ethr =  1.22E-08,  avg # of iterations =  5.7

     total cpu time spent up to now is      565.3 secs

     total energy              =   -1446.47196289 Ry
     estimated scf accuracy    <       0.00001060 Ry

     iteration # 24     ecut=    50.00 Ry     beta= 0.30
     Davidson diagonalization with overlap

---- Real-time Memory Report at c_bands before calling an iterative solver
           127 MiB given to the printing process from OS
            96 MiB allocation reported by mallinfo(arena+hblkhd)
        101589 MiB available memory on the node where the printing process lives
------------------
     ethr =  7.36E-09,  avg # of iterations =  5.7

     total cpu time spent up to now is      592.2 secs

     total energy              =   -1446.47196831 Ry
     estimated scf accuracy    <       0.00000104 Ry

     iteration # 25     ecut=    50.00 Ry     beta= 0.30
     Davidson diagonalization with overlap

---- Real-time Memory Report at c_bands before calling an iterative solver
           127 MiB given to the printing process from OS
            96 MiB allocation reported by mallinfo(arena+hblkhd)
        101589 MiB available memory on the node where the printing process lives
------------------
     ethr =  7.21E-10,  avg # of iterations =  6.5

     total cpu time spent up to now is      616.0 secs

     total energy              =   -1446.47196828 Ry
     estimated scf accuracy    <       0.00000224 Ry

     iteration # 26     ecut=    50.00 Ry     beta= 0.30
     Davidson diagonalization with overlap

---- Real-time Memory Report at c_bands before calling an iterative solver
           127 MiB given to the printing process from OS
            96 MiB allocation reported by mallinfo(arena+hblkhd)
        101589 MiB available memory on the node where the printing process lives
------------------
     ethr =  7.21E-10,  avg # of iterations =  1.2

     total cpu time spent up to now is      631.7 secs

     total energy              =   -1446.47196794 Ry
     estimated scf accuracy    <       0.00000132 Ry

     iteration # 27     ecut=    50.00 Ry     beta= 0.30
     Davidson diagonalization with overlap

---- Real-time Memory Report at c_bands before calling an iterative solver
           127 MiB given to the printing process from OS
            96 MiB allocation reported by mallinfo(arena+hblkhd)
        101589 MiB available memory on the node where the printing process lives
------------------
     ethr =  7.21E-10,  avg # of iterations =  3.4

     total cpu time spent up to now is      651.9 secs

     total energy              =   -1446.47196812 Ry
     estimated scf accuracy    <       0.00000013 Ry

     iteration # 28     ecut=    50.00 Ry     beta= 0.30
     Davidson diagonalization with overlap

---- Real-time Memory Report at c_bands before calling an iterative solver
           127 MiB given to the printing process from OS
            96 MiB allocation reported by mallinfo(arena+hblkhd)
        101589 MiB available memory on the node where the printing process lives
------------------
     ethr =  8.70E-11,  avg # of iterations =  6.4

     total cpu time spent up to now is      683.6 secs

     total energy              =   -1446.47196819 Ry
     estimated scf accuracy    <       0.00000001 Ry

     iteration # 29     ecut=    50.00 Ry     beta= 0.30
     Davidson diagonalization with overlap

---- Real-time Memory Report at c_bands before calling an iterative solver
           127 MiB given to the printing process from OS
            96 MiB allocation reported by mallinfo(arena+hblkhd)
        101589 MiB available memory on the node where the printing process lives
------------------
     ethr =  8.89E-12,  avg # of iterations =  6.2

     total cpu time spent up to now is      713.7 secs

     total energy              =   -1446.47196820 Ry
     estimated scf accuracy    <       0.00000001 Ry

     iteration # 30     ecut=    50.00 Ry     beta= 0.30
     Davidson diagonalization with overlap

---- Real-time Memory Report at c_bands before calling an iterative solver
           127 MiB given to the printing process from OS
            96 MiB allocation reported by mallinfo(arena+hblkhd)
        101574 MiB available memory on the node where the printing process lives
------------------
     ethr =  8.89E-12,  avg # of iterations =  5.4

     total cpu time spent up to now is      738.2 secs

     End of self-consistent calculation

          k = 0.0000 0.0000 0.0000 (  8863 PWs)   bands (ev):

   -11.7867 -11.5655 -11.5655 -11.3338 -11.2636 -11.1922 -11.1922 -11.1265
    -0.0051  -0.0051   0.0367   0.1006   0.1006   0.1110   0.1112   0.1625
     0.1625   0.1627   0.1627   0.1633   0.2346   0.2348   0.2420   0.3328
     0.4702   0.4918   0.4918   0.6496   0.6812   0.6843   0.6843   0.8263
     0.9555   0.9556   1.0225   1.0245   1.0245   1.0245   1.0245   1.0767
     1.0767   1.0797   1.0923   1.0923   1.1196   1.1514   1.1514   1.1845
     1.4467   1.6671   1.7505   1.7505   2.0796   2.9307   3.0262   3.0262
     3.6394   4.0355   4.0355   4.1292   4.1292   4.1989   4.5923   4.8061
     4.8067   5.0697   5.0697   5.0702   5.0702   5.1347   5.3300   5.3305

     occupation numbers 
     1.0000   1.0000   1.0000   1.0000   1.0000   1.0000   1.0000   1.0000
     1.0000   1.0000   1.0000   1.0000   1.0000   1.0000   1.0000   1.0000
     1.0000   1.0000   1.0000   1.0000   1.0000   1.0000   1.0000   1.0000
     1.0000   1.0000   1.0000   1.0000   1.0000   1.0000   1.0000   1.0000
     1.0000   1.0000   1.0000   1.0000   1.0000   1.0000   1.0000   1.0000
     1.0000   1.0000   1.0000   1.0000   1.0000   1.0000   1.0000   1.0000
     1.0000   1.0000   1.0000   1.0000   1.0000   1.0000   1.0000   1.0000
     1.0000   1.0000   1.0000   1.0000   1.0000   1.0000   1.0000   1.0000
     1.0000   1.0000   1.0000   1.0000   1.0000   1.0000   1.0000   1.0000

          k = 0.0000 0.0000 0.0974 (  8857 PWs)   bands (ev):

   -11.7793 -11.6237 -11.5066 -11.3419 -11.2611 -11.2102 -11.1746 -11.1287
    -0.0162   0.0245   0.0319   0.0964   0.1125   0.1128   0.1253   0.1473
     0.1475   0.1580   0.1791   0.1793   0.2262   0.2319   0.2321   0.3376
     0.4305   0.4480   0.5378   0.6496   0.6684   0.6742   0.7061   0.8174
     0.9585   0.9586   1.0083   1.0083   1.0301   1.0397   1.0397   1.0752
     1.0752   1.0800   1.0884   1.0972   1.1181   1.1314   1.1658   1.1841
     1.5238   1.6625   1.7033   1.8106   2.0623   2.6627   2.9862   3.4010
     3.6568   3.8330   4.0061   4.1809   4.2139   4.2506   4.5767   4.8152
     4.8157   4.9263   5.0018   5.0023   5.1374   5.1379   5.3212   5.3217

     occupation numbers 
     1.0000   1.0000   1.0000   1.0000   1.0000   1.0000   1.0000   1.0000
     1.0000   1.0000   1.0000   1.0000   1.0000   1.0000   1.0000   1.0000
     1.0000   1.0000   1.0000   1.0000   1.0000   1.0000   1.0000   1.0000
     1.0000   1.0000   1.0000   1.0000   1.0000   1.0000   1.0000   1.0000
     1.0000   1.0000   1.0000   1.0000   1.0000   1.0000   1.0000   1.0000
     1.0000   1.0000   1.0000   1.0000   1.0000   1.0000   1.0000   1.0000
     1.0000   1.0000   1.0000   1.0000   1.0000   1.0000   1.0000   1.0000
     1.0000   1.0000   1.0000   1.0000   1.0000   1.0000   1.0000   1.0000
     1.0000   1.0000   1.0000   1.0000   1.0000   1.0000   1.0000   1.0000

          k = 0.0000 0.0000 0.1948 (  8822 PWs)   bands (ev):

   -11.7576 -11.6774 -11.4510 -11.3655 -11.2538 -11.2273 -11.1586 -11.1350
    -0.0121   0.0187   0.0708   0.1073   0.1171   0.1173   0.1345   0.1347
     0.1443   0.1751   0.1841   0.1959   0.1961   0.2239   0.2241   0.3424
     0.3524   0.4089   0.5826   0.6501   0.6540   0.6582   0.7332   0.7942
     0.9663   0.9663   0.9923   0.9924   1.0505   1.0530   1.0530   1.0711
     1.0711   1.0809   1.0851   1.1028   1.1061   1.1141   1.1751   1.1830
     1.6550   1.6714   1.7242   1.8791   2.0154   2.3168   3.1383   3.5959
     3.7077   3.7835   3.8894   4.2477   4.2581   4.3626   4.5310   4.5590
     4.8417   4.8422   4.9383   4.9389   5.2003   5.2008   5.2954   5.2959

     occupation numbers 
     1.0000   1.0000   1.0000   1.0000   1.0000   1.0000   1.0000   1.0000
     1.0000   1.0000   1.0000   1.0000   1.0000   1.0000   1.0000   1.0000
     1.0000   1.0000   1.0000   1.0000   1.0000   1.0000   1.0000   1.0000
     1.0000   1.0000   1.0000   1.0000   1.0000   1.0000   1.0000   1.0000
     1.0000   1.0000   1.0000   1.0000   1.0000   1.0000   1.0000   1.0000
     1.0000   1.0000   1.0000   1.0000   1.0000   1.0000   1.0000   1.0000
     1.0000   1.0000   1.0000   1.0000   1.0000   1.0000   1.0000   1.0000
     1.0000   1.0000   1.0000   1.0000   1.0000   1.0000   1.0000   1.0000
     1.0000   1.0000   1.0000   1.0000   1.0000   1.0000   1.0000   1.0000

          k = 0.0000 0.0000-0.2922 (  8832 PWs)   bands (ev):

   -11.7229 -11.7229 -11.4028 -11.4028 -11.2422 -11.2422 -11.1452 -11.1452
     0.0019   0.0019   0.1244   0.1244   0.1246   0.1246   0.1254   0.1254
     0.1277   0.1277   0.2114   0.2114   0.2116   0.2116   0.2498   0.2498
     0.3764   0.3764   0.6224   0.6225   0.6524   0.6524   0.7638   0.7638
     0.9779   0.9779   0.9779   0.9779   1.0634   1.0634   1.0635   1.0635
     1.0777   1.0777   1.0826   1.0826   1.1086   1.1086   1.1804   1.1804
     1.6557   1.6557   1.9504   1.9504   1.9985   1.9985   3.3534   3.3534
     3.7874   3.7874   4.1710   4.1710   4.2729   4.2729   4.4580   4.4580
     4.8837   4.8837   4.8842   4.8842   5.2541   5.2541   5.2547   5.2547

     occupation numbers 
     1.0000   1.0000   1.0000   1.0000   1.0000   1.0000   1.0000   1.0000
     1.0000   1.0000   1.0000   1.0000   1.0000   1.0000   1.0000   1.0000
     1.0000   1.0000   1.0000   1.0000   1.0000   1.0000   1.0000   1.0000
     1.0000   1.0000   1.0000   1.0000   1.0000   1.0000   1.0000   1.0000
     1.0000   1.0000   1.0000   1.0000   1.0000   1.0000   1.0000   1.0000
     1.0000   1.0000   1.0000   1.0000   1.0000   1.0000   1.0000   1.0000
     1.0000   1.0000   1.0000   1.0000   1.0000   1.0000   1.0000   1.0000
     1.0000   1.0000   1.0000   1.0000   1.0000   1.0000   1.0000   1.0000
     1.0000   1.0000   1.0000   1.0000   1.0000   1.0000   1.0000   1.0000

          k = 0.0000 0.3849 0.0000 (  8847 PWs)   bands (ev):

   -11.6714 -11.4751 -11.4751 -11.2724 -11.2688 -11.1938 -11.1938 -11.1242
     0.0194   0.0194   0.0310   0.1025   0.1074   0.1074   0.1815   0.2035
     0.2476   0.2476   0.2750   0.2788   0.2788   0.3206   0.3339   0.3893
     0.4516   0.4516   0.5910   0.6039   0.6056   0.6056   0.6935   0.7554
     0.9117   0.9278   0.9547   1.0052   1.0224   1.0224   1.0231   1.0231
     1.0449   1.0449   1.0824   1.1406   1.1820   1.1820   1.1855   1.3063
     1.4962   1.7943   2.0029   2.0029   2.2728   2.9232   3.0097   3.0097
     3.2340   3.6156   3.6156   3.8895   4.1416   4.1416   4.1753   4.2196
     4.3263   4.4421   4.4421   4.5226   4.8423   4.8423   5.0225   5.1570

     occupation numbers 
     1.0000   1.0000   1.0000   1.0000   1.0000   1.0000   1.0000   1.0000
     1.0000   1.0000   1.0000   1.0000   1.0000   1.0000   1.0000   1.0000
     1.0000   1.0000   1.0000   1.0000   1.0000   1.0000   1.0000   1.0000
     1.0000   1.0000   1.0000   1.0000   1.0000   1.0000   1.0000   1.0000
     1.0000   1.0000   1.0000   1.0000   1.0000   1.0000   1.0000   1.0000
     1.0000   1.0000   1.0000   1.0000   1.0000   1.0000   1.0000   1.0000
     1.0000   1.0000   1.0000   1.0000   1.0000   1.0000   1.0000   1.0000
     1.0000   1.0000   1.0000   1.0000   1.0000   1.0000   1.0000   1.0000
     1.0000   1.0000   1.0000   1.0000   1.0000   1.0000   1.0000   1.0000

          k = 0.0000 0.3849 0.0974 (  8848 PWs)   bands (ev):

   -11.6648 -11.5265 -11.4232 -11.2794 -11.2662 -11.2127 -11.1752 -11.1265
     0.0054   0.0285   0.0501   0.0918   0.1018   0.1397   0.1834   0.1980
     0.2288   0.2636   0.2678   0.2716   0.3023   0.3121   0.3306   0.3833
     0.4120   0.4999   0.5530   0.5979   0.6022   0.6193   0.6854   0.7401
     0.9164   0.9277   0.9571   0.9964   1.0063   1.0167   1.0258   1.0394
     1.0477   1.0546   1.0806   1.1405   1.1590   1.1620   1.2082   1.3015
     1.5960   1.7953   1.9357   2.0744   2.2701   2.7100   2.9550   3.2656
     3.2896   3.4663   3.7370   3.8882   3.9931   4.1703   4.1923   4.2628
     4.3184   4.3254   4.5336   4.5766   4.7601   4.9241   4.9993   5.1463

     occupation numbers 
     1.0000   1.0000   1.0000   1.0000   1.0000   1.0000   1.0000   1.0000
     1.0000   1.0000   1.0000   1.0000   1.0000   1.0000   1.0000   1.0000
     1.0000   1.0000   1.0000   1.0000   1.0000   1.0000   1.0000   1.0000
     1.0000   1.0000   1.0000   1.0000   1.0000   1.0000   1.0000   1.0000
     1.0000   1.0000   1.0000   1.0000   1.0000   1.0000   1.0000   1.0000
     1.0000   1.0000   1.0000   1.0000   1.0000   1.0000   1.0000   1.0000
     1.0000   1.0000   1.0000   1.0000   1.0000   1.0000   1.0000   1.0000
     1.0000   1.0000   1.0000   1.0000   1.0000   1.0000   1.0000   1.0000
     1.0000   1.0000   1.0000   1.0000   1.0000   1.0000   1.0000   1.0000

          k = 0.0000 0.3849 0.1948 (  8850 PWs)   bands (ev):

   -11.6455 -11.5740 -11.3745 -11.2999 -11.2584 -11.2306 -11.1583 -11.1332
     0.0048   0.0214   0.0896   0.0955   0.0992   0.1797   0.1864   0.1892
     0.2123   0.2562   0.2638   0.2845   0.2881   0.3210   0.3376   0.3730
     0.3844   0.4705   0.5524   0.5971   0.5976   0.6394   0.6601   0.7023
     0.9291   0.9405   0.9642   0.9710   0.9899   0.9984   1.0357   1.0541
     1.0559   1.0721   1.0751   1.1234   1.1409   1.1495   1.2370   1.2872
     1.8051   1.8200   1.8773   2.1451   2.2513   2.4017   3.0446   3.3154
     3.3612   3.5388   3.6904   3.8586   3.9724   4.1375   4.1431   4.2156
     4.3287   4.3329   4.5658   4.6832   4.7109   4.9334   5.0001   5.1150

     occupation numbers 
     1.0000   1.0000   1.0000   1.0000   1.0000   1.0000   1.0000   1.0000
     1.0000   1.0000   1.0000   1.0000   1.0000   1.0000   1.0000   1.0000
     1.0000   1.0000   1.0000   1.0000   1.0000   1.0000   1.0000   1.0000
     1.0000   1.0000   1.0000   1.0000   1.0000   1.0000   1.0000   1.0000
     1.0000   1.0000   1.0000   1.0000   1.0000   1.0000   1.0000   1.0000
     1.0000   1.0000   1.0000   1.0000   1.0000   1.0000   1.0000   1.0000
     1.0000   1.0000   1.0000   1.0000   1.0000   1.0000   1.0000   1.0000
     1.0000   1.0000   1.0000   1.0000   1.0000   1.0000   1.0000   1.0000
     1.0000   1.0000   1.0000   1.0000   1.0000   1.0000   1.0000   1.0000

          k = 0.0000 0.3849-0.2922 (  8862 PWs)   bands (ev):

   -11.6146 -11.6146 -11.3324 -11.3324 -11.2463 -11.2463 -11.1440 -11.1440
     0.0121   0.0121   0.0942   0.0942   0.1439   0.1439   0.1989   0.1989
     0.2389   0.2389   0.2568   0.2568   0.3063   0.3063   0.3715   0.3715
     0.3921   0.3921   0.5895   0.5895   0.6176   0.6176   0.6663   0.6663
     0.9479   0.9479   0.9673   0.9673   0.9755   0.9755   1.0495   1.0495
     1.0661   1.0661   1.0961   1.0961   1.1432   1.1432   1.2647   1.2647
     1.8323   1.8323   2.0988   2.0988   2.2074   2.2074   3.1715   3.1715
     3.5146   3.5146   3.7400   3.7401   4.0636   4.0636   4.1483   4.1483
     4.3441   4.3441   4.6169   4.6169   4.8337   4.8337   5.0652   5.0652

     occupation numbers 
     1.0000   1.0000   1.0000   1.0000   1.0000   1.0000   1.0000   1.0000
     1.0000   1.0000   1.0000   1.0000   1.0000   1.0000   1.0000   1.0000
     1.0000   1.0000   1.0000   1.0000   1.0000   1.0000   1.0000   1.0000
     1.0000   1.0000   1.0000   1.0000   1.0000   1.0000   1.0000   1.0000
     1.0000   1.0000   1.0000   1.0000   1.0000   1.0000   1.0000   1.0000
     1.0000   1.0000   1.0000   1.0000   1.0000   1.0000   1.0000   1.0000
     1.0000   1.0000   1.0000   1.0000   1.0000   1.0000   1.0000   1.0000
     1.0000   1.0000   1.0000   1.0000   1.0000   1.0000   1.0000   1.0000
     1.0000   1.0000   1.0000   1.0000   1.0000   1.0000   1.0000   1.0000

          k = 0.0000 0.7698 0.0000 (  8859 PWs)   bands (ev):

   -11.4178 -11.2886 -11.2886 -11.2688 -11.1938 -11.1938 -11.1610 -11.1242
    -0.0266  -0.0229  -0.0229   0.1025   0.1075   0.1075   0.2067   0.2955
     0.3204   0.3894   0.4161   0.4161   0.4515   0.4515   0.4985   0.4985
     0.5195   0.5578   0.6039   0.6056   0.6056   0.6935   0.7476   0.7554
     0.8912   0.9279   1.0052   1.0097   1.0450   1.0450   1.0502   1.0502
     1.0503   1.0503   1.0992   1.1406   1.1821   1.1821   1.2711   1.3064
     1.7945   1.8472   2.0030   2.0030   2.2729   2.4120   2.4120   2.4608
     2.9233   3.1778   3.2338   3.6154   3.6154   3.9465   4.0035   4.0035
     4.1415   4.1415   4.1751   4.3262   4.3750   4.3750   4.5994   4.7885

     occupation numbers 
     1.0000   1.0000   1.0000   1.0000   1.0000   1.0000   1.0000   1.0000
     1.0000   1.0000   1.0000   1.0000   1.0000   1.0000   1.0000   1.0000
     1.0000   1.0000   1.0000   1.0000   1.0000   1.0000   1.0000   1.0000
     1.0000   1.0000   1.0000   1.0000   1.0000   1.0000   1.0000   1.0000
     1.0000   1.0000   1.0000   1.0000   1.0000   1.0000   1.0000   1.0000
     1.0000   1.0000   1.0000   1.0000   1.0000   1.0000   1.0000   1.0000
     1.0000   1.0000   1.0000   1.0000   1.0000   1.0000   1.0000   1.0000
     1.0000   1.0000   1.0000   1.0000   1.0000   1.0000   1.0000   1.0000
     1.0000   1.0000   1.0000   1.0000   1.0000   1.0000   1.0000   1.0000

          k = 0.0000 0.7698 0.0974 (  8866 PWs)   bands (ev):

   -11.4134 -11.3219 -11.2662 -11.2553 -11.2127 -11.1752 -11.1653 -11.1265
    -0.0444  -0.0297   0.0151   0.0918   0.1019   0.1398   0.1966   0.2992
     0.3120   0.3830   0.3833   0.4119   0.4506   0.4901   0.4998   0.5164
     0.5182   0.5525   0.5979   0.6022   0.6194   0.6854   0.7247   0.7400
     0.8956   0.9277   1.0109   1.0113   1.0167   1.0259   1.0393   1.0546
     1.0619   1.0890   1.0972   1.1405   1.1620   1.2082   1.2502   1.3016
     1.7954   1.8950   1.9358   2.0745   2.2702   2.3162   2.4865   2.4994
     2.9551   3.1779   3.2654   3.4662   3.7369   3.7456   3.9615   3.9930
     4.1701   4.2313   4.2628   4.2661   4.3254   4.4829   4.5957   4.7745

     occupation numbers 
     1.0000   1.0000   1.0000   1.0000   1.0000   1.0000   1.0000   1.0000
     1.0000   1.0000   1.0000   1.0000   1.0000   1.0000   1.0000   1.0000
     1.0000   1.0000   1.0000   1.0000   1.0000   1.0000   1.0000   1.0000
     1.0000   1.0000   1.0000   1.0000   1.0000   1.0000   1.0000   1.0000
     1.0000   1.0000   1.0000   1.0000   1.0000   1.0000   1.0000   1.0000
     1.0000   1.0000   1.0000   1.0000   1.0000   1.0000   1.0000   1.0000
     1.0000   1.0000   1.0000   1.0000   1.0000   1.0000   1.0000   1.0000
     1.0000   1.0000   1.0000   1.0000   1.0000   1.0000   1.0000   1.0000
     1.0000   1.0000   1.0000   1.0000   1.0000   1.0000   1.0000   1.0000

          k = 0.0000 0.7698 0.1948 (  8873 PWs)   bands (ev):

   -11.4004 -11.3530 -11.2584 -11.2306 -11.2245 -11.1779 -11.1583 -11.1332
    -0.0506  -0.0375   0.0660   0.0897   0.0993   0.1668   0.1865   0.2844
     0.3105   0.3534   0.3730   0.3843   0.4840   0.4910   0.5083   0.5374
     0.5521   0.5524   0.5971   0.5977   0.6395   0.6601   0.6674   0.7023
     0.9119   0.9406   0.9737   0.9985   1.0149   1.0295   1.0357   1.0559
     1.0731   1.0916   1.1278   1.1409   1.1495   1.2087   1.2371   1.2873
     1.8052   1.8774   1.9996   2.1452   2.2163   2.2514   2.5468   2.5660
     3.0446   3.1998   3.3153   3.3610   3.4933   3.6903   3.9722   4.0053
     4.1373   4.1635   4.3287   4.3328   4.4060   4.5757   4.5828   4.7335

     occupation numbers 
     1.0000   1.0000   1.0000   1.0000   1.0000   1.0000   1.0000   1.0000
     1.0000   1.0000   1.0000   1.0000   1.0000   1.0000   1.0000   1.0000
     1.0000   1.0000   1.0000   1.0000   1.0000   1.0000   1.0000   1.0000
     1.0000   1.0000   1.0000   1.0000   1.0000   1.0000   1.0000   1.0000
     1.0000   1.0000   1.0000   1.0000   1.0000   1.0000   1.0000   1.0000
     1.0000   1.0000   1.0000   1.0000   1.0000   1.0000   1.0000   1.0000
     1.0000   1.0000   1.0000   1.0000   1.0000   1.0000   1.0000   1.0000
     1.0000   1.0000   1.0000   1.0000   1.0000   1.0000   1.0000   1.0000
     1.0000   1.0000   1.0000   1.0000   1.0000   1.0000   1.0000   1.0000

          k = 0.0000 0.7698-0.2922 (  8878 PWs)   bands (ev):

   -11.3798 -11.3798 -11.2463 -11.2463 -11.1981 -11.1981 -11.1440 -11.1440
    -0.0463  -0.0463   0.0943   0.0943   0.1205   0.1205   0.2389   0.2389
     0.3288   0.3288   0.3714   0.3714   0.4984   0.4984   0.5138   0.5138
     0.5896   0.5896   0.6031   0.6031   0.6174   0.6174   0.6663   0.6663
     0.9394   0.9394   0.9674   0.9674   1.0211   1.0211   1.0495   1.0495
     1.0833   1.0833   1.1432   1.1432   1.1671   1.1671   1.2647   1.2647
     1.8325   1.8325   2.1114   2.1114   2.2075   2.2075   2.5871   2.5871
     3.1714   3.1714   3.2972   3.2972   3.5144   3.5145   4.0634   4.0634
     4.0744   4.0744   4.3441   4.3441   4.5187   4.5187   4.6682   4.6682

     occupation numbers 
     1.0000   1.0000   1.0000   1.0000   1.0000   1.0000   1.0000   1.0000
     1.0000   1.0000   1.0000   1.0000   1.0000   1.0000   1.0000   1.0000
     1.0000   1.0000   1.0000   1.0000   1.0000   1.0000   1.0000   1.0000
     1.0000   1.0000   1.0000   1.0000   1.0000   1.0000   1.0000   1.0000
     1.0000   1.0000   1.0000   1.0000   1.0000   1.0000   1.0000   1.0000
     1.0000   1.0000   1.0000   1.0000   1.0000   1.0000   1.0000   1.0000
     1.0000   1.0000   1.0000   1.0000   1.0000   1.0000   1.0000   1.0000
     1.0000   1.0000   1.0000   1.0000   1.0000   1.0000   1.0000   1.0000
     1.0000   1.0000   1.0000   1.0000   1.0000   1.0000   1.0000   1.0000

          k = 0.0000-1.1547 0.0000 (  8856 PWs)   bands (ev):

   -11.2637 -11.2636 -11.1923 -11.1922 -11.1922 -11.1922 -11.1265 -11.1265
    -0.0050  -0.0050  -0.0050  -0.0050   0.0368   0.0368   0.2421   0.2421
     0.3326   0.3326   0.4916   0.4916   0.4916   0.4916   0.6497   0.6497
     0.6810   0.6810   0.6844   0.6844   0.6844   0.6844   0.8264   0.8264
     1.0225   1.0225   1.0798   1.0798   1.0923   1.0923   1.0923   1.0923
     1.1197   1.1197   1.1515   1.1515   1.1515   1.1515   1.1846   1.1846
     1.6673   1.6673   1.7507   1.7507   1.7507   1.7507   2.0798   2.0798
     2.9307   2.9307   3.6390   3.6390   4.0356   4.0356   4.0356   4.0356
     4.1288   4.1288   4.1288   4.1288   4.1989   4.1989   4.5919   4.5919

     occupation numbers 
     1.0000   1.0000   1.0000   1.0000   1.0000   1.0000   1.0000   1.0000
     1.0000   1.0000   1.0000   1.0000   1.0000   1.0000   1.0000   1.0000
     1.0000   1.0000   1.0000   1.0000   1.0000   1.0000   1.0000   1.0000
     1.0000   1.0000   1.0000   1.0000   1.0000   1.0000   1.0000   1.0000
     1.0000   1.0000   1.0000   1.0000   1.0000   1.0000   1.0000   1.0000
     1.0000   1.0000   1.0000   1.0000   1.0000   1.0000   1.0000   1.0000
     1.0000   1.0000   1.0000   1.0000   1.0000   1.0000   1.0000   1.0000
     1.0000   1.0000   1.0000   1.0000   1.0000   1.0000   1.0000   1.0000
     1.0000   1.0000   1.0000   1.0000   1.0000   1.0000   1.0000   1.0000

          k = 0.0000-1.1547 0.0974 (  8856 PWs)   bands (ev):

   -11.2611 -11.2611 -11.2102 -11.2102 -11.1747 -11.1746 -11.1287 -11.1287
    -0.0161  -0.0161   0.0245   0.0245   0.0319   0.0319   0.2263   0.2263
     0.3374   0.3374   0.4478   0.4478   0.5377   0.5377   0.6497   0.6497
     0.6685   0.6685   0.6740   0.6740   0.7062   0.7062   0.8175   0.8175
     1.0302   1.0302   1.0800   1.0800   1.0884   1.0884   1.0972   1.0972
     1.1182   1.1182   1.1315   1.1315   1.1659   1.1659   1.1842   1.1842
     1.6626   1.6626   1.7034   1.7034   1.8107   1.8107   2.0625   2.0625
     2.9862   2.9862   3.6565   3.6565   3.8330   3.8330   4.0057   4.0057
     4.1810   4.1810   4.2139   4.2139   4.2502   4.2502   4.5763   4.5763

     occupation numbers 
     1.0000   1.0000   1.0000   1.0000   1.0000   1.0000   1.0000   1.0000
     1.0000   1.0000   1.0000   1.0000   1.0000   1.0000   1.0000   1.0000
     1.0000   1.0000   1.0000   1.0000   1.0000   1.0000   1.0000   1.0000
     1.0000   1.0000   1.0000   1.0000   1.0000   1.0000   1.0000   1.0000
     1.0000   1.0000   1.0000   1.0000   1.0000   1.0000   1.0000   1.0000
     1.0000   1.0000   1.0000   1.0000   1.0000   1.0000   1.0000   1.0000
     1.0000   1.0000   1.0000   1.0000   1.0000   1.0000   1.0000   1.0000
     1.0000   1.0000   1.0000   1.0000   1.0000   1.0000   1.0000   1.0000
     1.0000   1.0000   1.0000   1.0000   1.0000   1.0000   1.0000   1.0000

          k = 0.0000-1.1547 0.1948 (  8872 PWs)   bands (ev):

   -11.2538 -11.2538 -11.2273 -11.2273 -11.1587 -11.1586 -11.1350 -11.1350
    -0.0120  -0.0120   0.0187   0.0187   0.0709   0.0709   0.1842   0.1842
     0.3522   0.3522   0.4087   0.4087   0.5824   0.5824   0.6502   0.6502
     0.6538   0.6538   0.6583   0.6583   0.7333   0.7333   0.7943   0.7943
     1.0505   1.0505   1.0810   1.0810   1.0852   1.0852   1.1028   1.1028
     1.1062   1.1062   1.1142   1.1142   1.1752   1.1752   1.1831   1.1831
     1.6551   1.6551   1.6715   1.6715   1.8793   1.8793   2.0156   2.0156
     3.1383   3.1383   3.5959   3.5960   3.7073   3.7073   3.8891   3.8891
     4.2477   4.2477   4.2582   4.2582   4.3622   4.3622   4.5306   4.5306

     occupation numbers 
     1.0000   1.0000   1.0000   1.0000   1.0000   1.0000   1.0000   1.0000
     1.0000   1.0000   1.0000   1.0000   1.0000   1.0000   1.0000   1.0000
     1.0000   1.0000   1.0000   1.0000   1.0000   1.0000   1.0000   1.0000
     1.0000   1.0000   1.0000   1.0000   1.0000   1.0000   1.0000   1.0000
     1.0000   1.0000   1.0000   1.0000   1.0000   1.0000   1.0000   1.0000
     1.0000   1.0000   1.0000   1.0000   1.0000   1.0000   1.0000   1.0000
     1.0000   1.0000   1.0000   1.0000   1.0000   1.0000   1.0000   1.0000
     1.0000   1.0000   1.0000   1.0000   1.0000   1.0000   1.0000   1.0000
     1.0000   1.0000   1.0000   1.0000   1.0000   1.0000   1.0000   1.0000

          k = 0.0000-1.1547-0.2922 (  8904 PWs)   bands (ev):

   -11.2422 -11.2422 -11.2422 -11.2422 -11.1452 -11.1452 -11.1452 -11.1451
     0.0019   0.0019   0.0019   0.0019   0.1278   0.1278   0.1278   0.1278
     0.3762   0.3762   0.3762   0.3762   0.6223   0.6223   0.6223   0.6223
     0.6525   0.6525   0.6525   0.6525   0.7639   0.7639   0.7639   0.7639
     1.0778   1.0778   1.0778   1.0778   1.0827   1.0827   1.0827   1.0827
     1.1087   1.1087   1.1087   1.1087   1.1805   1.1805   1.1805   1.1805
     1.6559   1.6559   1.6559   1.6559   1.9506   1.9506   1.9506   1.9506
     3.3534   3.3534   3.3534   3.3534   3.7870   3.7870   3.7870   3.7870
     4.2729   4.2729   4.2729   4.2729   4.4576   4.4576   4.4576   4.4576

     occupation numbers 
     1.0000   1.0000   1.0000   1.0000   1.0000   1.0000   1.0000   1.0000
     1.0000   1.0000   1.0000   1.0000   1.0000   1.0000   1.0000   1.0000
     1.0000   1.0000   1.0000   1.0000   1.0000   1.0000   1.0000   1.0000
     1.0000   1.0000   1.0000   1.0000   1.0000   1.0000   1.0000   1.0000
     1.0000   1.0000   1.0000   1.0000   1.0000   1.0000   1.0000   1.0000
     1.0000   1.0000   1.0000   1.0000   1.0000   1.0000   1.0000   1.0000
     1.0000   1.0000   1.0000   1.0000   1.0000   1.0000   1.0000   1.0000
     1.0000   1.0000   1.0000   1.0000   1.0000   1.0000   1.0000   1.0000
     1.0000   1.0000   1.0000   1.0000   1.0000   1.0000   1.0000   1.0000

          k = 0.1667 0.0962 0.0000 (  8805 PWs)   bands (ev):

   -11.7563 -11.5414 -11.5414 -11.3172 -11.3093 -11.2182 -11.2182 -11.1319
    -0.0126  -0.0126   0.0111   0.0671   0.0671   0.0874   0.1308   0.1818
     0.1857   0.1857   0.2031   0.2031   0.2242   0.2365   0.2611   0.3243
     0.4727   0.4727   0.5035   0.6235   0.6235   0.6480   0.6546   0.7409
     0.9440   0.9541   0.9665   1.0234   1.0234   1.0236   1.0236   1.0570
     1.0784   1.0784   1.0785   1.0996   1.0996   1.1066   1.1127   1.2699
     1.4543   1.7708   1.9695   1.9695   2.1558   2.9321   3.0326   3.0326
     3.7240   4.0194   4.0194   4.1964   4.1964   4.3334   4.5529   4.6460
     4.7304   4.7932   4.8692   4.8692   5.0095   5.0095   5.1286   5.2850

     occupation numbers 
     1.0000   1.0000   1.0000   1.0000   1.0000   1.0000   1.0000   1.0000
     1.0000   1.0000   1.0000   1.0000   1.0000   1.0000   1.0000   1.0000
     1.0000   1.0000   1.0000   1.0000   1.0000   1.0000   1.0000   1.0000
     1.0000   1.0000   1.0000   1.0000   1.0000   1.0000   1.0000   1.0000
     1.0000   1.0000   1.0000   1.0000   1.0000   1.0000   1.0000   1.0000
     1.0000   1.0000   1.0000   1.0000   1.0000   1.0000   1.0000   1.0000
     1.0000   1.0000   1.0000   1.0000   1.0000   1.0000   1.0000   1.0000
     1.0000   1.0000   1.0000   1.0000   1.0000   1.0000   1.0000   1.0000
     1.0000   1.0000   1.0000   1.0000   1.0000   1.0000   1.0000   1.0000

          k = 0.1667 0.0962 0.0974 (  8822 PWs)   bands (ev):

   -11.7492 -11.5979 -11.4843 -11.3250 -11.3061 -11.2414 -11.1954 -11.1347
    -0.0283   0.0069   0.0205   0.0594   0.0860   0.0921   0.1322   0.1696
     0.1794   0.1887   0.2031   0.2114   0.2233   0.2319   0.2580   0.3288
     0.4319   0.4645   0.5153   0.6225   0.6319   0.6415   0.6523   0.7302
     0.9470   0.9565   0.9716   1.0044   1.0070   1.0394   1.0413   1.0577
     1.0673   1.0721   1.0768   1.0854   1.0985   1.1110   1.1329   1.2602
     1.5382   1.7672   1.9005   2.0419   2.1710   2.6816   2.9697   3.3874
     3.7407   3.7903   4.0772   4.1975   4.3141   4.3426   4.5519   4.6308
     4.6894   4.7399   4.7904   4.9376   4.9484   5.0811   5.1352   5.2756

     occupation numbers 
     1.0000   1.0000   1.0000   1.0000   1.0000   1.0000   1.0000   1.0000
     1.0000   1.0000   1.0000   1.0000   1.0000   1.0000   1.0000   1.0000
     1.0000   1.0000   1.0000   1.0000   1.0000   1.0000   1.0000   1.0000
     1.0000   1.0000   1.0000   1.0000   1.0000   1.0000   1.0000   1.0000
     1.0000   1.0000   1.0000   1.0000   1.0000   1.0000   1.0000   1.0000
     1.0000   1.0000   1.0000   1.0000   1.0000   1.0000   1.0000   1.0000
     1.0000   1.0000   1.0000   1.0000   1.0000   1.0000   1.0000   1.0000
     1.0000   1.0000   1.0000   1.0000   1.0000   1.0000   1.0000   1.0000
     1.0000   1.0000   1.0000   1.0000   1.0000   1.0000   1.0000   1.0000

          k = 0.1667 0.0962 0.1948 (  8828 PWs)   bands (ev):

   -11.7281 -11.6500 -11.4305 -11.3478 -11.2968 -11.2632 -11.1744 -11.1432
    -0.0284  -0.0044   0.0638   0.0685   0.0813   0.1327   0.1369   0.1557
     0.1740   0.1754   0.1812   0.2170   0.2206   0.2495   0.2523   0.3427
     0.3803   0.3953   0.5567   0.6229   0.6279   0.6459   0.6484   0.7038
     0.9556   0.9641   0.9857   0.9862   0.9906   1.0365   1.0530   1.0573
     1.0596   1.0667   1.0720   1.0851   1.0928   1.1066   1.1670   1.2348
     1.7470   1.7708   1.8407   2.1105   2.1850   2.3421   3.0903   3.5360
     3.7395   3.7895   3.9645   4.3100   4.3595   4.3932   4.4227   4.5863
     4.6171   4.7179   4.7680   4.8704   5.0217   5.1231   5.1476   5.2482

     occupation numbers 
     1.0000   1.0000   1.0000   1.0000   1.0000   1.0000   1.0000   1.0000
     1.0000   1.0000   1.0000   1.0000   1.0000   1.0000   1.0000   1.0000
     1.0000   1.0000   1.0000   1.0000   1.0000   1.0000   1.0000   1.0000
     1.0000   1.0000   1.0000   1.0000   1.0000   1.0000   1.0000   1.0000
     1.0000   1.0000   1.0000   1.0000   1.0000   1.0000   1.0000   1.0000
     1.0000   1.0000   1.0000   1.0000   1.0000   1.0000   1.0000   1.0000
     1.0000   1.0000   1.0000   1.0000   1.0000   1.0000   1.0000   1.0000
     1.0000   1.0000   1.0000   1.0000   1.0000   1.0000   1.0000   1.0000
     1.0000   1.0000   1.0000   1.0000   1.0000   1.0000   1.0000   1.0000

          k = 0.1667 0.0962-0.2922 (  8822 PWs)   bands (ev):

   -11.6943 -11.6943 -11.3839 -11.3839 -11.2822 -11.2822 -11.1567 -11.1567
    -0.0182  -0.0182   0.0731   0.0731   0.1240   0.1240   0.1449   0.1449
     0.1660   0.1660   0.1913   0.1913   0.2366   0.2367   0.3015   0.3015
     0.3652   0.3652   0.5936   0.5937   0.6368   0.6368   0.6733   0.6733
     0.9690   0.9690   0.9759   0.9759   1.0087   1.0087   1.0625   1.0625
     1.0641   1.0641   1.0719   1.0719   1.1001   1.1001   1.2018   1.2018
     1.7955   1.7956   2.0250   2.0250   2.1635   2.1635   3.2897   3.2897
     3.8662   3.8662   4.0810   4.0810   4.3581   4.3581   4.5154   4.5155
     4.6572   4.6572   4.8125   4.8125   5.0825   5.0825   5.2046   5.2046

     occupation numbers 
     1.0000   1.0000   1.0000   1.0000   1.0000   1.0000   1.0000   1.0000
     1.0000   1.0000   1.0000   1.0000   1.0000   1.0000   1.0000   1.0000
     1.0000   1.0000   1.0000   1.0000   1.0000   1.0000   1.0000   1.0000
     1.0000   1.0000   1.0000   1.0000   1.0000   1.0000   1.0000   1.0000
     1.0000   1.0000   1.0000   1.0000   1.0000   1.0000   1.0000   1.0000
     1.0000   1.0000   1.0000   1.0000   1.0000   1.0000   1.0000   1.0000
     1.0000   1.0000   1.0000   1.0000   1.0000   1.0000   1.0000   1.0000
     1.0000   1.0000   1.0000   1.0000   1.0000   1.0000   1.0000   1.0000
     1.0000   1.0000   1.0000   1.0000   1.0000   1.0000   1.0000   1.0000

          k = 0.1667 0.4811 0.0000 (  8846 PWs)   bands (ev):

   -11.5952 -11.4169 -11.4169 -11.3678 -11.2545 -11.2545 -11.2347 -11.1442
     0.0073   0.0073   0.0166   0.0669   0.0669   0.0999   0.1879   0.1986
     0.2376   0.2723   0.2723   0.3018   0.3472   0.3564   0.3564   0.3966
     0.3966   0.4120   0.4729   0.5030   0.5030   0.6205   0.6602   0.7619
     0.8678   0.8909   0.9574   0.9993   1.0231   1.0231   1.0297   1.0297
     1.0429   1.0429   1.0851   1.1032   1.1032   1.1118   1.2360   1.2956
     1.5775   1.9023   2.3741   2.3741   2.6161   2.9286   2.9286   2.9781
     3.4802   3.5050   3.7586   3.8507   3.8508   4.1456   4.1456   4.2164
     4.2164   4.3343   4.4511   4.5388   4.6475   4.6475   4.9251   4.9964

     occupation numbers 
     1.0000   1.0000   1.0000   1.0000   1.0000   1.0000   1.0000   1.0000
     1.0000   1.0000   1.0000   1.0000   1.0000   1.0000   1.0000   1.0000
     1.0000   1.0000   1.0000   1.0000   1.0000   1.0000   1.0000   1.0000
     1.0000   1.0000   1.0000   1.0000   1.0000   1.0000   1.0000   1.0000
     1.0000   1.0000   1.0000   1.0000   1.0000   1.0000   1.0000   1.0000
     1.0000   1.0000   1.0000   1.0000   1.0000   1.0000   1.0000   1.0000
     1.0000   1.0000   1.0000   1.0000   1.0000   1.0000   1.0000   1.0000
     1.0000   1.0000   1.0000   1.0000   1.0000   1.0000   1.0000   1.0000
     1.0000   1.0000   1.0000   1.0000   1.0000   1.0000   1.0000   1.0000

          k = 0.1667 0.4811 0.0974 (  8848 PWs)   bands (ev):

   -11.5892 -11.4634 -11.3701 -11.3639 -11.2835 -11.2410 -11.2256 -11.1479
    -0.0091   0.0137   0.0407   0.0557   0.0928   0.0965   0.1850   0.1942
     0.2357   0.2612   0.2778   0.2987   0.3465   0.3575   0.3721   0.3755
     0.4087   0.4179   0.4700   0.5014   0.5208   0.6149   0.6234   0.7302
     0.8745   0.8967   0.9606   0.9955   1.0085   1.0090   1.0127   1.0411
     1.0514   1.0591   1.0830   1.0951   1.1106   1.1312   1.2027   1.2809
     1.6780   1.9352   2.2850   2.4598   2.6248   2.6928   3.0060   3.1339
     3.4914   3.5089   3.7225   3.7495   3.8176   4.0419   4.1110   4.3012
     4.3397   4.3922   4.4342   4.5399   4.5693   4.7358   4.9055   4.9846

     occupation numbers 
     1.0000   1.0000   1.0000   1.0000   1.0000   1.0000   1.0000   1.0000
     1.0000   1.0000   1.0000   1.0000   1.0000   1.0000   1.0000   1.0000
     1.0000   1.0000   1.0000   1.0000   1.0000   1.0000   1.0000   1.0000
     1.0000   1.0000   1.0000   1.0000   1.0000   1.0000   1.0000   1.0000
     1.0000   1.0000   1.0000   1.0000   1.0000   1.0000   1.0000   1.0000
     1.0000   1.0000   1.0000   1.0000   1.0000   1.0000   1.0000   1.0000
     1.0000   1.0000   1.0000   1.0000   1.0000   1.0000   1.0000   1.0000
     1.0000   1.0000   1.0000   1.0000   1.0000   1.0000   1.0000   1.0000
     1.0000   1.0000   1.0000   1.0000   1.0000   1.0000   1.0000   1.0000

          k = 0.1667 0.4811 0.1948 (  8849 PWs)   bands (ev):

   -11.5715 -11.5065 -11.3525 -11.3262 -11.3108 -11.2593 -11.1989 -11.1588
    -0.0110   0.0058   0.0592   0.0864   0.0877   0.1270   0.1707   0.1812
     0.2339   0.2484   0.2799   0.2912   0.3459   0.3588   0.3696   0.3994
     0.4061   0.4359   0.4620   0.5244   0.5421   0.5478   0.5983   0.6567
     0.8971   0.9127   0.9645   0.9687   0.9723   0.9937   1.0246   1.0473
     1.0555   1.0772   1.0895   1.0974   1.1071   1.1564   1.1691   1.2476
     1.8976   2.0125   2.1946   2.4325   2.5375   2.6281   3.1059   3.3052
     3.5006   3.5134   3.5281   3.6932   3.7427   3.8934   4.2049   4.3599
     4.3840   4.4300   4.4511   4.5354   4.6065   4.8202   4.8447   4.9496

     occupation numbers 
     1.0000   1.0000   1.0000   1.0000   1.0000   1.0000   1.0000   1.0000
     1.0000   1.0000   1.0000   1.0000   1.0000   1.0000   1.0000   1.0000
     1.0000   1.0000   1.0000   1.0000   1.0000   1.0000   1.0000   1.0000
     1.0000   1.0000   1.0000   1.0000   1.0000   1.0000   1.0000   1.0000
     1.0000   1.0000   1.0000   1.0000   1.0000   1.0000   1.0000   1.0000
     1.0000   1.0000   1.0000   1.0000   1.0000   1.0000   1.0000   1.0000
     1.0000   1.0000   1.0000   1.0000   1.0000   1.0000   1.0000   1.0000
     1.0000   1.0000   1.0000   1.0000   1.0000   1.0000   1.0000   1.0000
     1.0000   1.0000   1.0000   1.0000   1.0000   1.0000   1.0000   1.0000

          k = 0.1667 0.4811-0.2922 (  8846 PWs)   bands (ev):

   -11.5434 -11.5434 -11.3343 -11.3343 -11.2884 -11.2884 -11.1761 -11.1761
    -0.0040  -0.0040   0.0720   0.0720   0.1364   0.1364   0.1587   0.1587
     0.2382   0.2382   0.2839   0.2839   0.3491   0.3491   0.3853   0.3853
     0.4503   0.4503   0.4625   0.4625   0.5703   0.5703   0.5839   0.5839
     0.9318   0.9318   0.9361   0.9361   0.9800   0.9800   1.0380   1.0380
     1.0677   1.0677   1.1023   1.1023   1.1205   1.1205   1.2088   1.2088
     2.1031   2.1031   2.1604   2.1604   2.5980   2.5980   3.2867   3.2867
     3.4338   3.4338   3.5952   3.5952   3.7877   3.7877   4.3045   4.3045
     4.3997   4.3997   4.5056   4.5056   4.7412   4.7412   4.8934   4.8934

     occupation numbers 
     1.0000   1.0000   1.0000   1.0000   1.0000   1.0000   1.0000   1.0000
     1.0000   1.0000   1.0000   1.0000   1.0000   1.0000   1.0000   1.0000
     1.0000   1.0000   1.0000   1.0000   1.0000   1.0000   1.0000   1.0000
     1.0000   1.0000   1.0000   1.0000   1.0000   1.0000   1.0000   1.0000
     1.0000   1.0000   1.0000   1.0000   1.0000   1.0000   1.0000   1.0000
     1.0000   1.0000   1.0000   1.0000   1.0000   1.0000   1.0000   1.0000
     1.0000   1.0000   1.0000   1.0000   1.0000   1.0000   1.0000   1.0000
     1.0000   1.0000   1.0000   1.0000   1.0000   1.0000   1.0000   1.0000
     1.0000   1.0000   1.0000   1.0000   1.0000   1.0000   1.0000   1.0000

          k = 0.1667 0.8660 0.0000 (  8866 PWs)   bands (ev):

   -11.3465 -11.3465 -11.2410 -11.2410 -11.2410 -11.2410 -11.1393 -11.1393
     0.0120   0.0120   0.0120   0.0120   0.0238   0.0238   0.2387   0.2387
     0.3093   0.3093   0.4437   0.4437   0.4437   0.4437   0.5555   0.5555
     0.5555   0.5555   0.5726   0.5726   0.6326   0.6326   0.7393   0.7393
     0.9206   0.9206   1.0240   1.0240   1.0518   1.0518   1.0518   1.0518
     1.0979   1.0979   1.0979   1.0979   1.1111   1.1111   1.2862   1.2862
     1.8713   1.8713   2.1857   2.1857   2.1857   2.1857   2.2999   2.2999
     3.0003   3.0003   3.6574   3.6574   3.9599   3.9600   3.9600   3.9600
     4.1924   4.1924   4.1924   4.1924   4.4423   4.4423   4.6033   4.6033

     occupation numbers 
     1.0000   1.0000   1.0000   1.0000   1.0000   1.0000   1.0000   1.0000
     1.0000   1.0000   1.0000   1.0000   1.0000   1.0000   1.0000   1.0000
     1.0000   1.0000   1.0000   1.0000   1.0000   1.0000   1.0000   1.0000
     1.0000   1.0000   1.0000   1.0000   1.0000   1.0000   1.0000   1.0000
     1.0000   1.0000   1.0000   1.0000   1.0000   1.0000   1.0000   1.0000
     1.0000   1.0000   1.0000   1.0000   1.0000   1.0000   1.0000   1.0000
     1.0000   1.0000   1.0000   1.0000   1.0000   1.0000   1.0000   1.0000
     1.0000   1.0000   1.0000   1.0000   1.0000   1.0000   1.0000   1.0000
     1.0000   1.0000   1.0000   1.0000   1.0000   1.0000   1.0000   1.0000

          k = 0.1667 0.8660 0.0974 (  8872 PWs)   bands (ev):

   -11.3428 -11.3428 -11.2680 -11.2680 -11.2143 -11.2143 -11.1427 -11.1427
    -0.0059  -0.0059   0.0202   0.0202   0.0469   0.0469   0.2277   0.2277
     0.3134   0.3134   0.4054   0.4054   0.4844   0.4844   0.5526   0.5526
     0.5684   0.5684   0.5690   0.5690   0.6271   0.6271   0.7226   0.7226
     0.9220   0.9220   1.0259   1.0259   1.0283   1.0283   1.0576   1.0576
     1.0901   1.0901   1.1096   1.1097   1.1261   1.1261   1.2726   1.2726
     1.8833   1.8833   2.1067   2.1067   2.2640   2.2640   2.3269   2.3269
     3.0205   3.0205   3.6743   3.6743   3.7451   3.7451   4.0089   4.0090
     4.1902   4.1902   4.3150   4.3150   4.4450   4.4450   4.5891   4.5891

     occupation numbers 
     1.0000   1.0000   1.0000   1.0000   1.0000   1.0000   1.0000   1.0000
     1.0000   1.0000   1.0000   1.0000   1.0000   1.0000   1.0000   1.0000
     1.0000   1.0000   1.0000   1.0000   1.0000   1.0000   1.0000   1.0000
     1.0000   1.0000   1.0000   1.0000   1.0000   1.0000   1.0000   1.0000
     1.0000   1.0000   1.0000   1.0000   1.0000   1.0000   1.0000   1.0000
     1.0000   1.0000   1.0000   1.0000   1.0000   1.0000   1.0000   1.0000
     1.0000   1.0000   1.0000   1.0000   1.0000   1.0000   1.0000   1.0000
     1.0000   1.0000   1.0000   1.0000   1.0000   1.0000   1.0000   1.0000
     1.0000   1.0000   1.0000   1.0000   1.0000   1.0000   1.0000   1.0000

          k = 0.1667 0.8660 0.1948 (  8864 PWs)   bands (ev):

   -11.3322 -11.3321 -11.2933 -11.2933 -11.1897 -11.1896 -11.1527 -11.1527
    -0.0084  -0.0084   0.0108   0.0108   0.0955   0.0955   0.1961   0.1961
     0.3253   0.3253   0.3719   0.3719   0.5215   0.5215   0.5593   0.5593
     0.5628   0.5628   0.5914   0.5914   0.6115   0.6115   0.6788   0.6788
     0.9337   0.9337   0.9915   0.9915   1.0371   1.0371   1.0531   1.0531
     1.0940   1.0940   1.1056   1.1056   1.1631   1.1631   1.2403   1.2403
     1.9170   1.9170   2.0328   2.0328   2.3326   2.3326   2.3709   2.3709
     3.1016   3.1016   3.4988   3.4988   3.7237   3.7237   3.9028   3.9028
     4.3099   4.3099   4.4228   4.4228   4.4407   4.4408   4.5501   4.5501

     occupation numbers 
     1.0000   1.0000   1.0000   1.0000   1.0000   1.0000   1.0000   1.0000
     1.0000   1.0000   1.0000   1.0000   1.0000   1.0000   1.0000   1.0000
     1.0000   1.0000   1.0000   1.0000   1.0000   1.0000   1.0000   1.0000
     1.0000   1.0000   1.0000   1.0000   1.0000   1.0000   1.0000   1.0000
     1.0000   1.0000   1.0000   1.0000   1.0000   1.0000   1.0000   1.0000
     1.0000   1.0000   1.0000   1.0000   1.0000   1.0000   1.0000   1.0000
     1.0000   1.0000   1.0000   1.0000   1.0000   1.0000   1.0000   1.0000
     1.0000   1.0000   1.0000   1.0000   1.0000   1.0000   1.0000   1.0000
     1.0000   1.0000   1.0000   1.0000   1.0000   1.0000   1.0000   1.0000

          k = 0.1667 0.8660-0.2922 (  8856 PWs)   bands (ev):

   -11.3153 -11.3152 -11.3152 -11.3152 -11.1687 -11.1687 -11.1687 -11.1686
    -0.0007  -0.0007  -0.0007  -0.0007   0.1490   0.1490   0.1490   0.1490
     0.3450   0.3450   0.3450   0.3450   0.5449   0.5449   0.5449   0.5449
     0.5874   0.5874   0.5874   0.5874   0.6285   0.6285   0.6285   0.6285
[...]
     1.0540   1.0721   1.0731   1.0751   1.0916   1.1234   1.1277   1.2087
     1.8200   1.9995   2.2162   2.4017   2.5466   2.5658   3.1996   3.4932
     3.5387   3.8583   4.0057   4.1428   4.1639   4.2153   4.4059   4.5662
     4.5756   4.5832   4.6836   4.7107   4.7339   4.9333   5.0005   5.1154

     occupation numbers 
     1.0000   1.0000   1.0000   1.0000   1.0000   1.0000   1.0000   1.0000
     1.0000   1.0000   1.0000   1.0000   1.0000   1.0000   1.0000   1.0000
     1.0000   1.0000   1.0000   1.0000   1.0000   1.0000   1.0000   1.0000
     1.0000   1.0000   1.0000   1.0000   1.0000   1.0000   1.0000   1.0000
     1.0000   1.0000   1.0000   1.0000   1.0000   1.0000   1.0000   1.0000
     1.0000   1.0000   1.0000   1.0000   1.0000   1.0000   1.0000   1.0000
     1.0000   1.0000   1.0000   1.0000   1.0000   1.0000   1.0000   1.0000
     1.0000   1.0000   1.0000   1.0000   1.0000   1.0000   1.0000   1.0000
     1.0000   1.0000   1.0000   1.0000   1.0000   1.0000   1.0000   1.0000

          k =-0.6667 0.7698-0.0974 (  8878 PWs)   bands (ev):

   -11.2662 -11.2661 -11.2127 -11.2127 -11.1752 -11.1752 -11.1265 -11.1265
     0.0918   0.0918   0.1018   0.1018   0.1398   0.1398   0.3121   0.3121
     0.3833   0.3833   0.4119   0.4119   0.4998   0.4998   0.5979   0.5979
     0.6022   0.6022   0.6194   0.6194   0.6854   0.6854   0.7401   0.7401
     0.9277   0.9277   1.0167   1.0167   1.0259   1.0259   1.0546   1.0546
     1.1406   1.1406   1.1621   1.1621   1.2083   1.2083   1.3016   1.3016
     1.7955   1.7955   1.9358   1.9358   2.0745   2.0745   2.2703   2.2703
     2.9549   2.9549   3.2654   3.2654   3.4661   3.4661   3.7368   3.7368
     3.9930   3.9930   4.1701   4.1701   4.2628   4.2628   4.3253   4.3253

     occupation numbers 
     1.0000   1.0000   1.0000   1.0000   1.0000   1.0000   1.0000   1.0000
     1.0000   1.0000   1.0000   1.0000   1.0000   1.0000   1.0000   1.0000
     1.0000   1.0000   1.0000   1.0000   1.0000   1.0000   1.0000   1.0000
     1.0000   1.0000   1.0000   1.0000   1.0000   1.0000   1.0000   1.0000
     1.0000   1.0000   1.0000   1.0000   1.0000   1.0000   1.0000   1.0000
     1.0000   1.0000   1.0000   1.0000   1.0000   1.0000   1.0000   1.0000
     1.0000   1.0000   1.0000   1.0000   1.0000   1.0000   1.0000   1.0000
     1.0000   1.0000   1.0000   1.0000   1.0000   1.0000   1.0000   1.0000
     1.0000   1.0000   1.0000   1.0000   1.0000   1.0000   1.0000   1.0000

          k =-0.6667 0.7698-0.1948 (  8880 PWs)   bands (ev):

   -11.2585 -11.2584 -11.2307 -11.2306 -11.1583 -11.1583 -11.1332 -11.1332
     0.0897   0.0897   0.0992   0.0992   0.1865   0.1865   0.2845   0.2845
     0.3730   0.3730   0.3843   0.3843   0.5524   0.5524   0.5971   0.5971
     0.5977   0.5977   0.6395   0.6395   0.6600   0.6600   0.7023   0.7023
     0.9405   0.9405   0.9984   0.9984   1.0358   1.0358   1.0559   1.0559
     1.1410   1.1410   1.1496   1.1496   1.2371   1.2371   1.2873   1.2873
     1.8053   1.8053   1.8774   1.8774   2.1452   2.1452   2.2515   2.2515
     3.0444   3.0444   3.3151   3.3152   3.3610   3.3610   3.6903   3.6903
     3.9722   3.9722   4.1372   4.1372   4.3287   4.3287   4.3328   4.3328

     occupation numbers 
     1.0000   1.0000   1.0000   1.0000   1.0000   1.0000   1.0000   1.0000
     1.0000   1.0000   1.0000   1.0000   1.0000   1.0000   1.0000   1.0000
     1.0000   1.0000   1.0000   1.0000   1.0000   1.0000   1.0000   1.0000
     1.0000   1.0000   1.0000   1.0000   1.0000   1.0000   1.0000   1.0000
     1.0000   1.0000   1.0000   1.0000   1.0000   1.0000   1.0000   1.0000
     1.0000   1.0000   1.0000   1.0000   1.0000   1.0000   1.0000   1.0000
     1.0000   1.0000   1.0000   1.0000   1.0000   1.0000   1.0000   1.0000
     1.0000   1.0000   1.0000   1.0000   1.0000   1.0000   1.0000   1.0000
     1.0000   1.0000   1.0000   1.0000   1.0000   1.0000   1.0000   1.0000

     highest occupied level (ev):     5.3305

!    total energy              =   -1446.47196820 Ry
     estimated scf accuracy    <          2.8E-09 Ry

     The total energy is the sum of the following terms:
     one-electron contribution =    -671.97504360 Ry
     hartree contribution      =     492.58621945 Ry
     xc contribution           =    -437.29145870 Ry
     ewald contribution        =    -829.79168534 Ry

     convergence has been achieved in  30 iterations

     Forces acting on atoms (cartesian axes, Ry/au):

     atom    1 type  1   force =    -0.00000141   -0.00000082    0.00311527
     atom    2 type  1   force =    -0.00000178   -0.00000103    0.00311463
     atom    3 type  2   force =    -0.00000458   -0.00000265   -0.00311632
     atom    4 type  2   force =     0.00000490    0.00000283   -0.00311649
     atom    5 type  1   force =    -0.00000019   -0.00000011    0.00311714
     atom    6 type  1   force =    -0.00000286   -0.00000165    0.00311861
     atom    7 type  2   force =    -0.00000476   -0.00000275   -0.00311640
     atom    8 type  2   force =     0.00000485    0.00000280   -0.00311618
     atom    9 type  1   force =     0.00000211    0.00000122    0.00311586
     atom   10 type  1   force =     0.00000027    0.00000016    0.00311421
     atom   11 type  2   force =    -0.00000486   -0.00000281   -0.00311587
     atom   12 type  2   force =     0.00000466    0.00000269   -0.00311644
     atom   13 type  1   force =     0.00000263    0.00000152    0.00311773
     atom   14 type  1   force =     0.00000103    0.00000059    0.00311720
     atom   15 type  2   force =    -0.00000465   -0.00000269   -0.00311646
     atom   16 type  2   force =     0.00000466    0.00000269   -0.00311648
     The non-local contrib.  to forces
     atom    1 type  1   force =    -0.00001105   -0.00000638    0.14784589
     atom    2 type  1   force =     0.00000894    0.00000516    0.14784520
     atom    3 type  2   force =    -0.00019266   -0.00011123    0.15475625
     atom    4 type  2   force =     0.00019404    0.00011203    0.15475729
     atom    5 type  1   force =    -0.00001122   -0.00000648    0.14784704
     atom    6 type  1   force =     0.00000878    0.00000507    0.14784806
     atom    7 type  2   force =    -0.00019296   -0.00011140    0.15475715
     atom    8 type  2   force =     0.00019362    0.00011179    0.15475635
     atom    9 type  1   force =    -0.00000921   -0.00000532    0.14784639
     atom   10 type  1   force =     0.00001113    0.00000643    0.14784483
     atom   11 type  2   force =    -0.00019349   -0.00011171    0.15475769
     atom   12 type  2   force =     0.00019202    0.00011086    0.15475706
     atom   13 type  1   force =    -0.00000888   -0.00000513    0.14784743
     atom   14 type  1   force =     0.00001138    0.00000657    0.14784680
     atom   15 type  2   force =    -0.00019324   -0.00011157    0.15475705
     atom   16 type  2   force =     0.00019264    0.00011122    0.15475578
     The ionic contribution  to forces
     atom    1 type  1   force =     0.00000000    0.00000001    1.17172274
     atom    2 type  1   force =     0.00000001    0.00000000    1.17172274
     atom    3 type  2   force =     0.00000000    0.00000000   -1.17172274
     atom    4 type  2   force =     0.00000001    0.00000000   -1.17172274
     atom    5 type  1   force =     0.00000000    0.00000001    1.17172274
     atom    6 type  1   force =     0.00000001    0.00000000    1.17172274
     atom    7 type  2   force =     0.00000000    0.00000000   -1.17172274
     atom    8 type  2   force =     0.00000001    0.00000000   -1.17172274
     atom    9 type  1   force =    -0.00000002   -0.00000000    1.17172274
     atom   10 type  1   force =     0.00000000   -0.00000001    1.17172274
     atom   11 type  2   force =    -0.00000001    0.00000000   -1.17172274
     atom   12 type  2   force =     0.00000000   -0.00000001   -1.17172274
     atom   13 type  1   force =    -0.00000002   -0.00000000    1.17172274
     atom   14 type  1   force =     0.00000000   -0.00000001    1.17172274
     atom   15 type  2   force =    -0.00000001    0.00000000   -1.17172274
     atom   16 type  2   force =     0.00000000   -0.00000001   -1.17172274
     The local contribution  to forces
     atom    1 type  1   force =     0.00001922    0.00001110   -1.30685875
     atom    2 type  1   force =    -0.00001329   -0.00000777   -1.30685772
     atom    3 type  2   force =     0.00018674    0.00010782    1.01518373
     atom    4 type  2   force =    -0.00018557   -0.00010717    1.01518617
     atom    5 type  1   force =     0.00002015    0.00001163   -1.30686121
     atom    6 type  1   force =    -0.00001171   -0.00000686   -1.30686671
     atom    7 type  2   force =     0.00018730    0.00010814    1.01518685
     atom    8 type  2   force =    -0.00018574   -0.00010726    1.01518562
     atom    9 type  1   force =     0.00001474    0.00000861   -1.30686187
     atom   10 type  1   force =    -0.00002014   -0.00001173   -1.30685636
     atom   11 type  2   force =     0.00018568    0.00010723    1.01518570
     atom   12 type  2   force =    -0.00018706   -0.00010803    1.01518576
     atom   13 type  1   force =     0.00001312    0.00000767   -1.30686395
     atom   14 type  1   force =    -0.00002162   -0.00001258   -1.30686207
     atom   15 type  2   force =     0.00018606    0.00010745    1.01518855
     atom   16 type  2   force =    -0.00018702   -0.00010800    1.01518395
     The core correction contribution to forces
     atom    1 type  1   force =    -0.00000690   -0.00000393   -0.00958540
     atom    2 type  1   force =     0.00000692    0.00000401   -0.00958534
     atom    3 type  2   force =     0.00000220    0.00000126   -0.00134268
     atom    4 type  2   force =    -0.00000218   -0.00000126   -0.00134269
     atom    5 type  1   force =    -0.00000700   -0.00000399   -0.00958538
     atom    6 type  1   force =     0.00000686    0.00000398   -0.00958512
     atom    7 type  2   force =     0.00000220    0.00000127   -0.00134268
     atom    8 type  2   force =    -0.00000218   -0.00000126   -0.00134268
     atom    9 type  1   force =    -0.00000700   -0.00000406   -0.00958522
     atom   10 type  1   force =     0.00000701    0.00000398   -0.00958539
     atom   11 type  2   force =     0.00000218    0.00000126   -0.00134269
     atom   12 type  2   force =    -0.00000219   -0.00000126   -0.00134268
     atom   13 type  1   force =    -0.00000693   -0.00000402   -0.00958523
     atom   14 type  1   force =     0.00000707    0.00000401   -0.00958528
     atom   15 type  2   force =     0.00000217    0.00000126   -0.00134268
     atom   16 type  2   force =    -0.00000220   -0.00000126   -0.00134267
     The Hubbard contrib.    to forces
     atom    1 type  1   force =     0.00000000    0.00000000    0.00000000
     atom    2 type  1   force =     0.00000000    0.00000000    0.00000000
     atom    3 type  2   force =     0.00000000    0.00000000    0.00000000
     atom    4 type  2   force =     0.00000000    0.00000000    0.00000000
     atom    5 type  1   force =     0.00000000    0.00000000    0.00000000
     atom    6 type  1   force =     0.00000000    0.00000000    0.00000000
     atom    7 type  2   force =     0.00000000    0.00000000    0.00000000
     atom    8 type  2   force =     0.00000000    0.00000000    0.00000000
     atom    9 type  1   force =     0.00000000    0.00000000    0.00000000
     atom   10 type  1   force =     0.00000000    0.00000000    0.00000000
     atom   11 type  2   force =     0.00000000    0.00000000    0.00000000
     atom   12 type  2   force =     0.00000000    0.00000000    0.00000000
     atom   13 type  1   force =     0.00000000    0.00000000    0.00000000
     atom   14 type  1   force =     0.00000000    0.00000000    0.00000000
     atom   15 type  2   force =     0.00000000    0.00000000    0.00000000
     atom   16 type  2   force =     0.00000000    0.00000000    0.00000000
     The SCF correction term to forces
     atom    1 type  1   force =    -0.00000274   -0.00000158   -0.00001291
     atom    2 type  1   force =    -0.00000435   -0.00000251   -0.00001395
     atom    3 type  2   force =    -0.00000090   -0.00000052    0.00000542
     atom    4 type  2   force =    -0.00000141   -0.00000081    0.00000179
     atom    5 type  1   force =    -0.00000217   -0.00000126   -0.00000975
     atom    6 type  1   force =    -0.00000678   -0.00000391   -0.00000406
     atom    7 type  2   force =    -0.00000134   -0.00000077    0.00000132
     atom    8 type  2   force =    -0.00000088   -0.00000051    0.00000357
     atom    9 type  1   force =     0.00000353    0.00000204   -0.00000987
     atom   10 type  1   force =     0.00000232    0.00000134   -0.00001530
     atom   11 type  2   force =     0.00000074    0.00000043    0.00000248
     atom   12 type  2   force =     0.00000188    0.00000108    0.00000246
     atom   13 type  1   force =     0.00000528    0.00000305   -0.00000695
     atom   14 type  1   force =     0.00000425    0.00000245   -0.00000867
     atom   15 type  2   force =     0.00000032    0.00000018   -0.00000034
     atom   16 type  2   force =     0.00000123    0.00000071    0.00000550

     Total force =     0.012465     Total SCF correction =     0.000035

     init_run     :     11.60s CPU     11.98s WALL (       1 calls)
     electrons    :    707.15s CPU    725.41s WALL (       1 calls)
     forces       :      6.11s CPU      6.15s WALL (       1 calls)

     Called by init_run:
     wfcinit      :      6.79s CPU      7.05s WALL (       1 calls)
     wfcinit:atom :      0.04s CPU      0.04s WALL (      10 calls)
     wfcinit:wfcr :      6.40s CPU      6.64s WALL (      10 calls)
     potinit      :      1.62s CPU      1.68s WALL (       1 calls)
     hinit0       :      2.95s CPU      2.97s WALL (       1 calls)

     Called by electrons:
     c_bands      :    629.91s CPU    645.14s WALL (      30 calls)
     sum_band     :     63.09s CPU     65.65s WALL (      30 calls)
     v_of_rho     :      8.03s CPU      8.31s WALL (      31 calls)
     v_h          :      0.38s CPU      0.41s WALL (      31 calls)
     v_xc         :      7.90s CPU      8.16s WALL (      32 calls)
     newd         :      4.58s CPU      4.66s WALL (      31 calls)
     mix_rho      :      0.91s CPU      0.96s WALL (      30 calls)

     Called by c_bands:
     init_us_2    :      3.42s CPU      3.45s WALL (     620 calls)
     init_us_2:cp :      3.41s CPU      3.45s WALL (     620 calls)
     cegterg      :    577.34s CPU    592.40s WALL (     300 calls)

     Called by sum_band:
     sum_band:wei :      0.03s CPU      0.03s WALL (      30 calls)
     sum_band:loo :     55.41s CPU     57.66s WALL (      30 calls)
     sum_band:buf :      0.43s CPU      0.45s WALL (     300 calls)
     sum_band:ini :      1.50s CPU      1.51s WALL (     300 calls)
     sum_band:cal :     13.21s CPU     13.30s WALL (     300 calls)
     sum_band:bec :      0.12s CPU      0.12s WALL (     300 calls)
     addusdens    :      2.80s CPU      2.88s WALL (      30 calls)
     addusd:skk   :      0.04s CPU      0.04s WALL (      60 calls)
     addusd:dgemm :      0.76s CPU      0.77s WALL (      60 calls)
     addusd:qvan2 :      1.51s CPU      1.51s WALL (      60 calls)

     Called by *egterg:
     cdiaghg      :     39.15s CPU     40.03s WALL (    1930 calls)
     cegterg:over :     50.08s CPU     50.26s WALL (    1630 calls)
     cegterg:upda :     28.61s CPU     28.75s WALL (    1630 calls)
     cegterg:last :     53.86s CPU     54.10s WALL (     832 calls)
     cdiaghg:chol :      2.19s CPU      2.21s WALL (    1930 calls)
     cdiaghg:inve :      0.60s CPU      0.61s WALL (    1930 calls)
     cdiaghg:para :      6.19s CPU      6.90s WALL (    3860 calls)
     h_psi        :    356.39s CPU    370.11s WALL (    1940 calls)
     s_psi        :     39.03s CPU     39.05s WALL (    1940 calls)
     g_psi        :      1.37s CPU      1.37s WALL (    1630 calls)

     Called by h_psi:
     h_psi:calbec :     47.28s CPU     47.68s WALL (    1940 calls)
     vloc_psi     :    267.98s CPU    281.26s WALL (    1940 calls)
     add_vuspsi   :     39.84s CPU     39.87s WALL (    1940 calls)

     General routines
     calbec       :     62.69s CPU     63.20s WALL (    2280 calls)
     fft          :      5.60s CPU      5.96s WALL (     412 calls)
     ffts         :      0.48s CPU      0.50s WALL (      61 calls)
     fftw         :    278.28s CPU    292.69s WALL (  158960 calls)
     interpolate  :      0.70s CPU      0.73s WALL (      31 calls)

     Parallel routines

     PWSCF        :  12m 5.73s CPU  12m24.45s WALL


   This run was terminated on:   7:58:26  29Aug2025            

=------------------------------------------------------------------------------=
   JOB DONE.
=------------------------------------------------------------------------------=
Note: The following floating-point exceptions are signalling: IEEE_UNDERFLOW_FLAG IEEE_DENORMAL
Note: The following floating-point exceptions are signalling: IEEE_UNDERFLOW_FLAG IEEE_DENORMAL
Note: The following floating-point exceptions are signalling: IEEE_UNDERFLOW_FLAG IEEE_DENORMAL
Note: The following floating-point exceptions are signalling: IEEE_UNDERFLOW_FLAG IEEE_DENORMAL
Note: The following floating-point exceptions are signalling: IEEE_UNDERFLOW_FLAG IEEE_DENORMAL
Note: The following floating-point exceptions are signalling: IEEE_UNDERFLOW_FLAG IEEE_DENORMAL
Note: The following floating-point exceptions are signalling: IEEE_UNDERFLOW_FLAG IEEE_DENORMAL
Note: The following floating-point exceptions are signalling: IEEE_UNDERFLOW_FLAG IEEE_DENORMAL
Note: The following floating-point exceptions are signalling: IEEE_UNDERFLOW_FLAG IEEE_DENORMAL
Note: The following floating-point exceptions are signalling: IEEE_UNDERFLOW_FLAG IEEE_DENORMAL
Note: The following floating-point exceptions are signalling: IEEE_UNDERFLOW_FLAG IEEE_DENORMAL
Note: The following floating-point exceptions are signalling: IEEE_UNDERFLOW_FLAG IEEE_DENORMAL
Note: The following floating-point exceptions are signalling: IEEE_UNDERFLOW_FLAG IEEE_DENORMAL
Note: The following floating-point exceptions are signalling: IEEE_UNDERFLOW_FLAG IEEE_DENORMAL
Note: The following floating-point exceptions are signalling: IEEE_UNDERFLOW_FLAG IEEE_DENORMAL
Note: The following floating-point exceptions are signalling: IEEE_UNDERFLOW_FLAG IEEE_DENORMAL
Note: The following floating-point exceptions are signalling: IEEE_UNDERFLOW_FLAG IEEE_DENORMAL
Note: The following floating-point exceptions are signalling: IEEE_UNDERFLOW_FLAG IEEE_DENORMAL
Note: The following floating-point exceptions are signalling: IEEE_UNDERFLOW_FLAG IEEE_DENORMAL
Note: The following floating-point exceptions are signalling: IEEE_UNDERFLOW_FLAG IEEE_DENORMAL
Note: The following floating-point exceptions are signalling: IEEE_UNDERFLOW_FLAG IEEE_DENORMAL
Note: The following floating-point exceptions are signalling: IEEE_UNDERFLOW_FLAG IEEE_DENORMAL
Note: The following floating-point exceptions are signalling: IEEE_UNDERFLOW_FLAG IEEE_DENORMAL
Note: The following floating-point exceptions are signalling: IEEE_UNDERFLOW_FLAG IEEE_DENORMAL
Note: The following floating-point exceptions are signalling: IEEE_UNDERFLOW_FLAG IEEE_DENORMAL
Note: The following floating-point exceptions are signalling: IEEE_UNDERFLOW_FLAG IEEE_DENORMAL
Note: The following floating-point exceptions are signalling: IEEE_UNDERFLOW_FLAG IEEE_DENORMAL
Note: The following floating-point exceptions are signalling: IEEE_UNDERFLOW_FLAG IEEE_DENORMAL
Note: The following floating-point exceptions are signalling: IEEE_UNDERFLOW_FLAG IEEE_DENORMAL
Note: The following floating-point exceptions are signalling: IEEE_UNDERFLOW_FLAG IEEE_DENORMAL
Note: The following floating-point exceptions are signalling: IEEE_UNDERFLOW_FLAG IEEE_DENORMAL
Note: The following floating-point exceptions are signalling: IEEE_UNDERFLOW_FLAG IEEE_DENORMAL
