
     Program PWSCF v.7.0 starts on 29Aug2025 at  5:12:49 

     This program is part of the open-source Quantum ESPRESSO suite
     for quantum simulation of materials; please cite
         "P. Giannozzi et al., J. Phys.:Condens. Matter 21 395502 (2009);
         "P. Giannozzi et al., J. Phys.:Condens. Matter 29 465901 (2017);
         "P. Giannozzi et al., J. Chem. Phys. 152 154105 (2020);
          URL http://www.quantum-espresso.org", 
     in publications or presentations arising from this work. More details at
     http://www.quantum-espresso.org/quote

     Parallel version (MPI & OpenMP), running on      32 processor cores
     Number of MPI processes:                32
     Threads/MPI process:                     1

     MPI processes distributed on     1 nodes
     K-points division:     npool     =       8
     R & G space division:  proc/nbgrp/npool/nimage =       4
     104892 MiB available memory on the printing compute node when the environment starts

     Reading input from /home/jvc/QEspresso7.2/ZnO_database/scripts/cell212.in/ZnO-3.27-1.71-212.in
Warning: card &CELL ignored
Warning: card / ignored
Warning: card &FCP ignored
Warning: card / ignored
Warning: card &RISM ignored
Warning: card / ignored

     Current dimensions of program PWSCF are:
     Max number of different atomic species (ntypx) = 10
     Max number of k-points (npk) =  40000
     Max angular momentum in pseudopotentials (lmaxx) =  4
     file Zn.upf: wavefunction(s)  3D renormalized
     Found identity + (  0.0000  0.0000  0.5000) symmetry
     This is a supercell, fractional translations are disabled
     Message from routine setup:
     using ibrav=0 with symmetry is DISCOURAGED, use correct ibrav instead

     Subspace diagonalization in iterative solution of the eigenvalue problem:
     one sub-group per band group will be used
     scalapack distributed-memory algorithm (size of sub-group:  2*  2 procs)


     Parallelization info
     --------------------
     sticks:   dense  smooth     PW     G-vecs:    dense   smooth      PW
     Min         525     261     81                47189    16687    2885
     Max         526     262     82                47194    16692    2894
     Sum        2103    1047    325               188769    66761   11553

     Using Slab Decomposition



     bravais-lattice index     =            0
     lattice parameter (alat)  =      12.3577  a.u.
     unit-cell volume          =    1398.3640 (a.u.)^3
     number of atoms/cell      =           16
     number of atomic types    =            2
     number of electrons       =       144.00
     number of Kohn-Sham states=           72
     kinetic-energy cutoff     =      50.0000  Ry
     charge density cutoff     =     400.0000  Ry
     scf convergence threshold =      1.0E-08
     mixing beta               =       0.3000
     number of iterations used =            8  plain     mixing
     Exchange-correlation= PBE
                           (   1   4   3   4   0   0   0)

     celldm(1)=  12.357708  celldm(2)=   0.000000  celldm(3)=   0.000000
     celldm(4)=   0.000000  celldm(5)=   0.000000  celldm(6)=   0.000000

     crystal axes: (cart. coord. in units of alat)
               a(1) = (   1.000000   0.000000   0.000000 )  
               a(2) = (  -0.250000   0.433013   0.000000 )  
               a(3) = (   0.000000   0.000000   1.711220 )  

     reciprocal axes: (cart. coord. in units 2 pi/alat)
               b(1) = (  1.000000  0.577350 -0.000000 )  
               b(2) = (  0.000000  2.309401  0.000000 )  
               b(3) = (  0.000000 -0.000000  0.584378 )  


     PseudoPot. # 1 for Zn read from file:
     /home/jvc/QEspresso7.2/ZnO_database/pseudos/Zn.upf
     MD5 check sum: 7f56cabf9682ed8c977c2f7d0c5985c5
     Pseudo is Ultrasoft + core correction, Zval = 12.0
     Generated using &quot;atomic&quot; code by A. Dal Corso  v.6.2.2
     Using radial grid of 1201 points,  6 beta functions with: 
                l(1) =   0
                l(2) =   0
                l(3) =   1
                l(4) =   1
                l(5) =   2
                l(6) =   2
     Q(r) pseudized with 0 coefficients 


     PseudoPot. # 2 for O  read from file:
     /home/jvc/QEspresso7.2/ZnO_database/pseudos/O.upf
     MD5 check sum: 91400c9766925bcf19f520983a725ff0
     Pseudo is Ultrasoft + core correction, Zval =  6.0
     Generated using &quot;atomic&quot; code by A. Dal Corso  v.6.3MaX
     Using radial grid of 1095 points,  4 beta functions with: 
                l(1) =   0
                l(2) =   0
                l(3) =   1
                l(4) =   1
     Q(r) pseudized with 0 coefficients 


     atomic species   valence    mass     pseudopotential
        Zn            12.00    65.38000     Zn( 1.00)
        O              6.00    15.99900     O ( 1.00)

      2 Sym. Ops. (no inversion) found


                                    s                        frac. trans.

      isym =  1     identity                                     

 cryst.   s( 1) = (     1          0          0      )
                  (     0          1          0      )
                  (     0          0          1      )

 cart.    s( 1) = (  1.0000000  0.0000000  0.0000000 )
                  (  0.0000000  1.0000000  0.0000000 )
                  (  0.0000000  0.0000000  1.0000000 )


      isym =  2     inv. 180 deg rotation - cryst. axis [0,1,0]  

 cryst.   s( 2) = (     1          2          0      )
                  (     0         -1          0      )
                  (     0          0          1      )

 cart.    s( 2) = (  0.5000000  0.8660254  0.0000000 )
                  (  0.8660254 -0.5000000  0.0000000 )
                  (  0.0000000  0.0000000  1.0000000 )


   Cartesian axes

     site n.     atom                  positions (alat units)
         1           Zn  tau(   1) = (   0.2500000   0.1443376   0.4283471  )
         2           Zn  tau(   2) = (  -0.0000000   0.2886751   0.0005421  )
         3           O   tau(   3) = (   0.2500000   0.1443376   0.7526599  )
         4           O   tau(   4) = (  -0.0000000   0.2886751   0.3248549  )
         5           Zn  tau(   5) = (   0.2500000   0.1443376   1.2839570  )
         6           Zn  tau(   6) = (  -0.0000000   0.2886751   0.8561520  )
         7           O   tau(   7) = (   0.2500000   0.1443376   1.6082698  )
         8           O   tau(   8) = (  -0.0000000   0.2886751   1.1804648  )
         9           Zn  tau(   9) = (   0.7500000   0.1443376   0.4283471  )
        10           Zn  tau(  10) = (   0.5000000   0.2886751   0.0005421  )
        11           O   tau(  11) = (   0.7500000   0.1443376   0.7526599  )
        12           O   tau(  12) = (   0.5000000   0.2886751   0.3248549  )
        13           Zn  tau(  13) = (   0.7500000   0.1443376   1.2839570  )
        14           Zn  tau(  14) = (   0.5000000   0.2886751   0.8561520  )
        15           O   tau(  15) = (   0.7500000   0.1443376   1.6082698  )
        16           O   tau(  16) = (   0.5000000   0.2886751   1.1804648  )

   Crystallographic axes

     site n.     atom                  positions (cryst. coord.)
         1           Zn  tau(   1) = (  0.3333333  0.3333333  0.2503168  )
         2           Zn  tau(   2) = (  0.1666667  0.6666667  0.0003168  )
         3           O   tau(   3) = (  0.3333333  0.3333333  0.4398382  )
         4           O   tau(   4) = (  0.1666667  0.6666667  0.1898382  )
         5           Zn  tau(   5) = (  0.3333333  0.3333333  0.7503168  )
         6           Zn  tau(   6) = (  0.1666667  0.6666667  0.5003168  )
         7           O   tau(   7) = (  0.3333333  0.3333333  0.9398382  )
         8           O   tau(   8) = (  0.1666667  0.6666667  0.6898382  )
         9           Zn  tau(   9) = (  0.8333333  0.3333333  0.2503168  )
        10           Zn  tau(  10) = (  0.6666667  0.6666667  0.0003168  )
        11           O   tau(  11) = (  0.8333333  0.3333333  0.4398382  )
        12           O   tau(  12) = (  0.6666667  0.6666667  0.1898382  )
        13           Zn  tau(  13) = (  0.8333333  0.3333333  0.7503168  )
        14           Zn  tau(  14) = (  0.6666667  0.6666667  0.5003168  )
        15           O   tau(  15) = (  0.8333333  0.3333333  0.9398382  )
        16           O   tau(  16) = (  0.6666667  0.6666667  0.6898382  )

     number of k points=    80
                       cart. coord. in units 2pi/alat
        k(    1) = (   0.0000000   0.0000000   0.0000000), wk =   0.0092593
        k(    2) = (   0.0000000   0.0000000   0.0973964), wk =   0.0185185
        k(    3) = (   0.0000000   0.0000000   0.1947928), wk =   0.0185185
        k(    4) = (   0.0000000   0.0000000  -0.2921892), wk =   0.0092593
        k(    5) = (   0.0000000   0.3849002   0.0000000), wk =   0.0370370
        k(    6) = (   0.0000000   0.3849002   0.0973964), wk =   0.0370370
        k(    7) = (   0.0000000   0.3849002   0.1947928), wk =   0.0370370
        k(    8) = (   0.0000000   0.3849002  -0.2921892), wk =   0.0370370
        k(    9) = (   0.0000000   0.7698004   0.0000000), wk =   0.0370370
        k(   10) = (   0.0000000   0.7698004   0.0973964), wk =   0.0370370
        k(   11) = (   0.0000000   0.7698004   0.1947928), wk =   0.0370370
        k(   12) = (   0.0000000   0.7698004  -0.2921892), wk =   0.0370370
        k(   13) = (   0.0000000  -1.1547005   0.0000000), wk =   0.0092593
        k(   14) = (   0.0000000  -1.1547005   0.0973964), wk =   0.0185185
        k(   15) = (   0.0000000  -1.1547005   0.1947928), wk =   0.0185185
        k(   16) = (   0.0000000  -1.1547005  -0.2921892), wk =   0.0092593
        k(   17) = (   0.1666667   0.0962250   0.0000000), wk =   0.0185185
        k(   18) = (   0.1666667   0.0962250   0.0973964), wk =   0.0185185
        k(   19) = (   0.1666667   0.0962250   0.1947928), wk =   0.0185185
        k(   20) = (   0.1666667   0.0962250  -0.2921892), wk =   0.0185185
        k(   21) = (   0.1666667   0.4811252   0.0000000), wk =   0.0370370
        k(   22) = (   0.1666667   0.4811252   0.0973964), wk =   0.0370370
        k(   23) = (   0.1666667   0.4811252   0.1947928), wk =   0.0370370
        k(   24) = (   0.1666667   0.4811252  -0.2921892), wk =   0.0370370
        k(   25) = (   0.1666667   0.8660254   0.0000000), wk =   0.0185185
        k(   26) = (   0.1666667   0.8660254   0.0973964), wk =   0.0370370
        k(   27) = (   0.1666667   0.8660254   0.1947928), wk =   0.0370370
        k(   28) = (   0.1666667   0.8660254  -0.2921892), wk =   0.0185185
        k(   29) = (   0.1666667  -1.0584755   0.0000000), wk =   0.0185185
        k(   30) = (   0.1666667  -1.0584755   0.0973964), wk =   0.0185185
        k(   31) = (   0.1666667  -1.0584755   0.1947928), wk =   0.0185185
        k(   32) = (   0.1666667  -1.0584755  -0.2921892), wk =   0.0185185
        k(   33) = (   0.1666667  -0.6735753   0.0000000), wk =   0.0370370
        k(   34) = (   0.1666667  -0.6735753   0.0973964), wk =   0.0370370
        k(   35) = (   0.1666667  -0.6735753   0.1947928), wk =   0.0370370
        k(   36) = (   0.1666667  -0.6735753  -0.2921892), wk =   0.0370370
        k(   37) = (   0.1666667  -0.2886751   0.0000000), wk =   0.0185185
        k(   38) = (   0.1666667  -0.2886751   0.0973964), wk =   0.0370370
        k(   39) = (   0.1666667  -0.2886751   0.1947928), wk =   0.0370370
        k(   40) = (   0.1666667  -0.2886751  -0.2921892), wk =   0.0185185
        k(   41) = (   0.3333333   0.1924501   0.0000000), wk =   0.0185185
        k(   42) = (   0.3333333   0.1924501   0.0973964), wk =   0.0185185
        k(   43) = (   0.3333333   0.1924501   0.1947928), wk =   0.0185185
        k(   44) = (   0.3333333   0.1924501  -0.2921892), wk =   0.0185185
        k(   45) = (   0.3333333   0.5773503   0.0000000), wk =   0.0185185
        k(   46) = (   0.3333333   0.5773503   0.0973964), wk =   0.0370370
        k(   47) = (   0.3333333   0.5773503   0.1947928), wk =   0.0370370
        k(   48) = (   0.3333333   0.5773503  -0.2921892), wk =   0.0185185
        k(   49) = (   0.3333333  -0.9622504   0.0000000), wk =   0.0185185
        k(   50) = (   0.3333333  -0.9622504   0.0973964), wk =   0.0185185
        k(   51) = (   0.3333333  -0.9622504   0.1947928), wk =   0.0185185
        k(   52) = (   0.3333333  -0.9622504  -0.2921892), wk =   0.0185185
        k(   53) = (   0.3333333  -0.5773503   0.0000000), wk =   0.0185185
        k(   54) = (   0.3333333  -0.5773503   0.0973964), wk =   0.0370370
        k(   55) = (   0.3333333  -0.5773503   0.1947928), wk =   0.0370370
        k(   56) = (   0.3333333  -0.5773503  -0.2921892), wk =   0.0185185
        k(   57) = (  -0.5000000  -0.2886751   0.0000000), wk =   0.0092593
        k(   58) = (  -0.5000000  -0.2886751   0.0973964), wk =   0.0185185
        k(   59) = (  -0.5000000  -0.2886751   0.1947928), wk =   0.0185185
        k(   60) = (  -0.5000000  -0.2886751  -0.2921892), wk =   0.0092593
        k(   61) = (  -0.5000000  -1.4433757   0.0000000), wk =   0.0092593
        k(   62) = (  -0.5000000  -1.4433757   0.0973964), wk =   0.0185185
        k(   63) = (  -0.5000000  -1.4433757   0.1947928), wk =   0.0185185
        k(   64) = (  -0.5000000  -1.4433757  -0.2921892), wk =   0.0092593
        k(   65) = (   0.3333333  -0.1924501  -0.0973964), wk =   0.0370370
        k(   66) = (   0.3333333  -0.1924501  -0.1947928), wk =   0.0370370
        k(   67) = (   0.6666667  -0.3849002  -0.0973964), wk =   0.0370370
        k(   68) = (   0.6666667  -0.3849002  -0.1947928), wk =   0.0370370
        k(   69) = (   0.1666667   0.0962250  -0.0973964), wk =   0.0185185
        k(   70) = (   0.1666667   0.0962250  -0.1947928), wk =   0.0185185
        k(   71) = (   0.5000000  -0.0962250  -0.0973964), wk =   0.0370370
        k(   72) = (   0.5000000  -0.0962250  -0.1947928), wk =   0.0370370
        k(   73) = (  -0.8333333   0.6735753  -0.0973964), wk =   0.0185185
        k(   74) = (  -0.8333333   0.6735753  -0.1947928), wk =   0.0185185
        k(   75) = (  -0.5000000   0.4811252  -0.0973964), wk =   0.0370370
        k(   76) = (  -0.5000000   0.4811252  -0.1947928), wk =   0.0370370
        k(   77) = (   0.3333333   0.1924501  -0.0973964), wk =   0.0185185
        k(   78) = (   0.3333333   0.1924501  -0.1947928), wk =   0.0185185
        k(   79) = (  -0.6666667   0.7698004  -0.0973964), wk =   0.0185185
        k(   80) = (  -0.6666667   0.7698004  -0.1947928), wk =   0.0185185

                       cryst. coord.
        k(    1) = (   0.0000000   0.0000000   0.0000000), wk =   0.0092593
        k(    2) = (   0.0000000   0.0000000   0.1666667), wk =   0.0185185
        k(    3) = (   0.0000000   0.0000000   0.3333333), wk =   0.0185185
        k(    4) = (   0.0000000   0.0000000  -0.5000000), wk =   0.0092593
        k(    5) = (   0.0000000   0.1666667   0.0000000), wk =   0.0370370
        k(    6) = (   0.0000000   0.1666667   0.1666667), wk =   0.0370370
        k(    7) = (   0.0000000   0.1666667   0.3333333), wk =   0.0370370
        k(    8) = (   0.0000000   0.1666667  -0.5000000), wk =   0.0370370
        k(    9) = (   0.0000000   0.3333333   0.0000000), wk =   0.0370370
        k(   10) = (   0.0000000   0.3333333   0.1666667), wk =   0.0370370
        k(   11) = (   0.0000000   0.3333333   0.3333333), wk =   0.0370370
        k(   12) = (   0.0000000   0.3333333  -0.5000000), wk =   0.0370370
        k(   13) = (   0.0000000  -0.5000000   0.0000000), wk =   0.0092593
        k(   14) = (   0.0000000  -0.5000000   0.1666667), wk =   0.0185185
        k(   15) = (   0.0000000  -0.5000000   0.3333333), wk =   0.0185185
        k(   16) = (   0.0000000  -0.5000000  -0.5000000), wk =   0.0092593
        k(   17) = (   0.1666667  -0.0000000   0.0000000), wk =   0.0185185
        k(   18) = (   0.1666667  -0.0000000   0.1666667), wk =   0.0185185
        k(   19) = (   0.1666667  -0.0000000   0.3333333), wk =   0.0185185
        k(   20) = (   0.1666667  -0.0000000  -0.5000000), wk =   0.0185185
        k(   21) = (   0.1666667   0.1666667   0.0000000), wk =   0.0370370
        k(   22) = (   0.1666667   0.1666667   0.1666667), wk =   0.0370370
        k(   23) = (   0.1666667   0.1666667   0.3333333), wk =   0.0370370
        k(   24) = (   0.1666667   0.1666667  -0.5000000), wk =   0.0370370
        k(   25) = (   0.1666667   0.3333333   0.0000000), wk =   0.0185185
        k(   26) = (   0.1666667   0.3333333   0.1666667), wk =   0.0370370
        k(   27) = (   0.1666667   0.3333333   0.3333333), wk =   0.0370370
        k(   28) = (   0.1666667   0.3333333  -0.5000000), wk =   0.0185185
        k(   29) = (   0.1666667  -0.5000000   0.0000000), wk =   0.0185185
        k(   30) = (   0.1666667  -0.5000000   0.1666667), wk =   0.0185185
        k(   31) = (   0.1666667  -0.5000000   0.3333333), wk =   0.0185185
        k(   32) = (   0.1666667  -0.5000000  -0.5000000), wk =   0.0185185
        k(   33) = (   0.1666667  -0.3333333   0.0000000), wk =   0.0370370
        k(   34) = (   0.1666667  -0.3333333   0.1666667), wk =   0.0370370
        k(   35) = (   0.1666667  -0.3333333   0.3333333), wk =   0.0370370
        k(   36) = (   0.1666667  -0.3333333  -0.5000000), wk =   0.0370370
        k(   37) = (   0.1666667  -0.1666667   0.0000000), wk =   0.0185185
        k(   38) = (   0.1666667  -0.1666667   0.1666667), wk =   0.0370370
        k(   39) = (   0.1666667  -0.1666667   0.3333333), wk =   0.0370370
        k(   40) = (   0.1666667  -0.1666667  -0.5000000), wk =   0.0185185
        k(   41) = (   0.3333333  -0.0000000   0.0000000), wk =   0.0185185
        k(   42) = (   0.3333333  -0.0000000   0.1666667), wk =   0.0185185
        k(   43) = (   0.3333333  -0.0000000   0.3333333), wk =   0.0185185
        k(   44) = (   0.3333333  -0.0000000  -0.5000000), wk =   0.0185185
        k(   45) = (   0.3333333   0.1666667   0.0000000), wk =   0.0185185
        k(   46) = (   0.3333333   0.1666667   0.1666667), wk =   0.0370370
        k(   47) = (   0.3333333   0.1666667   0.3333333), wk =   0.0370370
        k(   48) = (   0.3333333   0.1666667  -0.5000000), wk =   0.0185185
        k(   49) = (   0.3333333  -0.5000000   0.0000000), wk =   0.0185185
        k(   50) = (   0.3333333  -0.5000000   0.1666667), wk =   0.0185185
        k(   51) = (   0.3333333  -0.5000000   0.3333333), wk =   0.0185185
        k(   52) = (   0.3333333  -0.5000000  -0.5000000), wk =   0.0185185
        k(   53) = (   0.3333333  -0.3333333   0.0000000), wk =   0.0185185
        k(   54) = (   0.3333333  -0.3333333   0.1666667), wk =   0.0370370
        k(   55) = (   0.3333333  -0.3333333   0.3333333), wk =   0.0370370
        k(   56) = (   0.3333333  -0.3333333  -0.5000000), wk =   0.0185185
        k(   57) = (  -0.5000000   0.0000000   0.0000000), wk =   0.0092593
        k(   58) = (  -0.5000000   0.0000000   0.1666667), wk =   0.0185185
        k(   59) = (  -0.5000000   0.0000000   0.3333333), wk =   0.0185185
        k(   60) = (  -0.5000000   0.0000000  -0.5000000), wk =   0.0092593
        k(   61) = (  -0.5000000  -0.5000000   0.0000000), wk =   0.0092593
        k(   62) = (  -0.5000000  -0.5000000   0.1666667), wk =   0.0185185
        k(   63) = (  -0.5000000  -0.5000000   0.3333333), wk =   0.0185185
        k(   64) = (  -0.5000000  -0.5000000  -0.5000000), wk =   0.0092593
        k(   65) = (   0.3333333  -0.1666667  -0.1666667), wk =   0.0370370
        k(   66) = (   0.3333333  -0.1666667  -0.3333333), wk =   0.0370370
        k(   67) = (   0.6666667  -0.3333333  -0.1666667), wk =   0.0370370
        k(   68) = (   0.6666667  -0.3333333  -0.3333333), wk =   0.0370370
        k(   69) = (   0.1666667   0.0000000  -0.1666667), wk =   0.0185185
        k(   70) = (   0.1666667   0.0000000  -0.3333333), wk =   0.0185185
        k(   71) = (   0.5000000  -0.1666667  -0.1666667), wk =   0.0370370
        k(   72) = (   0.5000000  -0.1666667  -0.3333333), wk =   0.0370370
        k(   73) = (  -0.8333333   0.5000000  -0.1666667), wk =   0.0185185
        k(   74) = (  -0.8333333   0.5000000  -0.3333333), wk =   0.0185185
        k(   75) = (  -0.5000000   0.3333333  -0.1666667), wk =   0.0370370
        k(   76) = (  -0.5000000   0.3333333  -0.3333333), wk =   0.0370370
        k(   77) = (   0.3333333   0.0000000  -0.1666667), wk =   0.0185185
        k(   78) = (   0.3333333   0.0000000  -0.3333333), wk =   0.0185185
        k(   79) = (  -0.6666667   0.5000000  -0.1666667), wk =   0.0185185
        k(   80) = (  -0.6666667   0.5000000  -0.3333333), wk =   0.0185185

     Dense  grid:   188769 G-vectors     FFT dimensions: (  80,  40, 135)

     Smooth grid:    66761 G-vectors     FFT dimensions: (  60,  27,  96)

     Dynamical RAM for                 wfc:       2.29 MB

     Dynamical RAM for     wfc (w. buffer):      25.22 MB

     Dynamical RAM for           str. fact:       1.44 MB

     Dynamical RAM for           local pot:       0.00 MB

     Dynamical RAM for          nlocal pot:       6.62 MB

     Dynamical RAM for                qrad:       3.21 MB

     Dynamical RAM for          rho,v,vnew:       4.65 MB

     Dynamical RAM for               rhoin:       1.55 MB

     Dynamical RAM for            rho*nmix:      11.52 MB

     Dynamical RAM for           G-vectors:       2.83 MB

     Dynamical RAM for          h,s,v(r/c):       0.24 MB

     Dynamical RAM for          <psi|beta>:       0.23 MB

     Dynamical RAM for                 psi:       4.59 MB

     Dynamical RAM for                hpsi:       4.59 MB

     Dynamical RAM for                spsi:       4.59 MB

     Dynamical RAM for      wfcinit/wfcrot:       6.87 MB

     Dynamical RAM for           addusdens:      18.09 MB

     Dynamical RAM for          addusforce:      19.11 MB

     Estimated static dynamical RAM per process >      51.84 MB

     Estimated max dynamical RAM per process >      82.47 MB

     Estimated total dynamical RAM >       2.26 GB

     Check: negative core charge=   -0.000002

     Initial potential from superposition of free atoms

     starting charge     143.9702, renormalised to     144.0000
     Starting wfcs are  104 randomized atomic wfcs

     total cpu time spent up to now is       12.8 secs

     per-process dynamical memory:    70.8 Mb

     Self-consistent Calculation

     iteration #  1     ecut=    50.00 Ry     beta= 0.30
     Davidson diagonalization with overlap

---- Real-time Memory Report at c_bands before calling an iterative solver
            98 MiB given to the printing process from OS
            69 MiB allocation reported by mallinfo(arena+hblkhd)
        102702 MiB available memory on the node where the printing process lives
------------------
     ethr =  1.00E-02,  avg # of iterations =  1.9

     total cpu time spent up to now is       28.2 secs

     total energy              =   -1445.85523413 Ry
     estimated scf accuracy    <       2.86543924 Ry

     iteration #  2     ecut=    50.00 Ry     beta= 0.30
     Davidson diagonalization with overlap

---- Real-time Memory Report at c_bands before calling an iterative solver
           125 MiB given to the printing process from OS
            95 MiB allocation reported by mallinfo(arena+hblkhd)
        101970 MiB available memory on the node where the printing process lives
------------------
     ethr =  1.99E-03,  avg # of iterations =  2.0

     total cpu time spent up to now is       46.9 secs

     total energy              =   -1446.29283187 Ry
     estimated scf accuracy    <       0.33659300 Ry

     iteration #  3     ecut=    50.00 Ry     beta= 0.30
     Davidson diagonalization with overlap

---- Real-time Memory Report at c_bands before calling an iterative solver
           125 MiB given to the printing process from OS
            95 MiB allocation reported by mallinfo(arena+hblkhd)
        102082 MiB available memory on the node where the printing process lives
------------------
     ethr =  2.34E-04,  avg # of iterations =  7.0

     total cpu time spent up to now is       78.6 secs

     total energy              =   -1446.39822238 Ry
     estimated scf accuracy    <       0.25386791 Ry

     iteration #  4     ecut=    50.00 Ry     beta= 0.30
     Davidson diagonalization with overlap

---- Real-time Memory Report at c_bands before calling an iterative solver
           125 MiB given to the printing process from OS
            95 MiB allocation reported by mallinfo(arena+hblkhd)
        102032 MiB available memory on the node where the printing process lives
------------------
     ethr =  1.76E-04,  avg # of iterations =  9.1

     total cpu time spent up to now is      117.9 secs

     total energy              =   -1446.55127607 Ry
     estimated scf accuracy    <       0.90988305 Ry

     iteration #  5     ecut=    50.00 Ry     beta= 0.30
     Davidson diagonalization with overlap

---- Real-time Memory Report at c_bands before calling an iterative solver
           125 MiB given to the printing process from OS
            95 MiB allocation reported by mallinfo(arena+hblkhd)
        102014 MiB available memory on the node where the printing process lives
------------------
     ethr =  1.76E-04,  avg # of iterations =  2.0

     total cpu time spent up to now is      133.7 secs

     total energy              =   -1446.14688027 Ry
     estimated scf accuracy    <       0.50442414 Ry

     iteration #  6     ecut=    50.00 Ry     beta= 0.30
     Davidson diagonalization with overlap

---- Real-time Memory Report at c_bands before calling an iterative solver
           125 MiB given to the printing process from OS
            95 MiB allocation reported by mallinfo(arena+hblkhd)
        102025 MiB available memory on the node where the printing process lives
------------------
     c_bands:  1 eigenvalues not converged
     ethr =  1.76E-04,  avg # of iterations = 11.7

     total cpu time spent up to now is      178.2 secs

     total energy              =   -1446.23773948 Ry
     estimated scf accuracy    <       3.67398178 Ry

     iteration #  7     ecut=    50.00 Ry     beta= 0.30
     Davidson diagonalization with overlap

---- Real-time Memory Report at c_bands before calling an iterative solver
           125 MiB given to the printing process from OS
            95 MiB allocation reported by mallinfo(arena+hblkhd)
        102003 MiB available memory on the node where the printing process lives
------------------
     ethr =  1.76E-04,  avg # of iterations =  7.8

     total cpu time spent up to now is      212.1 secs

     total energy              =   -1446.50130109 Ry
     estimated scf accuracy    <       0.31338452 Ry

     iteration #  8     ecut=    50.00 Ry     beta= 0.30
     Davidson diagonalization with overlap

---- Real-time Memory Report at c_bands before calling an iterative solver
           125 MiB given to the printing process from OS
            95 MiB allocation reported by mallinfo(arena+hblkhd)
        102012 MiB available memory on the node where the printing process lives
------------------
     ethr =  1.76E-04,  avg # of iterations =  1.9

     total cpu time spent up to now is      227.8 secs

     total energy              =   -1446.50161336 Ry
     estimated scf accuracy    <       0.15083160 Ry

     iteration #  9     ecut=    50.00 Ry     beta= 0.30
     Davidson diagonalization with overlap

---- Real-time Memory Report at c_bands before calling an iterative solver
           125 MiB given to the printing process from OS
            95 MiB allocation reported by mallinfo(arena+hblkhd)
        102012 MiB available memory on the node where the printing process lives
------------------
     ethr =  1.05E-04,  avg # of iterations =  2.1

     total cpu time spent up to now is      243.9 secs

     total energy              =   -1446.49378769 Ry
     estimated scf accuracy    <       0.09898050 Ry

     iteration # 10     ecut=    50.00 Ry     beta= 0.30
     Davidson diagonalization with overlap

---- Real-time Memory Report at c_bands before calling an iterative solver
           125 MiB given to the printing process from OS
            95 MiB allocation reported by mallinfo(arena+hblkhd)
        102005 MiB available memory on the node where the printing process lives
------------------
     ethr =  6.87E-05,  avg # of iterations =  5.4

     total cpu time spent up to now is      263.5 secs

     total energy              =   -1446.50617950 Ry
     estimated scf accuracy    <       0.02552077 Ry

     iteration # 11     ecut=    50.00 Ry     beta= 0.30
     Davidson diagonalization with overlap

---- Real-time Memory Report at c_bands before calling an iterative solver
           125 MiB given to the printing process from OS
            95 MiB allocation reported by mallinfo(arena+hblkhd)
        102010 MiB available memory on the node where the printing process lives
------------------
     ethr =  1.77E-05,  avg # of iterations =  5.4

     total cpu time spent up to now is      287.4 secs

     total energy              =   -1446.51687328 Ry
     estimated scf accuracy    <       0.00092874 Ry

     iteration # 12     ecut=    50.00 Ry     beta= 0.30
     Davidson diagonalization with overlap

---- Real-time Memory Report at c_bands before calling an iterative solver
           125 MiB given to the printing process from OS
            95 MiB allocation reported by mallinfo(arena+hblkhd)
        101995 MiB available memory on the node where the printing process lives
------------------
     c_bands:  1 eigenvalues not converged
     ethr =  6.45E-07,  avg # of iterations = 10.7

     total cpu time spent up to now is      329.3 secs

     total energy              =   -1446.51987680 Ry
     estimated scf accuracy    <       0.00423727 Ry

     iteration # 13     ecut=    50.00 Ry     beta= 0.30
     Davidson diagonalization with overlap

---- Real-time Memory Report at c_bands before calling an iterative solver
           125 MiB given to the printing process from OS
            95 MiB allocation reported by mallinfo(arena+hblkhd)
        101998 MiB available memory on the node where the printing process lives
------------------
     ethr =  6.45E-07,  avg # of iterations =  1.9

     total cpu time spent up to now is      344.6 secs

     total energy              =   -1446.52068928 Ry
     estimated scf accuracy    <       0.00580926 Ry

     iteration # 14     ecut=    50.00 Ry     beta= 0.30
     Davidson diagonalization with overlap

---- Real-time Memory Report at c_bands before calling an iterative solver
           125 MiB given to the printing process from OS
            95 MiB allocation reported by mallinfo(arena+hblkhd)
        101998 MiB available memory on the node where the printing process lives
------------------
     ethr =  6.45E-07,  avg # of iterations =  4.2

     total cpu time spent up to now is      363.7 secs

     total energy              =   -1446.51970769 Ry
     estimated scf accuracy    <       0.00946009 Ry

     iteration # 15     ecut=    50.00 Ry     beta= 0.30
     Davidson diagonalization with overlap

---- Real-time Memory Report at c_bands before calling an iterative solver
           125 MiB given to the printing process from OS
            95 MiB allocation reported by mallinfo(arena+hblkhd)
        101999 MiB available memory on the node where the printing process lives
------------------
     ethr =  6.45E-07,  avg # of iterations =  1.2

     total cpu time spent up to now is      377.9 secs

     total energy              =   -1446.51942761 Ry
     estimated scf accuracy    <       0.00750830 Ry

     iteration # 16     ecut=    50.00 Ry     beta= 0.30
     Davidson diagonalization with overlap

---- Real-time Memory Report at c_bands before calling an iterative solver
           125 MiB given to the printing process from OS
            95 MiB allocation reported by mallinfo(arena+hblkhd)
        101999 MiB available memory on the node where the printing process lives
------------------
     ethr =  6.45E-07,  avg # of iterations =  2.0

     total cpu time spent up to now is      393.3 secs

     total energy              =   -1446.51968692 Ry
     estimated scf accuracy    <       0.00631205 Ry

     iteration # 17     ecut=    50.00 Ry     beta= 0.30
     Davidson diagonalization with overlap

---- Real-time Memory Report at c_bands before calling an iterative solver
           125 MiB given to the printing process from OS
            95 MiB allocation reported by mallinfo(arena+hblkhd)
        101999 MiB available memory on the node where the printing process lives
------------------
     ethr =  6.45E-07,  avg # of iterations =  1.0

     total cpu time spent up to now is      407.1 secs

     total energy              =   -1446.51801123 Ry
     estimated scf accuracy    <       0.00664767 Ry

     iteration # 18     ecut=    50.00 Ry     beta= 0.30
     Davidson diagonalization with overlap

---- Real-time Memory Report at c_bands before calling an iterative solver
           125 MiB given to the printing process from OS
            95 MiB allocation reported by mallinfo(arena+hblkhd)
        101999 MiB available memory on the node where the printing process lives
------------------
     ethr =  6.45E-07,  avg # of iterations =  5.6

     total cpu time spent up to now is      430.0 secs

     total energy              =   -1446.51810417 Ry
     estimated scf accuracy    <       0.00179468 Ry

     iteration # 19     ecut=    50.00 Ry     beta= 0.30
     Davidson diagonalization with overlap

---- Real-time Memory Report at c_bands before calling an iterative solver
           125 MiB given to the printing process from OS
            95 MiB allocation reported by mallinfo(arena+hblkhd)
        101999 MiB available memory on the node where the printing process lives
------------------
     ethr =  6.45E-07,  avg # of iterations =  3.4

     total cpu time spent up to now is      447.0 secs

     total energy              =   -1446.51782320 Ry
     estimated scf accuracy    <       0.00105283 Ry

     iteration # 20     ecut=    50.00 Ry     beta= 0.30
     Davidson diagonalization with overlap

---- Real-time Memory Report at c_bands before calling an iterative solver
           125 MiB given to the printing process from OS
            95 MiB allocation reported by mallinfo(arena+hblkhd)
        101999 MiB available memory on the node where the printing process lives
------------------
     ethr =  6.45E-07,  avg # of iterations =  5.2

     total cpu time spent up to now is      468.8 secs

     total energy              =   -1446.51807960 Ry
     estimated scf accuracy    <       0.00002191 Ry

     iteration # 21     ecut=    50.00 Ry     beta= 0.30
     Davidson diagonalization with overlap

---- Real-time Memory Report at c_bands before calling an iterative solver
           125 MiB given to the printing process from OS
            95 MiB allocation reported by mallinfo(arena+hblkhd)
        101999 MiB available memory on the node where the printing process lives
------------------
     c_bands:  1 eigenvalues not converged
     c_bands:  1 eigenvalues not converged
     ethr =  1.52E-08,  avg # of iterations = 13.4

     total cpu time spent up to now is      523.6 secs

     total energy              =   -1446.51789958 Ry
     estimated scf accuracy    <       0.00106450 Ry

     iteration # 22     ecut=    50.00 Ry     beta= 0.30
     Davidson diagonalization with overlap

---- Real-time Memory Report at c_bands before calling an iterative solver
           125 MiB given to the printing process from OS
            95 MiB allocation reported by mallinfo(arena+hblkhd)
        101999 MiB available memory on the node where the printing process lives
------------------
     c_bands:  1 eigenvalues not converged
     ethr =  1.52E-08,  avg # of iterations = 12.9

     total cpu time spent up to now is      577.7 secs

     total energy              =   -1446.51813757 Ry
     estimated scf accuracy    <       0.00003877 Ry

     iteration # 23     ecut=    50.00 Ry     beta= 0.30
     Davidson diagonalization with overlap

---- Real-time Memory Report at c_bands before calling an iterative solver
           125 MiB given to the printing process from OS
            95 MiB allocation reported by mallinfo(arena+hblkhd)
        101999 MiB available memory on the node where the printing process lives
------------------
     ethr =  1.52E-08,  avg # of iterations =  8.7

     total cpu time spent up to now is      614.3 secs

     total energy              =   -1446.51811011 Ry
     estimated scf accuracy    <       0.00020816 Ry

     iteration # 24     ecut=    50.00 Ry     beta= 0.30
     Davidson diagonalization with overlap

---- Real-time Memory Report at c_bands before calling an iterative solver
           125 MiB given to the printing process from OS
            95 MiB allocation reported by mallinfo(arena+hblkhd)
        101997 MiB available memory on the node where the printing process lives
------------------
     ethr =  1.52E-08,  avg # of iterations =  6.2

     total cpu time spent up to now is      643.5 secs

     total energy              =   -1446.51810709 Ry
     estimated scf accuracy    <       0.00004661 Ry

     iteration # 25     ecut=    50.00 Ry     beta= 0.30
     Davidson diagonalization with overlap

---- Real-time Memory Report at c_bands before calling an iterative solver
           125 MiB given to the printing process from OS
            95 MiB allocation reported by mallinfo(arena+hblkhd)
        101999 MiB available memory on the node where the printing process lives
------------------
     ethr =  1.52E-08,  avg # of iterations =  6.0

     total cpu time spent up to now is      666.8 secs

     total energy              =   -1446.51811187 Ry
     estimated scf accuracy    <       0.00000336 Ry

     iteration # 26     ecut=    50.00 Ry     beta= 0.30
     Davidson diagonalization with overlap

---- Real-time Memory Report at c_bands before calling an iterative solver
           125 MiB given to the printing process from OS
            95 MiB allocation reported by mallinfo(arena+hblkhd)
        101999 MiB available memory on the node where the printing process lives
------------------
     ethr =  2.33E-09,  avg # of iterations =  7.6

     total cpu time spent up to now is      699.8 secs

     total energy              =   -1446.51811493 Ry
     estimated scf accuracy    <       0.00000214 Ry

     iteration # 27     ecut=    50.00 Ry     beta= 0.30
     Davidson diagonalization with overlap

---- Real-time Memory Report at c_bands before calling an iterative solver
           125 MiB given to the printing process from OS
            95 MiB allocation reported by mallinfo(arena+hblkhd)
        101999 MiB available memory on the node where the printing process lives
------------------
     ethr =  1.49E-09,  avg # of iterations =  2.0

     total cpu time spent up to now is      716.8 secs

     total energy              =   -1446.51811482 Ry
     estimated scf accuracy    <       0.00000038 Ry

     iteration # 28     ecut=    50.00 Ry     beta= 0.30
     Davidson diagonalization with overlap

---- Real-time Memory Report at c_bands before calling an iterative solver
           125 MiB given to the printing process from OS
            95 MiB allocation reported by mallinfo(arena+hblkhd)
        101999 MiB available memory on the node where the printing process lives
------------------
     ethr =  2.64E-10,  avg # of iterations =  9.9

     total cpu time spent up to now is      759.0 secs

     total energy              =   -1446.51811496 Ry
     estimated scf accuracy    <       0.00000248 Ry

     iteration # 29     ecut=    50.00 Ry     beta= 0.30
     Davidson diagonalization with overlap

---- Real-time Memory Report at c_bands before calling an iterative solver
           125 MiB given to the printing process from OS
            95 MiB allocation reported by mallinfo(arena+hblkhd)
        101999 MiB available memory on the node where the printing process lives
------------------
     ethr =  2.64E-10,  avg # of iterations =  7.1

     total cpu time spent up to now is      792.5 secs

     total energy              =   -1446.51811530 Ry
     estimated scf accuracy    <       0.00000004 Ry

     iteration # 30     ecut=    50.00 Ry     beta= 0.30
     Davidson diagonalization with overlap

---- Real-time Memory Report at c_bands before calling an iterative solver
           125 MiB given to the printing process from OS
            95 MiB allocation reported by mallinfo(arena+hblkhd)
        101999 MiB available memory on the node where the printing process lives
------------------
     ethr =  3.02E-11,  avg # of iterations =  6.2

     total cpu time spent up to now is      815.7 secs

     End of self-consistent calculation

          k = 0.0000 0.0000 0.0000 (  8327 PWs)   bands (ev):

   -11.4048 -11.1518 -11.1518 -10.8850 -10.8069 -10.7248 -10.7247 -10.6498
     0.4825   0.4825   0.5593   0.6267   0.6267   0.6907   0.6910   0.7392
     0.7486   0.7486   0.7488   0.7488   0.7501   0.8307   0.8309   0.8943
     0.9408   1.1197   1.1197   1.3000   1.3045   1.3045   1.3372   1.4502
     1.6907   1.6907   1.7340   1.7693   1.7693   1.7693   1.7693   1.8298
     1.8298   1.8314   1.8464   1.8464   1.8785   1.9101   1.9101   1.9520
     2.1686   2.3624   2.4120   2.4120   2.6863   3.5319   3.7529   3.7529
     4.2577   4.7024   4.7024   4.8010   4.8010   4.8782   5.3077   5.5411
     5.5416   5.8308   5.8308   5.8313   5.8313   5.8988   6.1174   6.1179

     occupation numbers 
     1.0000   1.0000   1.0000   1.0000   1.0000   1.0000   1.0000   1.0000
     1.0000   1.0000   1.0000   1.0000   1.0000   1.0000   1.0000   1.0000
     1.0000   1.0000   1.0000   1.0000   1.0000   1.0000   1.0000   1.0000
     1.0000   1.0000   1.0000   1.0000   1.0000   1.0000   1.0000   1.0000
     1.0000   1.0000   1.0000   1.0000   1.0000   1.0000   1.0000   1.0000
     1.0000   1.0000   1.0000   1.0000   1.0000   1.0000   1.0000   1.0000
     1.0000   1.0000   1.0000   1.0000   1.0000   1.0000   1.0000   1.0000
     1.0000   1.0000   1.0000   1.0000   1.0000   1.0000   1.0000   1.0000
     1.0000   1.0000   1.0000   1.0000   1.0000   1.0000   1.0000   1.0000

          k = 0.0000 0.0000 0.0974 (  8301 PWs)   bands (ev):

   -11.3964 -11.2185 -11.0841 -10.8943 -10.8040 -10.7454 -10.7046 -10.6522
     0.4763   0.5097   0.5526   0.6357   0.6381   0.6925   0.6928   0.7224
     0.7316   0.7318   0.7429   0.7676   0.7678   0.8276   0.8278   0.8656
     0.9463   1.0701   1.1719   1.2951   1.2987   1.3207   1.3291   1.4373
     1.6938   1.6939   1.7465   1.7507   1.7507   1.7872   1.7872   1.8281
     1.8281   1.8316   1.8414   1.8519   1.8767   1.8844   1.9284   1.9517
     2.2391   2.3572   2.3755   2.4603   2.6716   3.3780   3.5908   4.1400
     4.2773   4.4876   4.6655   4.8565   4.8937   4.9343   5.2907   5.5511
     5.5515   5.6978   5.7562   5.7566   5.9053   5.9058   6.1078   6.1082

     occupation numbers 
     1.0000   1.0000   1.0000   1.0000   1.0000   1.0000   1.0000   1.0000
     1.0000   1.0000   1.0000   1.0000   1.0000   1.0000   1.0000   1.0000
     1.0000   1.0000   1.0000   1.0000   1.0000   1.0000   1.0000   1.0000
     1.0000   1.0000   1.0000   1.0000   1.0000   1.0000   1.0000   1.0000
     1.0000   1.0000   1.0000   1.0000   1.0000   1.0000   1.0000   1.0000
     1.0000   1.0000   1.0000   1.0000   1.0000   1.0000   1.0000   1.0000
     1.0000   1.0000   1.0000   1.0000   1.0000   1.0000   1.0000   1.0000
     1.0000   1.0000   1.0000   1.0000   1.0000   1.0000   1.0000   1.0000
     1.0000   1.0000   1.0000   1.0000   1.0000   1.0000   1.0000   1.0000

          k = 0.0000 0.0000 0.1948 (  8318 PWs)   bands (ev):

   -11.3717 -11.2799 -11.0202 -10.9215 -10.7955 -10.7650 -10.6863 -10.6594
     0.4878   0.5342   0.5568   0.6630   0.6687   0.6772   0.6974   0.6976
     0.7169   0.7172   0.7226   0.7865   0.7867   0.7985   0.8183   0.8185
     0.9628   1.0261   1.2230   1.2916   1.2954   1.3054   1.3438   1.4074
     1.7024   1.7024   1.7322   1.7322   1.7773   1.8023   1.8023   1.8229
     1.8230   1.8327   1.8376   1.8519   1.8585   1.8718   1.9403   1.9504
     2.3476   2.3527   2.4291   2.5169   2.6317   3.0227   3.7517   4.2364
     4.3342   4.5342   4.5365   4.9286   4.9384   5.0569   5.2408   5.3285
     5.5801   5.5806   5.6864   5.6868   5.9746   5.9750   6.0793   6.0798

     occupation numbers 
     1.0000   1.0000   1.0000   1.0000   1.0000   1.0000   1.0000   1.0000
     1.0000   1.0000   1.0000   1.0000   1.0000   1.0000   1.0000   1.0000
     1.0000   1.0000   1.0000   1.0000   1.0000   1.0000   1.0000   1.0000
     1.0000   1.0000   1.0000   1.0000   1.0000   1.0000   1.0000   1.0000
     1.0000   1.0000   1.0000   1.0000   1.0000   1.0000   1.0000   1.0000
     1.0000   1.0000   1.0000   1.0000   1.0000   1.0000   1.0000   1.0000
     1.0000   1.0000   1.0000   1.0000   1.0000   1.0000   1.0000   1.0000
     1.0000   1.0000   1.0000   1.0000   1.0000   1.0000   1.0000   1.0000
     1.0000   1.0000   1.0000   1.0000   1.0000   1.0000   1.0000   1.0000

          k = 0.0000 0.0000-0.2922 (  8260 PWs)   bands (ev):

   -11.3320 -11.3320 -10.9646 -10.9646 -10.7822 -10.7822 -10.6710 -10.6710
     0.5100   0.5100   0.6168   0.6168   0.6941   0.6941   0.7057   0.7057
     0.7059   0.7059   0.7259   0.7259   0.8042   0.8042   0.8044   0.8044
     0.9898   0.9898   1.2688   1.2688   1.2924   1.2924   1.3736   1.3736
     1.7159   1.7160   1.7160   1.7160   1.8147   1.8147   1.8147   1.8147
     1.8149   1.8149   1.8347   1.8347   1.8653   1.8653   1.9471   1.9471
     2.3440   2.3440   2.5767   2.5767   2.7004   2.7004   3.9795   3.9795
     4.4231   4.4231   4.9325   4.9325   4.9545   4.9545   5.1612   5.1612
     5.6263   5.6263   5.6268   5.6268   6.0339   6.0339   6.0344   6.0344

     occupation numbers 
     1.0000   1.0000   1.0000   1.0000   1.0000   1.0000   1.0000   1.0000
     1.0000   1.0000   1.0000   1.0000   1.0000   1.0000   1.0000   1.0000
     1.0000   1.0000   1.0000   1.0000   1.0000   1.0000   1.0000   1.0000
     1.0000   1.0000   1.0000   1.0000   1.0000   1.0000   1.0000   1.0000
     1.0000   1.0000   1.0000   1.0000   1.0000   1.0000   1.0000   1.0000
     1.0000   1.0000   1.0000   1.0000   1.0000   1.0000   1.0000   1.0000
     1.0000   1.0000   1.0000   1.0000   1.0000   1.0000   1.0000   1.0000
     1.0000   1.0000   1.0000   1.0000   1.0000   1.0000   1.0000   1.0000
     1.0000   1.0000   1.0000   1.0000   1.0000   1.0000   1.0000   1.0000

          k = 0.0000 0.3849 0.0000 (  8338 PWs)   bands (ev):

   -11.2737 -11.0487 -11.0487 -10.8152 -10.8132 -10.7267 -10.7267 -10.6471
     0.5409   0.5409   0.5797   0.6146   0.6146   0.6415   0.7692   0.7885
     0.8433   0.8433   0.8651   0.8651   0.8691   0.8748   0.9403   0.9675
     1.0556   1.0556   1.0829   1.2222   1.2363   1.2364   1.3451   1.4128
     1.6373   1.6486   1.6882   1.7376   1.7663   1.7663   1.7678   1.7678
     1.7891   1.7891   1.8364   1.8996   1.9436   1.9443   1.9443   2.0925
     2.1666   2.3984   2.6797   2.6797   2.9382   3.5203   3.7467   3.7467
     3.8362   4.2574   4.2574   4.6013   4.8102   4.8102   4.8527   4.9923
     5.0300   5.1576   5.1576   5.2328   5.5839   5.5840   5.7703   5.9290

     occupation numbers 
     1.0000   1.0000   1.0000   1.0000   1.0000   1.0000   1.0000   1.0000
     1.0000   1.0000   1.0000   1.0000   1.0000   1.0000   1.0000   1.0000
     1.0000   1.0000   1.0000   1.0000   1.0000   1.0000   1.0000   1.0000
     1.0000   1.0000   1.0000   1.0000   1.0000   1.0000   1.0000   1.0000
     1.0000   1.0000   1.0000   1.0000   1.0000   1.0000   1.0000   1.0000
     1.0000   1.0000   1.0000   1.0000   1.0000   1.0000   1.0000   1.0000
     1.0000   1.0000   1.0000   1.0000   1.0000   1.0000   1.0000   1.0000
     1.0000   1.0000   1.0000   1.0000   1.0000   1.0000   1.0000   1.0000
     1.0000   1.0000   1.0000   1.0000   1.0000   1.0000   1.0000   1.0000

          k = 0.0000 0.3849 0.0974 (  8342 PWs)   bands (ev):

   -11.2662 -11.1077 -10.9891 -10.8233 -10.8102 -10.7485 -10.7054 -10.6497
     0.5319   0.5702   0.5761   0.6015   0.6390   0.6484   0.7714   0.7782
     0.8220   0.8515   0.8605   0.8644   0.8660   0.8847   0.9366   0.9656
     1.0135   1.0541   1.1050   1.2191   1.2303   1.2511   1.3360   1.3916
     1.6426   1.6490   1.6912   1.7363   1.7481   1.7533   1.7657   1.7866
     1.7952   1.8011   1.8342   1.8994   1.9142   1.9215   1.9749   2.0874
     2.2689   2.4048   2.6042   2.7562   2.9402   3.4293   3.5506   3.8701
     4.0419   4.0978   4.3797   4.6055   4.6592   4.8496   4.9397   4.9584
     5.0263   5.0282   5.2449   5.2994   5.4938   5.6737   5.7463   5.9173

     occupation numbers 
     1.0000   1.0000   1.0000   1.0000   1.0000   1.0000   1.0000   1.0000
     1.0000   1.0000   1.0000   1.0000   1.0000   1.0000   1.0000   1.0000
     1.0000   1.0000   1.0000   1.0000   1.0000   1.0000   1.0000   1.0000
     1.0000   1.0000   1.0000   1.0000   1.0000   1.0000   1.0000   1.0000
     1.0000   1.0000   1.0000   1.0000   1.0000   1.0000   1.0000   1.0000
     1.0000   1.0000   1.0000   1.0000   1.0000   1.0000   1.0000   1.0000
     1.0000   1.0000   1.0000   1.0000   1.0000   1.0000   1.0000   1.0000
     1.0000   1.0000   1.0000   1.0000   1.0000   1.0000   1.0000   1.0000
     1.0000   1.0000   1.0000   1.0000   1.0000   1.0000   1.0000   1.0000

          k = 0.0000 0.3849 0.1948 (  8344 PWs)   bands (ev):

   -11.2441 -11.1622 -10.9331 -10.8470 -10.8013 -10.7692 -10.6860 -10.6573
     0.5378   0.5659   0.6054   0.6205   0.6309   0.7008   0.7434   0.7779
     0.8036   0.8202   0.8448   0.8538   0.8886   0.9107   0.9257   0.9629
     0.9832   0.9958   1.1550   1.2098   1.2365   1.2738   1.3077   1.3445
     1.6576   1.6645   1.6996   1.7069   1.7293   1.7328   1.7782   1.8031
     1.8035   1.8226   1.8278   1.8776   1.8993   1.9079   2.0094   2.0706
     2.4287   2.4967   2.5339   2.8289   2.9294   3.1032   3.6414   3.9342
     3.9711   4.3016   4.3173   4.5977   4.6503   4.8202   4.8844   4.9229
     5.0122   5.0269   5.2803   5.4093   5.4419   5.6775   5.7570   5.8830

     occupation numbers 
     1.0000   1.0000   1.0000   1.0000   1.0000   1.0000   1.0000   1.0000
     1.0000   1.0000   1.0000   1.0000   1.0000   1.0000   1.0000   1.0000
     1.0000   1.0000   1.0000   1.0000   1.0000   1.0000   1.0000   1.0000
     1.0000   1.0000   1.0000   1.0000   1.0000   1.0000   1.0000   1.0000
     1.0000   1.0000   1.0000   1.0000   1.0000   1.0000   1.0000   1.0000
     1.0000   1.0000   1.0000   1.0000   1.0000   1.0000   1.0000   1.0000
     1.0000   1.0000   1.0000   1.0000   1.0000   1.0000   1.0000   1.0000
     1.0000   1.0000   1.0000   1.0000   1.0000   1.0000   1.0000   1.0000
     1.0000   1.0000   1.0000   1.0000   1.0000   1.0000   1.0000   1.0000

          k = 0.0000 0.3849-0.2922 (  8330 PWs)   bands (ev):

   -11.2087 -11.2087 -10.8845 -10.8845 -10.7872 -10.7872 -10.6696 -10.6696
     0.5514   0.5514   0.6181   0.6181   0.6844   0.6844   0.7626   0.7627
     0.7888   0.7888   0.8457   0.8457   0.9092   0.9093   0.9458   0.9458
     0.9669   0.9669   1.1918   1.1918   1.2646   1.2646   1.3041   1.3041
     1.6797   1.6797   1.6961   1.6961   1.7127   1.7127   1.7956   1.7956
     1.8175   1.8175   1.8490   1.8490   1.9014   1.9014   2.0431   2.0431
     2.4734   2.4734   2.7851   2.7851   2.8904   2.8904   3.7773   3.7773
     4.1322   4.1322   4.5029   4.5029   4.7457   4.7457   4.8616   4.8616
     5.0325   5.0325   5.3365   5.3365   5.5722   5.5722   5.8284   5.8284

     occupation numbers 
     1.0000   1.0000   1.0000   1.0000   1.0000   1.0000   1.0000   1.0000
     1.0000   1.0000   1.0000   1.0000   1.0000   1.0000   1.0000   1.0000
     1.0000   1.0000   1.0000   1.0000   1.0000   1.0000   1.0000   1.0000
     1.0000   1.0000   1.0000   1.0000   1.0000   1.0000   1.0000   1.0000
     1.0000   1.0000   1.0000   1.0000   1.0000   1.0000   1.0000   1.0000
     1.0000   1.0000   1.0000   1.0000   1.0000   1.0000   1.0000   1.0000
     1.0000   1.0000   1.0000   1.0000   1.0000   1.0000   1.0000   1.0000
     1.0000   1.0000   1.0000   1.0000   1.0000   1.0000   1.0000   1.0000
     1.0000   1.0000   1.0000   1.0000   1.0000   1.0000   1.0000   1.0000

          k = 0.0000 0.7698 0.0000 (  8360 PWs)   bands (ev):

   -10.9841 -10.8354 -10.8353 -10.8132 -10.7267 -10.7267 -10.6886 -10.6471
     0.4719   0.4719   0.4792   0.6146   0.6146   0.6416   0.7607   0.8746
     0.8980   0.9675   1.0326   1.0326   1.0555   1.0555   1.1086   1.1086
     1.1335   1.1932   1.2222   1.2364   1.2364   1.3451   1.3832   1.4128
     1.6019   1.6488   1.7376   1.7505   1.7891   1.7891   1.7938   1.7938
     1.7984   1.7985   1.8551   1.8996   1.9443   1.9443   2.0460   2.0925
     2.3985   2.4294   2.6798   2.6798   2.9383   3.1006   3.1235   3.1235
     3.5204   3.8360   3.8914   4.2572   4.2572   4.6008   4.6729   4.6729
     4.8102   4.8102   4.8526   5.0300   5.0731   5.0731   5.3080   5.5252

     occupation numbers 
     1.0000   1.0000   1.0000   1.0000   1.0000   1.0000   1.0000   1.0000
     1.0000   1.0000   1.0000   1.0000   1.0000   1.0000   1.0000   1.0000
     1.0000   1.0000   1.0000   1.0000   1.0000   1.0000   1.0000   1.0000
     1.0000   1.0000   1.0000   1.0000   1.0000   1.0000   1.0000   1.0000
     1.0000   1.0000   1.0000   1.0000   1.0000   1.0000   1.0000   1.0000
     1.0000   1.0000   1.0000   1.0000   1.0000   1.0000   1.0000   1.0000
     1.0000   1.0000   1.0000   1.0000   1.0000   1.0000   1.0000   1.0000
     1.0000   1.0000   1.0000   1.0000   1.0000   1.0000   1.0000   1.0000
     1.0000   1.0000   1.0000   1.0000   1.0000   1.0000   1.0000   1.0000

          k = 0.0000 0.7698 0.0974 (  8368 PWs)   bands (ev):

   -10.9790 -10.8737 -10.8102 -10.7971 -10.7485 -10.7054 -10.6936 -10.6497
     0.4496   0.4752   0.5148   0.6016   0.6391   0.6485   0.7465   0.8604
     0.9022   0.9656   0.9954   1.0134   1.0714   1.0985   1.1049   1.1295
     1.1301   1.1873   1.2191   1.2303   1.2511   1.3359   1.3534   1.3916
     1.6091   1.6491   1.7489   1.7521   1.7533   1.7658   1.7854   1.8011
     1.8119   1.8382   1.8529   1.8994   1.9215   1.9749   2.0179   2.0874
     2.4049   2.5003   2.6044   2.7563   2.9403   3.0227   3.1274   3.2108
     3.5506   3.8699   3.8862   4.0977   4.3795   4.4003   4.6175   4.6591
     4.8494   4.9161   4.9397   4.9536   5.0262   5.1913   5.3044   5.5099

     occupation numbers 
     1.0000   1.0000   1.0000   1.0000   1.0000   1.0000   1.0000   1.0000
     1.0000   1.0000   1.0000   1.0000   1.0000   1.0000   1.0000   1.0000
     1.0000   1.0000   1.0000   1.0000   1.0000   1.0000   1.0000   1.0000
     1.0000   1.0000   1.0000   1.0000   1.0000   1.0000   1.0000   1.0000
     1.0000   1.0000   1.0000   1.0000   1.0000   1.0000   1.0000   1.0000
     1.0000   1.0000   1.0000   1.0000   1.0000   1.0000   1.0000   1.0000
     1.0000   1.0000   1.0000   1.0000   1.0000   1.0000   1.0000   1.0000
     1.0000   1.0000   1.0000   1.0000   1.0000   1.0000   1.0000   1.0000
     1.0000   1.0000   1.0000   1.0000   1.0000   1.0000   1.0000   1.0000

          k = 0.0000 0.7698 0.1948 (  8374 PWs)   bands (ev):

   -10.9641 -10.9095 -10.8013 -10.7692 -10.7617 -10.7081 -10.6860 -10.6573
     0.4451   0.4649   0.5753   0.6055   0.6310   0.7008   0.7053   0.8201
     0.9148   0.9623   0.9629   0.9831   1.0988   1.1093   1.1194   1.1550
     1.1651   1.1700   1.2099   1.2364   1.2739   1.2857   1.3076   1.3445
     1.6307   1.6646   1.7048   1.7328   1.7567   1.7737   1.7782   1.8031
     1.8251   1.8467   1.8817   1.8993   1.9079   1.9699   2.0095   2.0707
     2.4288   2.5340   2.6449   2.8290   2.9124   2.9295   3.1980   3.2684
     3.6413   3.8898   3.9341   3.9710   4.1417   4.3172   4.6501   4.6660
     4.8200   4.8408   5.0122   5.0268   5.1031   5.2837   5.3006   5.4652

     occupation numbers 
     1.0000   1.0000   1.0000   1.0000   1.0000   1.0000   1.0000   1.0000
     1.0000   1.0000   1.0000   1.0000   1.0000   1.0000   1.0000   1.0000
     1.0000   1.0000   1.0000   1.0000   1.0000   1.0000   1.0000   1.0000
     1.0000   1.0000   1.0000   1.0000   1.0000   1.0000   1.0000   1.0000
     1.0000   1.0000   1.0000   1.0000   1.0000   1.0000   1.0000   1.0000
     1.0000   1.0000   1.0000   1.0000   1.0000   1.0000   1.0000   1.0000
     1.0000   1.0000   1.0000   1.0000   1.0000   1.0000   1.0000   1.0000
     1.0000   1.0000   1.0000   1.0000   1.0000   1.0000   1.0000   1.0000
     1.0000   1.0000   1.0000   1.0000   1.0000   1.0000   1.0000   1.0000

          k = 0.0000 0.7698-0.2922 (  8368 PWs)   bands (ev):

   -10.9404 -10.9404 -10.7872 -10.7872 -10.7313 -10.7313 -10.6696 -10.6696
     0.4526   0.4526   0.6181   0.6181   0.6438   0.6438   0.7627   0.7627
     0.9351   0.9351   0.9668   0.9668   1.1072   1.1072   1.1431   1.1431
     1.1918   1.1918   1.2171   1.2171   1.2645   1.2645   1.3041   1.3041
     1.6641   1.6641   1.6962   1.6962   1.7640   1.7640   1.7956   1.7956
     1.8370   1.8370   1.9014   1.9014   1.9249   1.9249   2.0432   2.0432
     2.4735   2.4735   2.7884   2.7884   2.8905   2.8905   3.2657   3.2657
     3.7773   3.7773   3.9594   3.9594   4.1321   4.1321   4.7425   4.7425
     4.7455   4.7455   5.0325   5.0325   5.2234   5.2234   5.3939   5.3939

     occupation numbers 
     1.0000   1.0000   1.0000   1.0000   1.0000   1.0000   1.0000   1.0000
     1.0000   1.0000   1.0000   1.0000   1.0000   1.0000   1.0000   1.0000
     1.0000   1.0000   1.0000   1.0000   1.0000   1.0000   1.0000   1.0000
     1.0000   1.0000   1.0000   1.0000   1.0000   1.0000   1.0000   1.0000
     1.0000   1.0000   1.0000   1.0000   1.0000   1.0000   1.0000   1.0000
     1.0000   1.0000   1.0000   1.0000   1.0000   1.0000   1.0000   1.0000
     1.0000   1.0000   1.0000   1.0000   1.0000   1.0000   1.0000   1.0000
     1.0000   1.0000   1.0000   1.0000   1.0000   1.0000   1.0000   1.0000
     1.0000   1.0000   1.0000   1.0000   1.0000   1.0000   1.0000   1.0000

          k = 0.0000-1.1547 0.0000 (  8340 PWs)   bands (ev):

   -10.8069 -10.8069 -10.7248 -10.7248 -10.7248 -10.7248 -10.6498 -10.6498
     0.4826   0.4826   0.4826   0.4826   0.5594   0.5594   0.7393   0.7393
     0.9406   0.9406   1.1195   1.1195   1.1195   1.1195   1.3001   1.3001
     1.3046   1.3046   1.3046   1.3046   1.3371   1.3371   1.4503   1.4503
     1.7340   1.7340   1.8314   1.8314   1.8464   1.8464   1.8464   1.8464
     1.8785   1.8785   1.9102   1.9102   1.9102   1.9102   1.9521   1.9521
     2.3625   2.3625   2.4121   2.4121   2.4121   2.4121   2.6864   2.6864
     3.5319   3.5319   4.2573   4.2573   4.7024   4.7024   4.7024   4.7024
     4.8007   4.8007   4.8007   4.8007   4.8782   4.8782   5.3074   5.3074

     occupation numbers 
     1.0000   1.0000   1.0000   1.0000   1.0000   1.0000   1.0000   1.0000
     1.0000   1.0000   1.0000   1.0000   1.0000   1.0000   1.0000   1.0000
     1.0000   1.0000   1.0000   1.0000   1.0000   1.0000   1.0000   1.0000
     1.0000   1.0000   1.0000   1.0000   1.0000   1.0000   1.0000   1.0000
     1.0000   1.0000   1.0000   1.0000   1.0000   1.0000   1.0000   1.0000
     1.0000   1.0000   1.0000   1.0000   1.0000   1.0000   1.0000   1.0000
     1.0000   1.0000   1.0000   1.0000   1.0000   1.0000   1.0000   1.0000
     1.0000   1.0000   1.0000   1.0000   1.0000   1.0000   1.0000   1.0000
     1.0000   1.0000   1.0000   1.0000   1.0000   1.0000   1.0000   1.0000

          k = 0.0000-1.1547 0.0974 (  8360 PWs)   bands (ev):

   -10.8040 -10.8040 -10.7454 -10.7454 -10.7046 -10.7046 -10.6522 -10.6522
     0.4764   0.4764   0.5098   0.5098   0.5527   0.5527   0.7225   0.7225
     0.9461   0.9461   1.0700   1.0700   1.1717   1.1717   1.2952   1.2952
     1.2988   1.2988   1.3208   1.3208   1.3289   1.3289   1.4374   1.4374
     1.7465   1.7465   1.8316   1.8317   1.8415   1.8415   1.8520   1.8520
     1.8767   1.8767   1.8845   1.8845   1.9285   1.9285   1.9518   1.9518
     2.3573   2.3573   2.3756   2.3756   2.4604   2.4604   2.6717   2.6717
     3.5908   3.5908   4.2770   4.2770   4.4877   4.4877   4.6651   4.6651
     4.8565   4.8565   4.8937   4.8937   4.9339   4.9339   5.2904   5.2904

     occupation numbers 
     1.0000   1.0000   1.0000   1.0000   1.0000   1.0000   1.0000   1.0000
     1.0000   1.0000   1.0000   1.0000   1.0000   1.0000   1.0000   1.0000
     1.0000   1.0000   1.0000   1.0000   1.0000   1.0000   1.0000   1.0000
     1.0000   1.0000   1.0000   1.0000   1.0000   1.0000   1.0000   1.0000
     1.0000   1.0000   1.0000   1.0000   1.0000   1.0000   1.0000   1.0000
     1.0000   1.0000   1.0000   1.0000   1.0000   1.0000   1.0000   1.0000
     1.0000   1.0000   1.0000   1.0000   1.0000   1.0000   1.0000   1.0000
     1.0000   1.0000   1.0000   1.0000   1.0000   1.0000   1.0000   1.0000
     1.0000   1.0000   1.0000   1.0000   1.0000   1.0000   1.0000   1.0000

          k = 0.0000-1.1547 0.1948 (  8380 PWs)   bands (ev):

   -10.7955 -10.7955 -10.7650 -10.7650 -10.6863 -10.6863 -10.6594 -10.6594
     0.4879   0.4879   0.5343   0.5343   0.5569   0.5569   0.6773   0.6773
     0.9626   0.9626   1.0259   1.0259   1.2228   1.2228   1.2917   1.2917
     1.2955   1.2955   1.3052   1.3052   1.3439   1.3439   1.4075   1.4075
     1.7774   1.7774   1.8327   1.8327   1.8377   1.8377   1.8520   1.8520
     1.8585   1.8585   1.8719   1.8719   1.9404   1.9404   1.9504   1.9504
     2.3477   2.3477   2.3528   2.3528   2.5170   2.5170   2.6318   2.6318
     3.7517   3.7518   4.2364   4.2364   4.3339   4.3339   4.5362   4.5362
     4.9286   4.9286   4.9384   4.9384   5.0565   5.0565   5.2405   5.2405

     occupation numbers 
     1.0000   1.0000   1.0000   1.0000   1.0000   1.0000   1.0000   1.0000
     1.0000   1.0000   1.0000   1.0000   1.0000   1.0000   1.0000   1.0000
     1.0000   1.0000   1.0000   1.0000   1.0000   1.0000   1.0000   1.0000
     1.0000   1.0000   1.0000   1.0000   1.0000   1.0000   1.0000   1.0000
     1.0000   1.0000   1.0000   1.0000   1.0000   1.0000   1.0000   1.0000
     1.0000   1.0000   1.0000   1.0000   1.0000   1.0000   1.0000   1.0000
     1.0000   1.0000   1.0000   1.0000   1.0000   1.0000   1.0000   1.0000
     1.0000   1.0000   1.0000   1.0000   1.0000   1.0000   1.0000   1.0000
     1.0000   1.0000   1.0000   1.0000   1.0000   1.0000   1.0000   1.0000

          k = 0.0000-1.1547-0.2922 (  8384 PWs)   bands (ev):

   -10.7822 -10.7822 -10.7822 -10.7822 -10.6710 -10.6710 -10.6710 -10.6710
     0.5101   0.5101   0.5101   0.5101   0.6169   0.6169   0.6169   0.6169
     0.9896   0.9896   0.9896   0.9896   1.2686   1.2686   1.2686   1.2686
     1.2925   1.2925   1.2925   1.2925   1.3737   1.3737   1.3737   1.3737
     1.8149   1.8149   1.8149   1.8149   1.8347   1.8347   1.8347   1.8347
     1.8654   1.8654   1.8654   1.8654   1.9472   1.9472   1.9472   1.9472
     2.3441   2.3441   2.3441   2.3441   2.5768   2.5768   2.5768   2.5768
     3.9795   3.9795   3.9795   3.9795   4.4228   4.4228   4.4228   4.4228
     4.9545   4.9545   4.9545   4.9545   5.1609   5.1609   5.1609   5.1609

     occupation numbers 
     1.0000   1.0000   1.0000   1.0000   1.0000   1.0000   1.0000   1.0000
     1.0000   1.0000   1.0000   1.0000   1.0000   1.0000   1.0000   1.0000
     1.0000   1.0000   1.0000   1.0000   1.0000   1.0000   1.0000   1.0000
     1.0000   1.0000   1.0000   1.0000   1.0000   1.0000   1.0000   1.0000
     1.0000   1.0000   1.0000   1.0000   1.0000   1.0000   1.0000   1.0000
     1.0000   1.0000   1.0000   1.0000   1.0000   1.0000   1.0000   1.0000
     1.0000   1.0000   1.0000   1.0000   1.0000   1.0000   1.0000   1.0000
     1.0000   1.0000   1.0000   1.0000   1.0000   1.0000   1.0000   1.0000
     1.0000   1.0000   1.0000   1.0000   1.0000   1.0000   1.0000   1.0000

          k = 0.1667 0.0962 0.0000 (  8314 PWs)   bands (ev):

   -11.3703 -11.1244 -11.1244 -10.8661 -10.8594 -10.7547 -10.7547 -10.6557
     0.4761   0.4761   0.5199   0.5970   0.5970   0.6588   0.7126   0.7481
     0.7705   0.7741   0.7741   0.7841   0.7841   0.8293   0.8596   0.9310
     0.9440   1.0974   1.0974   1.2407   1.2407   1.2908   1.2981   1.3765
     1.6762   1.6883   1.6900   1.7681   1.7681   1.7683   1.7683   1.8050
     1.8301   1.8301   1.8317   1.8486   1.8486   1.8582   1.8706   2.0510
     2.1663   2.3993   2.6507   2.6507   2.7644   3.5760   3.7620   3.7620
     4.3529   4.6869   4.6869   4.8757   4.8757   5.0212   5.2795   5.3674
     5.4587   5.5902   5.6179   5.6179   5.7654   5.7654   5.8871   6.0683

     occupation numbers 
     1.0000   1.0000   1.0000   1.0000   1.0000   1.0000   1.0000   1.0000
     1.0000   1.0000   1.0000   1.0000   1.0000   1.0000   1.0000   1.0000
     1.0000   1.0000   1.0000   1.0000   1.0000   1.0000   1.0000   1.0000
     1.0000   1.0000   1.0000   1.0000   1.0000   1.0000   1.0000   1.0000
     1.0000   1.0000   1.0000   1.0000   1.0000   1.0000   1.0000   1.0000
     1.0000   1.0000   1.0000   1.0000   1.0000   1.0000   1.0000   1.0000
     1.0000   1.0000   1.0000   1.0000   1.0000   1.0000   1.0000   1.0000
     1.0000   1.0000   1.0000   1.0000   1.0000   1.0000   1.0000   1.0000
     1.0000   1.0000   1.0000   1.0000   1.0000   1.0000   1.0000   1.0000

          k = 0.1667 0.0962 0.0974 (  8301 PWs)   bands (ev):

   -11.3621 -11.1892 -11.0587 -10.8751 -10.8558 -10.7813 -10.7284 -10.6590
     0.4617   0.5114   0.5143   0.6001   0.6131   0.6566   0.7144   0.7326
     0.7560   0.7667   0.7700   0.7936   0.8018   0.8197   0.8563   0.9194
     0.9363   1.0514   1.1457   1.2413   1.2491   1.2873   1.2907   1.3624
     1.6798   1.6914   1.6964   1.7462   1.7490   1.7865   1.7887   1.8057
     1.8110   1.8228   1.8299   1.8384   1.8509   1.8687   1.8871   2.0381
     2.2439   2.4019   2.5798   2.7214   2.7902   3.3975   3.6092   4.1306
     4.3716   4.4441   4.7446   4.8763   5.0048   5.0309   5.2843   5.3508
     5.4693   5.4730   5.5326   5.6864   5.7037   5.8441   5.8996   6.0581

     occupation numbers 
     1.0000   1.0000   1.0000   1.0000   1.0000   1.0000   1.0000   1.0000
     1.0000   1.0000   1.0000   1.0000   1.0000   1.0000   1.0000   1.0000
     1.0000   1.0000   1.0000   1.0000   1.0000   1.0000   1.0000   1.0000
     1.0000   1.0000   1.0000   1.0000   1.0000   1.0000   1.0000   1.0000
     1.0000   1.0000   1.0000   1.0000   1.0000   1.0000   1.0000   1.0000
     1.0000   1.0000   1.0000   1.0000   1.0000   1.0000   1.0000   1.0000
     1.0000   1.0000   1.0000   1.0000   1.0000   1.0000   1.0000   1.0000
     1.0000   1.0000   1.0000   1.0000   1.0000   1.0000   1.0000   1.0000
     1.0000   1.0000   1.0000   1.0000   1.0000   1.0000   1.0000   1.0000

          k = 0.1667 0.0962 0.1948 (  8318 PWs)   bands (ev):

   -11.3381 -11.2488 -10.9968 -10.9014 -10.8451 -10.8064 -10.7044 -10.6686
     0.4652   0.4993   0.5651   0.6156   0.6490   0.6518   0.6894   0.7196
     0.7405   0.7550   0.7616   0.7855   0.8135   0.8219   0.8466   0.8751
     0.9515   1.0105   1.1929   1.2499   1.2661   1.2689   1.2772   1.3289
     1.6898   1.7000   1.7144   1.7247   1.7302   1.7748   1.8024   1.8072
     1.8078   1.8166   1.8244   1.8376   1.8472   1.8634   1.9263   2.0059
     2.4198   2.4447   2.5141   2.7840   2.8267   3.0464   3.7220   4.1763
     4.4260   4.4958   4.6203   4.9960   5.0488   5.1237   5.1691   5.3023
     5.3481   5.4541   5.5001   5.6126   5.7831   5.8908   5.9173   6.0279

     occupation numbers 
     1.0000   1.0000   1.0000   1.0000   1.0000   1.0000   1.0000   1.0000
     1.0000   1.0000   1.0000   1.0000   1.0000   1.0000   1.0000   1.0000
     1.0000   1.0000   1.0000   1.0000   1.0000   1.0000   1.0000   1.0000
     1.0000   1.0000   1.0000   1.0000   1.0000   1.0000   1.0000   1.0000
     1.0000   1.0000   1.0000   1.0000   1.0000   1.0000   1.0000   1.0000
     1.0000   1.0000   1.0000   1.0000   1.0000   1.0000   1.0000   1.0000
     1.0000   1.0000   1.0000   1.0000   1.0000   1.0000   1.0000   1.0000
     1.0000   1.0000   1.0000   1.0000   1.0000   1.0000   1.0000   1.0000
     1.0000   1.0000   1.0000   1.0000   1.0000   1.0000   1.0000   1.0000

          k = 0.1667 0.0962-0.2922 (  8318 PWs)   bands (ev):

   -11.2995 -11.2995 -10.9431 -10.9431 -10.8282 -10.8282 -10.6840 -10.6840
     0.4805   0.4805   0.6288   0.6288   0.6345   0.6345   0.7096   0.7096
     0.7283   0.7283   0.7618   0.7618   0.8317   0.8317   0.8446   0.8446
     0.9767   0.9767   1.2352   1.2352   1.2635   1.2635   1.2932   1.2932
     1.7052   1.7052   1.7133   1.7133   1.7416   1.7416   1.8115   1.8115
     1.8152   1.8152   1.8234   1.8234   1.8558   1.8558   1.9665   1.9665
     2.4588   2.4588   2.7225   2.7225   2.8250   2.8250   3.9211   3.9211
     4.5113   4.5113   4.8491   4.8491   5.0471   5.0471   5.2250   5.2250
     5.3886   5.3886   5.5490   5.5490   5.8485   5.8485   5.9799   5.9800

     occupation numbers 
     1.0000   1.0000   1.0000   1.0000   1.0000   1.0000   1.0000   1.0000
     1.0000   1.0000   1.0000   1.0000   1.0000   1.0000   1.0000   1.0000
     1.0000   1.0000   1.0000   1.0000   1.0000   1.0000   1.0000   1.0000
     1.0000   1.0000   1.0000   1.0000   1.0000   1.0000   1.0000   1.0000
     1.0000   1.0000   1.0000   1.0000   1.0000   1.0000   1.0000   1.0000
     1.0000   1.0000   1.0000   1.0000   1.0000   1.0000   1.0000   1.0000
     1.0000   1.0000   1.0000   1.0000   1.0000   1.0000   1.0000   1.0000
     1.0000   1.0000   1.0000   1.0000   1.0000   1.0000   1.0000   1.0000
     1.0000   1.0000   1.0000   1.0000   1.0000   1.0000   1.0000   1.0000

          k = 0.1667 0.4811 0.0000 (  8332 PWs)   bands (ev):

   -11.1869 -10.9822 -10.9822 -10.9268 -10.7964 -10.7964 -10.7725 -10.6696
     0.5202   0.5202   0.5531   0.5685   0.5686   0.6238   0.7498   0.7641
     0.8255   0.8661   0.8661   0.8977   0.9460   0.9578   0.9578   0.9930
     0.9930   1.0283   1.0820   1.1325   1.1325   1.2032   1.2640   1.3983
     1.5826   1.6126   1.6908   1.7353   1.7672   1.7672   1.7740   1.7740
     1.7874   1.7874   1.8392   1.8552   1.8552   1.8695   2.0118   2.0758
     2.1998   2.4974   3.0849   3.0849   3.2803   3.6391   3.6698   3.6698
     4.1007   4.1996   4.5013   4.5013   4.5029   4.8257   4.8257   4.9076
     4.9076   5.0360   5.1658   5.2473   5.3728   5.3728   5.6640   5.7558

     occupation numbers 
     1.0000   1.0000   1.0000   1.0000   1.0000   1.0000   1.0000   1.0000
     1.0000   1.0000   1.0000   1.0000   1.0000   1.0000   1.0000   1.0000
     1.0000   1.0000   1.0000   1.0000   1.0000   1.0000   1.0000   1.0000
     1.0000   1.0000   1.0000   1.0000   1.0000   1.0000   1.0000   1.0000
     1.0000   1.0000   1.0000   1.0000   1.0000   1.0000   1.0000   1.0000
     1.0000   1.0000   1.0000   1.0000   1.0000   1.0000   1.0000   1.0000
     1.0000   1.0000   1.0000   1.0000   1.0000   1.0000   1.0000   1.0000
     1.0000   1.0000   1.0000   1.0000   1.0000   1.0000   1.0000   1.0000
     1.0000   1.0000   1.0000   1.0000   1.0000   1.0000   1.0000   1.0000

          k = 0.1667 0.4811 0.0974 (  8343 PWs)   bands (ev):

   -11.1800 -11.0357 -10.9284 -10.9223 -10.8298 -10.7797 -10.7631 -10.6738
     0.5072   0.5490   0.5538   0.5571   0.5996   0.6181   0.7437   0.7564
     0.8236   0.8548   0.8716   0.8940   0.9449   0.9624   0.9686   0.9729
     1.0126   1.0244   1.0780   1.1303   1.1517   1.1697   1.2574   1.3597
     1.5910   1.6194   1.6944   1.7343   1.7467   1.7510   1.7511   1.7884
     1.7987   1.8072   1.8369   1.8479   1.8678   1.8858   1.9649   2.0567
     2.3191   2.5462   2.9867   3.1769   3.2997   3.4161   3.6556   3.8871
     4.1127   4.2093   4.3644   4.4593   4.4891   4.7253   4.8014   4.9863
     5.0407   5.0950   5.1485   5.2473   5.2860   5.4699   5.6435   5.7428

     occupation numbers 
     1.0000   1.0000   1.0000   1.0000   1.0000   1.0000   1.0000   1.0000
     1.0000   1.0000   1.0000   1.0000   1.0000   1.0000   1.0000   1.0000
     1.0000   1.0000   1.0000   1.0000   1.0000   1.0000   1.0000   1.0000
     1.0000   1.0000   1.0000   1.0000   1.0000   1.0000   1.0000   1.0000
     1.0000   1.0000   1.0000   1.0000   1.0000   1.0000   1.0000   1.0000
     1.0000   1.0000   1.0000   1.0000   1.0000   1.0000   1.0000   1.0000
     1.0000   1.0000   1.0000   1.0000   1.0000   1.0000   1.0000   1.0000
     1.0000   1.0000   1.0000   1.0000   1.0000   1.0000   1.0000   1.0000
     1.0000   1.0000   1.0000   1.0000   1.0000   1.0000   1.0000   1.0000

          k = 0.1667 0.4811 0.1948 (  8352 PWs)   bands (ev):

   -11.1597 -11.0852 -10.9092 -10.8780 -10.8612 -10.8009 -10.7324 -10.6863
     0.5106   0.5379   0.5637   0.6027   0.6074   0.6445   0.7247   0.7265
     0.8231   0.8411   0.8738   0.8856   0.9435   0.9560   0.9783   0.9941
     1.0135   1.0309   1.0664   1.0998   1.1505   1.1810   1.2383   1.2776
     1.6173   1.6379   1.6984   1.7038   1.7038   1.7331   1.7667   1.7940
     1.8051   1.8302   1.8413   1.8514   1.8635   1.9133   1.9287   2.0172
     2.5568   2.6543   2.8831   3.1340   3.2574   3.3282   3.7310   4.0634
     4.1368   4.1526   4.2238   4.3312   4.4610   4.5747   4.9029   5.0605
     5.0953   5.1245   5.1592   5.2406   5.3230   5.5625   5.5790   5.7043

     occupation numbers 
     1.0000   1.0000   1.0000   1.0000   1.0000   1.0000   1.0000   1.0000
     1.0000   1.0000   1.0000   1.0000   1.0000   1.0000   1.0000   1.0000
     1.0000   1.0000   1.0000   1.0000   1.0000   1.0000   1.0000   1.0000
     1.0000   1.0000   1.0000   1.0000   1.0000   1.0000   1.0000   1.0000
     1.0000   1.0000   1.0000   1.0000   1.0000   1.0000   1.0000   1.0000
     1.0000   1.0000   1.0000   1.0000   1.0000   1.0000   1.0000   1.0000
     1.0000   1.0000   1.0000   1.0000   1.0000   1.0000   1.0000   1.0000
     1.0000   1.0000   1.0000   1.0000   1.0000   1.0000   1.0000   1.0000
     1.0000   1.0000   1.0000   1.0000   1.0000   1.0000   1.0000   1.0000

          k = 0.1667 0.4811-0.2922 (  8344 PWs)   bands (ev):

   -11.1275 -11.1275 -10.8883 -10.8883 -10.8344 -10.8344 -10.7063 -10.7063
     0.5232   0.5232   0.5819   0.5819   0.6713   0.6713   0.6904   0.6904
     0.8294   0.8294   0.8778   0.8778   0.9462   0.9462   0.9971   0.9971
     1.0369   1.0369   1.0495   1.0496   1.1974   1.1974   1.2141   1.2141
     1.6571   1.6571   1.6653   1.6653   1.7171   1.7171   1.7830   1.7830
     1.8194   1.8194   1.8576   1.8576   1.8753   1.8753   1.9734   1.9734
     2.7722   2.7723   2.8395   2.8395   3.3144   3.3144   3.9015   3.9015
     4.1853   4.1853   4.2259   4.2259   4.4777   4.4777   5.0099   5.0099
     5.1028   5.1028   5.2069   5.2070   5.4681   5.4681   5.6427   5.6427

     occupation numbers 
     1.0000   1.0000   1.0000   1.0000   1.0000   1.0000   1.0000   1.0000
     1.0000   1.0000   1.0000   1.0000   1.0000   1.0000   1.0000   1.0000
     1.0000   1.0000   1.0000   1.0000   1.0000   1.0000   1.0000   1.0000
     1.0000   1.0000   1.0000   1.0000   1.0000   1.0000   1.0000   1.0000
     1.0000   1.0000   1.0000   1.0000   1.0000   1.0000   1.0000   1.0000
     1.0000   1.0000   1.0000   1.0000   1.0000   1.0000   1.0000   1.0000
     1.0000   1.0000   1.0000   1.0000   1.0000   1.0000   1.0000   1.0000
     1.0000   1.0000   1.0000   1.0000   1.0000   1.0000   1.0000   1.0000
     1.0000   1.0000   1.0000   1.0000   1.0000   1.0000   1.0000   1.0000

          k = 0.1667 0.8660 0.0000 (  8376 PWs)   bands (ev):

   -10.9023 -10.9023 -10.7809 -10.7809 -10.7809 -10.7809 -10.6640 -10.6640
     0.5064   0.5064   0.5064   0.5064   0.5342   0.5342   0.7813   0.7813
     0.9114   0.9114   1.0584   1.0584   1.0584   1.0584   1.1748   1.1748
     1.1748   1.1748   1.1933   1.1933   1.2752   1.2752   1.3867   1.3867
     1.6373   1.6373   1.7646   1.7646   1.7978   1.7978   1.7978   1.7978
     1.8490   1.8490   1.8490   1.8490   1.8687   1.8687   2.0665   2.0665
     2.4732   2.4732   2.8814   2.8814   2.8814   2.8814   2.9260   2.9260
     3.6751   3.6751   4.2837   4.2837   4.6239   4.6239   4.6239   4.6239
     4.8732   4.8732   4.8732   4.8732   5.1376   5.1376   5.3270   5.3270

     occupation numbers 
     1.0000   1.0000   1.0000   1.0000   1.0000   1.0000   1.0000   1.0000
     1.0000   1.0000   1.0000   1.0000   1.0000   1.0000   1.0000   1.0000
     1.0000   1.0000   1.0000   1.0000   1.0000   1.0000   1.0000   1.0000
     1.0000   1.0000   1.0000   1.0000   1.0000   1.0000   1.0000   1.0000
     1.0000   1.0000   1.0000   1.0000   1.0000   1.0000   1.0000   1.0000
     1.0000   1.0000   1.0000   1.0000   1.0000   1.0000   1.0000   1.0000
     1.0000   1.0000   1.0000   1.0000   1.0000   1.0000   1.0000   1.0000
     1.0000   1.0000   1.0000   1.0000   1.0000   1.0000   1.0000   1.0000
     1.0000   1.0000   1.0000   1.0000   1.0000   1.0000   1.0000   1.0000

          k = 0.1667 0.8660 0.0974 (  8380 PWs)   bands (ev):

   -10.8981 -10.8981 -10.8119 -10.8119 -10.7501 -10.7501 -10.6679 -10.6679
     0.4883   0.4883   0.5294   0.5294   0.5452   0.5452   0.7671   0.7671
     0.9157   0.9157   1.0166   1.0166   1.1021   1.1021   1.1703   1.1703
     1.1891   1.1891   1.1907   1.1907   1.2686   1.2686   1.3641   1.3641
     1.6402   1.6402   1.7656   1.7656   1.7704   1.7704   1.8058   1.8058
     1.8425   1.8425   1.8669   1.8669   1.8797   1.8797   2.0484   2.0484
     2.5004   2.5004   2.7972   2.7972   2.9596   2.9596   2.9612   2.9612
     3.6879   3.6879   4.3027   4.3027   4.3958   4.3958   4.6700   4.6700
     4.8775   4.8775   5.0032   5.0032   5.1408   5.1408   5.3112   5.3112

     occupation numbers 
     1.0000   1.0000   1.0000   1.0000   1.0000   1.0000   1.0000   1.0000
     1.0000   1.0000   1.0000   1.0000   1.0000   1.0000   1.0000   1.0000
     1.0000   1.0000   1.0000   1.0000   1.0000   1.0000   1.0000   1.0000
     1.0000   1.0000   1.0000   1.0000   1.0000   1.0000   1.0000   1.0000
     1.0000   1.0000   1.0000   1.0000   1.0000   1.0000   1.0000   1.0000
     1.0000   1.0000   1.0000   1.0000   1.0000   1.0000   1.0000   1.0000
     1.0000   1.0000   1.0000   1.0000   1.0000   1.0000   1.0000   1.0000
     1.0000   1.0000   1.0000   1.0000   1.0000   1.0000   1.0000   1.0000
     1.0000   1.0000   1.0000   1.0000   1.0000   1.0000   1.0000   1.0000

          k = 0.1667 0.8660 0.1948 (  8372 PWs)   bands (ev):

   -10.8858 -10.8858 -10.8411 -10.8411 -10.7218 -10.7218 -10.6794 -10.6794
     0.4885   0.4885   0.5165   0.5165   0.6020   0.6020   0.7266   0.7266
     0.9288   0.9288   0.9800   0.9800   1.1398   1.1398   1.1777   1.1777
     1.1835   1.1835   1.2168   1.2168   1.2492   1.2492   1.3102   1.3102
     1.6557   1.6557   1.7248   1.7248   1.7815   1.7815   1.8006   1.8006
     1.8478   1.8478   1.8621   1.8621   1.9213   1.9213   2.0092   2.0092
     2.5616   2.5616   2.7139   2.7139   3.0259   3.0259   3.0259   3.0259
     3.7502   3.7502   4.1368   4.1368   4.3579   4.3579   4.5550   4.5550
     5.0051   5.0051   5.1204   5.1204   5.1378   5.1378   5.2671   5.2671

     occupation numbers 
     1.0000   1.0000   1.0000   1.0000   1.0000   1.0000   1.0000   1.0000
     1.0000   1.0000   1.0000   1.0000   1.0000   1.0000   1.0000   1.0000
     1.0000   1.0000   1.0000   1.0000   1.0000   1.0000   1.0000   1.0000
     1.0000   1.0000   1.0000   1.0000   1.0000   1.0000   1.0000   1.0000
     1.0000   1.0000   1.0000   1.0000   1.0000   1.0000   1.0000   1.0000
     1.0000   1.0000   1.0000   1.0000   1.0000   1.0000   1.0000   1.0000
     1.0000   1.0000   1.0000   1.0000   1.0000   1.0000   1.0000   1.0000
     1.0000   1.0000   1.0000   1.0000   1.0000   1.0000   1.0000   1.0000
     1.0000   1.0000   1.0000   1.0000   1.0000   1.0000   1.0000   1.0000

          k = 0.1667 0.8660-0.2922 (  8360 PWs)   bands (ev):

   -10.8663 -10.8663 -10.8663 -10.8663 -10.6977 -10.6977 -10.6977 -10.6977
[...]
     1.8035   1.8226   1.8251   1.8278   1.8466   1.8776   1.8816   1.9699
     2.4967   2.6448   2.9123   3.1032   3.1978   3.2682   3.8897   4.1416
     4.3016   4.5975   4.6664   4.8411   4.8842   4.9226   5.1030   5.2806
     5.2837   5.3009   5.4097   5.4417   5.4655   5.6774   5.7574   5.8834

     occupation numbers 
     1.0000   1.0000   1.0000   1.0000   1.0000   1.0000   1.0000   1.0000
     1.0000   1.0000   1.0000   1.0000   1.0000   1.0000   1.0000   1.0000
     1.0000   1.0000   1.0000   1.0000   1.0000   1.0000   1.0000   1.0000
     1.0000   1.0000   1.0000   1.0000   1.0000   1.0000   1.0000   1.0000
     1.0000   1.0000   1.0000   1.0000   1.0000   1.0000   1.0000   1.0000
     1.0000   1.0000   1.0000   1.0000   1.0000   1.0000   1.0000   1.0000
     1.0000   1.0000   1.0000   1.0000   1.0000   1.0000   1.0000   1.0000
     1.0000   1.0000   1.0000   1.0000   1.0000   1.0000   1.0000   1.0000
     1.0000   1.0000   1.0000   1.0000   1.0000   1.0000   1.0000   1.0000

          k =-0.6667 0.7698-0.0974 (  8380 PWs)   bands (ev):

   -10.8102 -10.8102 -10.7485 -10.7485 -10.7054 -10.7054 -10.6497 -10.6497
     0.6016   0.6016   0.6390   0.6390   0.6485   0.6485   0.8605   0.8605
     0.9655   0.9655   1.0134   1.0134   1.1049   1.1049   1.2191   1.2191
     1.2303   1.2303   1.2511   1.2511   1.3359   1.3359   1.3916   1.3916
     1.6490   1.6490   1.7533   1.7533   1.7657   1.7657   1.8012   1.8012
     1.8994   1.8994   1.9216   1.9216   1.9749   1.9749   2.0875   2.0875
     2.4049   2.4049   2.6044   2.6044   2.7563   2.7563   2.9403   2.9403
     3.5504   3.5504   3.8699   3.8699   4.0976   4.0976   4.3795   4.3795
     4.6591   4.6591   4.8494   4.8494   4.9397   4.9397   5.0262   5.0262

     occupation numbers 
     1.0000   1.0000   1.0000   1.0000   1.0000   1.0000   1.0000   1.0000
     1.0000   1.0000   1.0000   1.0000   1.0000   1.0000   1.0000   1.0000
     1.0000   1.0000   1.0000   1.0000   1.0000   1.0000   1.0000   1.0000
     1.0000   1.0000   1.0000   1.0000   1.0000   1.0000   1.0000   1.0000
     1.0000   1.0000   1.0000   1.0000   1.0000   1.0000   1.0000   1.0000
     1.0000   1.0000   1.0000   1.0000   1.0000   1.0000   1.0000   1.0000
     1.0000   1.0000   1.0000   1.0000   1.0000   1.0000   1.0000   1.0000
     1.0000   1.0000   1.0000   1.0000   1.0000   1.0000   1.0000   1.0000
     1.0000   1.0000   1.0000   1.0000   1.0000   1.0000   1.0000   1.0000

          k =-0.6667 0.7698-0.1948 (  8386 PWs)   bands (ev):

   -10.8013 -10.8013 -10.7692 -10.7692 -10.6860 -10.6860 -10.6573 -10.6573
     0.6055   0.6055   0.6309   0.6309   0.7009   0.7009   0.8203   0.8203
     0.9628   0.9628   0.9831   0.9831   1.1549   1.1549   1.2099   1.2099
     1.2364   1.2364   1.2739   1.2739   1.3076   1.3076   1.3445   1.3445
     1.6645   1.6645   1.7328   1.7328   1.7783   1.7783   1.8031   1.8031
     1.8994   1.8994   1.9079   1.9079   2.0095   2.0095   2.0707   2.0707
     2.4288   2.4288   2.5340   2.5340   2.8291   2.8291   2.9296   2.9296
     3.6412   3.6412   3.9339   3.9339   3.9710   3.9710   4.3172   4.3172
     4.6501   4.6501   4.8199   4.8199   5.0122   5.0122   5.0268   5.0268

     occupation numbers 
     1.0000   1.0000   1.0000   1.0000   1.0000   1.0000   1.0000   1.0000
     1.0000   1.0000   1.0000   1.0000   1.0000   1.0000   1.0000   1.0000
     1.0000   1.0000   1.0000   1.0000   1.0000   1.0000   1.0000   1.0000
     1.0000   1.0000   1.0000   1.0000   1.0000   1.0000   1.0000   1.0000
     1.0000   1.0000   1.0000   1.0000   1.0000   1.0000   1.0000   1.0000
     1.0000   1.0000   1.0000   1.0000   1.0000   1.0000   1.0000   1.0000
     1.0000   1.0000   1.0000   1.0000   1.0000   1.0000   1.0000   1.0000
     1.0000   1.0000   1.0000   1.0000   1.0000   1.0000   1.0000   1.0000
     1.0000   1.0000   1.0000   1.0000   1.0000   1.0000   1.0000   1.0000

     highest occupied level (ev):     6.1179

!    total energy              =   -1446.51811531 Ry
     estimated scf accuracy    <          3.7E-09 Ry

     The total energy is the sum of the following terms:
     one-electron contribution =    -645.34204574 Ry
     hartree contribution      =     482.94255691 Ry
     xc contribution           =    -437.73110743 Ry
     ewald contribution        =    -846.38751905 Ry

     convergence has been achieved in  30 iterations

     Forces acting on atoms (cartesian axes, Ry/au):

     atom    1 type  1   force =     0.00000677    0.00000391    0.00822756
     atom    2 type  1   force =    -0.00000728   -0.00000420    0.00823111
     atom    3 type  2   force =    -0.00000283   -0.00000164   -0.00821372
     atom    4 type  2   force =     0.00000461    0.00000266   -0.00822089
     atom    5 type  1   force =     0.00000734    0.00000424    0.00821113
     atom    6 type  1   force =    -0.00001148   -0.00000663    0.00820979
     atom    7 type  2   force =    -0.00000329   -0.00000190   -0.00822175
     atom    8 type  2   force =     0.00000371    0.00000214   -0.00821792
     atom    9 type  1   force =     0.00000999    0.00000577    0.00822346
     atom   10 type  1   force =    -0.00001538   -0.00000888    0.00823203
     atom   11 type  2   force =    -0.00000340   -0.00000196   -0.00821412
     atom   12 type  2   force =     0.00000355    0.00000205   -0.00822039
     atom   13 type  1   force =     0.00000911    0.00000526    0.00820370
     atom   14 type  1   force =    -0.00000215   -0.00000124    0.00820956
     atom   15 type  2   force =    -0.00000328   -0.00000189   -0.00822213
     atom   16 type  2   force =     0.00000401    0.00000232   -0.00821741
     The non-local contrib.  to forces
     atom    1 type  1   force =    -0.00001724   -0.00000995    0.15277008
     atom    2 type  1   force =     0.00001371    0.00000792    0.15277652
     atom    3 type  2   force =    -0.00018804   -0.00010857    0.15225747
     atom    4 type  2   force =     0.00018963    0.00010948    0.15224291
     atom    5 type  1   force =    -0.00001444   -0.00000834    0.15276117
     atom    6 type  1   force =     0.00001648    0.00000951    0.15274880
     atom    7 type  2   force =    -0.00018843   -0.00010879    0.15224295
     atom    8 type  2   force =     0.00018755    0.00010828    0.15225259
     atom    9 type  1   force =    -0.00001376   -0.00000794    0.15276776
     atom   10 type  1   force =     0.00001706    0.00000985    0.15277516
     atom   11 type  2   force =    -0.00018743   -0.00010821    0.15225643
     atom   12 type  2   force =     0.00018773    0.00010839    0.15224186
     atom   13 type  1   force =    -0.00001635   -0.00000944    0.15276202
     atom   14 type  1   force =     0.00001495    0.00000863    0.15275174
     atom   15 type  2   force =    -0.00018885   -0.00010903    0.15224374
     atom   16 type  2   force =     0.00018922    0.00010925    0.15225548
     The ionic contribution  to forces
     atom    1 type  1   force =     0.00000000    0.00000001    1.21906033
     atom    2 type  1   force =     0.00000001    0.00000000    1.21906034
     atom    3 type  2   force =     0.00000000    0.00000001   -1.21906033
     atom    4 type  2   force =     0.00000001   -0.00000000   -1.21906034
     atom    5 type  1   force =     0.00000000    0.00000001    1.21906033
     atom    6 type  1   force =     0.00000001    0.00000000    1.21906034
     atom    7 type  2   force =     0.00000000    0.00000001   -1.21906033
     atom    8 type  2   force =     0.00000001   -0.00000000   -1.21906034
     atom    9 type  1   force =    -0.00000000   -0.00000000    1.21906034
     atom   10 type  1   force =    -0.00000001   -0.00000001    1.21906034
     atom   11 type  2   force =    -0.00000000   -0.00000000   -1.21906034
     atom   12 type  2   force =    -0.00000001   -0.00000000   -1.21906034
     atom   13 type  1   force =    -0.00000000   -0.00000000    1.21906034
     atom   14 type  1   force =    -0.00000001   -0.00000001    1.21906034
     atom   15 type  2   force =    -0.00000000   -0.00000000   -1.21906034
     atom   16 type  2   force =    -0.00000001   -0.00000000   -1.21906034
     The local contribution  to forces
     atom    1 type  1   force =     0.00002670    0.00001542   -1.35322319
     atom    2 type  1   force =    -0.00001883   -0.00001097   -1.35323143
     atom    3 type  2   force =     0.00018298    0.00010564    1.05988127
     atom    4 type  2   force =    -0.00017974   -0.00010380    1.05985853
     atom    5 type  1   force =     0.00001997    0.00001153   -1.35319648
     atom    6 type  1   force =    -0.00002425   -0.00001410   -1.35317728
     atom    7 type  2   force =     0.00018185    0.00010499    1.05985352
     atom    8 type  2   force =    -0.00018034   -0.00010414    1.05987655
     atom    9 type  1   force =     0.00001833    0.00001058   -1.35321733
     atom   10 type  1   force =    -0.00002289   -0.00001322   -1.35322920
     atom   11 type  2   force =     0.00017849    0.00010305    1.05987623
     atom   12 type  2   force =    -0.00018494   -0.00010678    1.05986231
     atom   13 type  1   force =     0.00002426    0.00001401   -1.35319550
     atom   14 type  1   force =    -0.00002201   -0.00001271   -1.35318294
     atom   15 type  2   force =     0.00018007    0.00010396    1.05985285
     atom   16 type  2   force =    -0.00018367   -0.00010604    1.05987050
     The core correction contribution to forces
     atom    1 type  1   force =    -0.00000697   -0.00000402   -0.01040068
     atom    2 type  1   force =     0.00000676    0.00000389   -0.01040181
     atom    3 type  2   force =     0.00000214    0.00000123   -0.00127843
     atom    4 type  2   force =    -0.00000215   -0.00000124   -0.00127990
     atom    5 type  1   force =    -0.00000675   -0.00000390   -0.01040569
     atom    6 type  1   force =     0.00000709    0.00000408   -0.01040489
     atom    7 type  2   force =     0.00000214    0.00000123   -0.00128108
     atom    8 type  2   force =    -0.00000212   -0.00000122   -0.00127954
     atom    9 type  1   force =    -0.00000683   -0.00000394   -0.01040076
     atom   10 type  1   force =     0.00000709    0.00000409   -0.01040190
     atom   11 type  2   force =     0.00000211    0.00000122   -0.00127844
     atom   12 type  2   force =    -0.00000214   -0.00000124   -0.00127987
     atom   13 type  1   force =    -0.00000697   -0.00000402   -0.01040553
     atom   14 type  1   force =     0.00000665    0.00000384   -0.01040476
     atom   15 type  2   force =     0.00000214    0.00000124   -0.00128109
     atom   16 type  2   force =    -0.00000215   -0.00000124   -0.00127961
     The Hubbard contrib.    to forces
     atom    1 type  1   force =     0.00000000    0.00000000    0.00000000
     atom    2 type  1   force =     0.00000000    0.00000000    0.00000000
     atom    3 type  2   force =     0.00000000    0.00000000    0.00000000
     atom    4 type  2   force =     0.00000000    0.00000000    0.00000000
     atom    5 type  1   force =     0.00000000    0.00000000    0.00000000
     atom    6 type  1   force =     0.00000000    0.00000000    0.00000000
     atom    7 type  2   force =     0.00000000    0.00000000    0.00000000
     atom    8 type  2   force =     0.00000000    0.00000000    0.00000000
     atom    9 type  1   force =     0.00000000    0.00000000    0.00000000
     atom   10 type  1   force =     0.00000000    0.00000000    0.00000000
     atom   11 type  2   force =     0.00000000    0.00000000    0.00000000
     atom   12 type  2   force =     0.00000000    0.00000000    0.00000000
     atom   13 type  1   force =     0.00000000    0.00000000    0.00000000
     atom   14 type  1   force =     0.00000000    0.00000000    0.00000000
     atom   15 type  2   force =     0.00000000    0.00000000    0.00000000
     atom   16 type  2   force =     0.00000000    0.00000000    0.00000000
     The SCF correction term to forces
     atom    1 type  1   force =     0.00000396    0.00000229    0.00002015
     atom    2 type  1   force =    -0.00000919   -0.00000531    0.00002662
     atom    3 type  2   force =    -0.00000022   -0.00000013   -0.00001455
     atom    4 type  2   force =    -0.00000343   -0.00000198    0.00001705
     atom    5 type  1   force =     0.00000825    0.00000476   -0.00000906
     atom    6 type  1   force =    -0.00001106   -0.00000639   -0.00001804
     atom    7 type  2   force =     0.00000083    0.00000048    0.00002233
     atom    8 type  2   force =    -0.00000169   -0.00000098   -0.00000803
     atom    9 type  1   force =     0.00001194    0.00000689    0.00001259
     atom   10 type  1   force =    -0.00001693   -0.00000977    0.00002678
     atom   11 type  2   force =     0.00000312    0.00000180   -0.00000887
     atom   12 type  2   force =     0.00000260    0.00000150    0.00001478
     atom   13 type  1   force =     0.00000786    0.00000454   -0.00001850
     atom   14 type  1   force =    -0.00000203   -0.00000117   -0.00001567
     atom   15 type  2   force =     0.00000306    0.00000176    0.00002185
     atom   16 type  2   force =     0.00000030    0.00000018   -0.00000432

     Total force =     0.032874     Total SCF correction =     0.000077

     init_run     :     11.98s CPU     12.34s WALL (       1 calls)
     electrons    :    782.57s CPU    802.90s WALL (       1 calls)
     forces       :      5.50s CPU      5.53s WALL (       1 calls)

     Called by init_run:
     wfcinit      :      6.40s CPU      6.64s WALL (       1 calls)
     wfcinit:atom :      0.04s CPU      0.04s WALL (      10 calls)
     wfcinit:wfcr :      6.01s CPU      6.24s WALL (      10 calls)
     potinit      :      1.81s CPU      1.85s WALL (       1 calls)
     hinit0       :      3.31s CPU      3.34s WALL (       1 calls)

     Called by electrons:
     c_bands      :    711.34s CPU    728.87s WALL (      30 calls)
     sum_band     :     57.78s CPU     60.19s WALL (      30 calls)
     v_of_rho     :      7.04s CPU      7.27s WALL (      31 calls)
     v_h          :      0.36s CPU      0.39s WALL (      31 calls)
     v_xc         :      6.88s CPU      7.09s WALL (      32 calls)
     newd         :      5.28s CPU      5.35s WALL (      31 calls)
     mix_rho      :      0.81s CPU      0.86s WALL (      30 calls)

     Called by c_bands:
     init_us_2    :      5.30s CPU      5.33s WALL (     620 calls)
     init_us_2:cp :      5.30s CPU      5.33s WALL (     620 calls)
     cegterg      :    625.45s CPU    642.85s WALL (     300 calls)

     Called by sum_band:
     sum_band:wei :      0.02s CPU      0.02s WALL (      30 calls)
     sum_band:loo :     50.04s CPU     52.14s WALL (      30 calls)
     sum_band:buf :      0.40s CPU      0.42s WALL (     300 calls)
     sum_band:ini :      1.72s CPU      1.73s WALL (     300 calls)
     sum_band:cal :     12.27s CPU     12.36s WALL (     300 calls)
     sum_band:bec :      0.12s CPU      0.12s WALL (     300 calls)
     addusdens    :      5.33s CPU      5.44s WALL (      30 calls)
     addusd:skk   :      0.08s CPU      0.09s WALL (      60 calls)
     addusd:dgemm :      0.73s CPU      0.76s WALL (      60 calls)
     addusd:qvan2 :      4.18s CPU      4.19s WALL (      60 calls)

     Called by *egterg:
     cdiaghg      :     46.35s CPU     47.42s WALL (    2262 calls)
     cegterg:over :     59.02s CPU     59.24s WALL (    1962 calls)
     cegterg:upda :     32.71s CPU     32.88s WALL (    1962 calls)
     cegterg:last :     67.77s CPU     68.09s WALL (    1058 calls)
     cdiaghg:chol :      2.55s CPU      2.56s WALL (    2262 calls)
     cdiaghg:inve :      0.70s CPU      0.71s WALL (    2262 calls)
     cdiaghg:para :      7.25s CPU      8.11s WALL (    4524 calls)
     h_psi        :    367.57s CPU    383.29s WALL (    2272 calls)
     s_psi        :     41.46s CPU     41.49s WALL (    2272 calls)
     g_psi        :      1.64s CPU      1.65s WALL (    1962 calls)

     Called by h_psi:
     h_psi:calbec :     51.57s CPU     52.05s WALL (    2272 calls)
     vloc_psi     :    272.29s CPU    287.48s WALL (    2272 calls)
     add_vuspsi   :     42.32s CPU     42.36s WALL (    2272 calls)

     General routines
     calbec       :     65.51s CPU     66.09s WALL (    2612 calls)
     fft          :      3.66s CPU      3.97s WALL (     412 calls)
     ffts         :      0.45s CPU      0.47s WALL (      61 calls)
     fftw         :    256.73s CPU    271.74s WALL (  181028 calls)
     interpolate  :      0.62s CPU      0.65s WALL (      31 calls)

     Parallel routines

     PWSCF        :  13m21.10s CPU  13m41.85s WALL


   This run was terminated on:   5:26:31  29Aug2025            

=------------------------------------------------------------------------------=
   JOB DONE.
=------------------------------------------------------------------------------=
Note: The following floating-point exceptions are signalling: IEEE_UNDERFLOW_FLAG IEEE_DENORMAL
Note: The following floating-point exceptions are signalling: IEEE_UNDERFLOW_FLAG IEEE_DENORMAL
Note: The following floating-point exceptions are signalling: IEEE_UNDERFLOW_FLAG IEEE_DENORMAL
Note: The following floating-point exceptions are signalling: IEEE_UNDERFLOW_FLAG IEEE_DENORMAL
Note: The following floating-point exceptions are signalling: IEEE_UNDERFLOW_FLAG IEEE_DENORMAL
Note: The following floating-point exceptions are signalling: IEEE_UNDERFLOW_FLAG IEEE_DENORMAL
Note: The following floating-point exceptions are signalling: IEEE_UNDERFLOW_FLAG IEEE_DENORMAL
Note: The following floating-point exceptions are signalling: IEEE_UNDERFLOW_FLAG IEEE_DENORMAL
Note: The following floating-point exceptions are signalling: IEEE_UNDERFLOW_FLAG IEEE_DENORMAL
Note: The following floating-point exceptions are signalling: IEEE_UNDERFLOW_FLAG IEEE_DENORMAL
Note: The following floating-point exceptions are signalling: IEEE_UNDERFLOW_FLAG IEEE_DENORMAL
Note: The following floating-point exceptions are signalling: IEEE_UNDERFLOW_FLAG IEEE_DENORMAL
Note: The following floating-point exceptions are signalling: IEEE_UNDERFLOW_FLAG IEEE_DENORMAL
Note: The following floating-point exceptions are signalling: IEEE_UNDERFLOW_FLAG IEEE_DENORMAL
Note: The following floating-point exceptions are signalling: IEEE_UNDERFLOW_FLAG IEEE_DENORMAL
Note: The following floating-point exceptions are signalling: IEEE_UNDERFLOW_FLAG IEEE_DENORMAL
Note: The following floating-point exceptions are signalling: IEEE_UNDERFLOW_FLAG IEEE_DENORMAL
Note: The following floating-point exceptions are signalling: IEEE_UNDERFLOW_FLAG IEEE_DENORMAL
Note: The following floating-point exceptions are signalling: IEEE_UNDERFLOW_FLAG IEEE_DENORMAL
Note: The following floating-point exceptions are signalling: IEEE_UNDERFLOW_FLAG IEEE_DENORMAL
Note: The following floating-point exceptions are signalling: IEEE_UNDERFLOW_FLAG IEEE_DENORMAL
Note: The following floating-point exceptions are signalling: IEEE_UNDERFLOW_FLAG IEEE_DENORMAL
Note: The following floating-point exceptions are signalling: IEEE_UNDERFLOW_FLAG IEEE_DENORMAL
Note: The following floating-point exceptions are signalling: IEEE_UNDERFLOW_FLAG IEEE_DENORMAL
Note: The following floating-point exceptions are signalling: IEEE_UNDERFLOW_FLAG IEEE_DENORMAL
Note: The following floating-point exceptions are signalling: IEEE_UNDERFLOW_FLAG IEEE_DENORMAL
Note: The following floating-point exceptions are signalling: IEEE_UNDERFLOW_FLAG IEEE_DENORMAL
Note: The following floating-point exceptions are signalling: IEEE_UNDERFLOW_FLAG IEEE_DENORMAL
Note: The following floating-point exceptions are signalling: IEEE_UNDERFLOW_FLAG IEEE_DENORMAL
Note: The following floating-point exceptions are signalling: IEEE_UNDERFLOW_FLAG IEEE_DENORMAL
Note: The following floating-point exceptions are signalling: IEEE_UNDERFLOW_FLAG IEEE_DENORMAL
Note: The following floating-point exceptions are signalling: IEEE_UNDERFLOW_FLAG IEEE_DENORMAL
