Authorization required, but no authorization protocol specified

Authorization required, but no authorization protocol specified

Authorization required, but no authorization protocol specified

Authorization required, but no authorization protocol specified

Authorization required, but no authorization protocol specified

Authorization required, but no authorization protocol specified

Authorization required, but no authorization protocol specified

Authorization required, but no authorization protocol specified

Authorization required, but no authorization protocol specified

Authorization required, but no authorization protocol specified

Authorization required, but no authorization protocol specified

Authorization required, but no authorization protocol specified

Authorization required, but no authorization protocol specified

Authorization required, but no authorization protocol specified

Authorization required, but no authorization protocol specified

Authorization required, but no authorization protocol specified

Authorization required, but no authorization protocol specified

Authorization required, but no authorization protocol specified


     Program PWSCF v.7.2 starts on 18Jul2025 at  5:15:16 

     This program is part of the open-source Quantum ESPRESSO suite
     for quantum simulation of materials; please cite
         "P. Giannozzi et al., J. Phys.:Condens. Matter 21 395502 (2009);
         "P. Giannozzi et al., J. Phys.:Condens. Matter 29 465901 (2017);
         "P. Giannozzi et al., J. Chem. Phys. 152 154105 (2020);
          URL http://www.quantum-espresso.org", 
     in publications or presentations arising from this work. More details at
     http://www.quantum-espresso.org/quote

     Parallel version (MPI), running on    16 processors

     MPI processes distributed on     1 nodes
     80328 MiB available memory on the printing compute node when the environment starts

     Reading input from /home/jvc/QEspresso7.2/ZnO_database/scripts/cell122.in/ZnO-3.60-1.68-122.in
Warning: card &CELL ignored
Warning: card / ignored
Warning: card &FCP ignored
Warning: card / ignored
Warning: card &RISM ignored
Warning: card / ignored

     Current dimensions of program PWSCF are:
     Max number of different atomic species (ntypx) = 10
     Max number of k-points (npk) =  40000
     Max angular momentum in pseudopotentials (lmaxx) =  4
     file Zn.upf: wavefunction(s)  3D renormalized
     Found identity + (  0.0000  0.0000 -0.5000) symmetry
     This is a supercell, fractional translations are disabled
     Message from routine setup:
     using ibrav=0 with symmetry is DISCOURAGED, use correct ibrav instead

     K-points division:     npool     =       2
     R & G space division:  proc/nbgrp/npool/nimage =       8
     Subspace diagonalization in iterative solution of the eigenvalue problem:
     a serial algorithm will be used


     Parallelization info
     --------------------
     sticks:   dense  smooth     PW     G-vecs:    dense   smooth      PW
     Min         262     130     38                22278     7852    1254
     Max         263     131     39                22281     7857    1260
     Sum        2103    1047    305               178241    62839   10057

     Using Slab Decomposition



     bravais-lattice index     =            0
     lattice parameter (alat)  =       6.1788  a.u.
     unit-cell volume          =    1319.1907 (a.u.)^3
     number of atoms/cell      =           16
     number of atomic types    =            2
     number of electrons       =       144.00
     number of Kohn-Sham states=           72
     kinetic-energy cutoff     =      50.0000  Ry
     charge density cutoff     =     400.0000  Ry
     scf convergence threshold =      1.0E-08
     mixing beta               =       0.3000
     number of iterations used =            8  plain     mixing
     Exchange-correlation= PBE
                           (   1   4   3   4   0   0   0)

     celldm(1)=   6.178822  celldm(2)=   0.000000  celldm(3)=   0.000000
     celldm(4)=   0.000000  celldm(5)=   0.000000  celldm(6)=   0.000000

     crystal axes: (cart. coord. in units of alat)
               a(1) = (   1.000000   0.000000   0.000000 )  
               a(2) = (  -1.000000   1.732051   0.000000 )  
               a(3) = (   0.000000   0.000000   3.228717 )  

     reciprocal axes: (cart. coord. in units 2 pi/alat)
               b(1) = (  1.000000  0.577350 -0.000000 )  
               b(2) = (  0.000000  0.577350  0.000000 )  
               b(3) = (  0.000000 -0.000000  0.309721 )  


     PseudoPot. # 1 for Zn read from file:
     /home/jvc/QEspresso7.2/ZnO_database/pseudos/Zn.upf
     MD5 check sum: 7f56cabf9682ed8c977c2f7d0c5985c5
     Pseudo is Ultrasoft + core correction, Zval = 12.0
     Generated using &quot;atomic&quot; code by A. Dal Corso  v.6.2.2
     Using radial grid of 1201 points,  6 beta functions with: 
                l(1) =   0
                l(2) =   0
                l(3) =   1
                l(4) =   1
                l(5) =   2
                l(6) =   2
     Q(r) pseudized with 0 coefficients 


     PseudoPot. # 2 for O  read from file:
     /home/jvc/QEspresso7.2/ZnO_database/pseudos/O.upf
     MD5 check sum: 91400c9766925bcf19f520983a725ff0
     Pseudo is Ultrasoft + core correction, Zval =  6.0
     Generated using &quot;atomic&quot; code by A. Dal Corso  v.6.3MaX
     Using radial grid of 1095 points,  4 beta functions with: 
                l(1) =   0
                l(2) =   0
                l(3) =   1
                l(4) =   1
     Q(r) pseudized with 0 coefficients 


     atomic species   valence    mass     pseudopotential
        Zn            12.00    65.38000     Zn( 1.00)
        O              6.00    15.99900     O ( 1.00)

      2 Sym. Ops. (no inversion) found


                                    s                        frac. trans.

      isym =  1     identity                                     

 cryst.   s( 1) = (     1          0          0      )
                  (     0          1          0      )
                  (     0          0          1      )

 cart.    s( 1) = (  1.0000000 -0.0000000  0.0000000 )
                  (  0.0000000  1.0000000  0.0000000 )
                  (  0.0000000  0.0000000  1.0000000 )


      isym =  2     inv. 180 deg rotation - cart. axis [1,0,0]   

 cryst.   s( 2) = (    -1          0          0      )
                  (     2          1          0      )
                  (     0          0          1      )

 cart.    s( 2) = ( -1.0000000  0.0000000  0.0000000 )
                  (  0.0000000  1.0000000  0.0000000 )
                  (  0.0000000  0.0000000  1.0000000 )


   Cartesian axes

     site n.     atom                  positions (alat units)
         1           Zn  tau(   1) = (   0.5000000   0.2886751   0.8082020  )
         2           Zn  tau(   2) = (   0.0000000   0.5773503   0.0010228  )
         3           O   tau(   3) = (   0.5000000   0.2886751   1.4201130  )
         4           O   tau(   4) = (   0.0000000   0.5773503   0.6129338  )
         5           Zn  tau(   5) = (   0.5000000   0.2886751   2.4225604  )
         6           Zn  tau(   6) = (   0.0000000   0.5773503   1.6153812  )
         7           O   tau(   7) = (   0.5000000   0.2886751   3.0344713  )
         8           O   tau(   8) = (   0.0000000   0.5773503   2.2272921  )
         9           Zn  tau(   9) = (   0.0000000   1.1547005   0.8082020  )
        10           Zn  tau(  10) = (  -0.5000000   1.4433757   0.0010228  )
        11           O   tau(  11) = (   0.0000000   1.1547005   1.4201130  )
        12           O   tau(  12) = (  -0.5000000   1.4433757   0.6129338  )
        13           Zn  tau(  13) = (   0.0000000   1.1547005   2.4225604  )
        14           Zn  tau(  14) = (  -0.5000000   1.4433757   1.6153812  )
        15           O   tau(  15) = (   0.0000000   1.1547005   3.0344713  )
        16           O   tau(  16) = (  -0.5000000   1.4433757   2.2272921  )

   Crystallographic axes

     site n.     atom                  positions (cryst. coord.)
         1           Zn  tau(   1) = (  0.6666667  0.1666667  0.2503168  )
         2           Zn  tau(   2) = (  0.3333333  0.3333333  0.0003168  )
         3           O   tau(   3) = (  0.6666667  0.1666667  0.4398382  )
         4           O   tau(   4) = (  0.3333333  0.3333333  0.1898382  )
         5           Zn  tau(   5) = (  0.6666667  0.1666667  0.7503168  )
         6           Zn  tau(   6) = (  0.3333333  0.3333333  0.5003168  )
         7           O   tau(   7) = (  0.6666667  0.1666667  0.9398382  )
         8           O   tau(   8) = (  0.3333333  0.3333333  0.6898382  )
         9           Zn  tau(   9) = (  0.6666667  0.6666667  0.2503168  )
        10           Zn  tau(  10) = (  0.3333333  0.8333333  0.0003168  )
        11           O   tau(  11) = (  0.6666667  0.6666667  0.4398382  )
        12           O   tau(  12) = (  0.3333333  0.8333333  0.1898382  )
        13           Zn  tau(  13) = (  0.6666667  0.6666667  0.7503168  )
        14           Zn  tau(  14) = (  0.3333333  0.8333333  0.5003168  )
        15           O   tau(  15) = (  0.6666667  0.6666667  0.9398382  )
        16           O   tau(  16) = (  0.3333333  0.8333333  0.6898382  )

     number of k points=    20
                       cart. coord. in units 2pi/alat
        k(    1) = (   0.0000000   0.0000000   0.0000000), wk =   0.0370370
        k(    2) = (   0.0000000   0.0000000   0.1032402), wk =   0.0740741
        k(    3) = (   0.0000000   0.1924501   0.0000000), wk =   0.0740741
        k(    4) = (   0.0000000   0.1924501   0.1032402), wk =   0.0740741
        k(    5) = (   0.1666667   0.0962250   0.0000000), wk =   0.1481481
        k(    6) = (   0.1666667   0.0962250   0.1032402), wk =   0.1481481
        k(    7) = (   0.1666667   0.2886751   0.0000000), wk =   0.0740741
        k(    8) = (   0.1666667   0.2886751   0.1032402), wk =   0.1481481
        k(    9) = (   0.3333333   0.1924501   0.0000000), wk =   0.1481481
        k(   10) = (   0.3333333   0.1924501   0.1032402), wk =   0.1481481
        k(   11) = (   0.3333333  -0.0000000   0.0000000), wk =   0.0740741
        k(   12) = (   0.3333333  -0.0000000   0.1032402), wk =   0.1481481
        k(   13) = (  -0.5000000  -0.2886751   0.0000000), wk =   0.0370370
        k(   14) = (  -0.5000000  -0.2886751   0.1032402), wk =   0.0740741
        k(   15) = (  -0.5000000  -0.0962250   0.0000000), wk =   0.0740741
        k(   16) = (  -0.5000000  -0.0962250   0.1032402), wk =   0.0740741
        k(   17) = (   0.0000000   0.1924501  -0.1032402), wk =   0.0740741
        k(   18) = (  -0.1666667   0.0962250  -0.1032402), wk =   0.1481481
        k(   19) = (  -0.3333333   0.1924501  -0.1032402), wk =   0.1481481
        k(   20) = (   0.5000000  -0.0962250  -0.1032402), wk =   0.0740741

                       cryst. coord.
        k(    1) = (   0.0000000   0.0000000   0.0000000), wk =   0.0370370
        k(    2) = (   0.0000000   0.0000000   0.3333333), wk =   0.0740741
        k(    3) = (   0.0000000   0.3333333   0.0000000), wk =   0.0740741
        k(    4) = (   0.0000000   0.3333333   0.3333333), wk =   0.0740741
        k(    5) = (   0.1666667  -0.0000000   0.0000000), wk =   0.1481481
        k(    6) = (   0.1666667  -0.0000000   0.3333333), wk =   0.1481481
        k(    7) = (   0.1666667   0.3333333   0.0000000), wk =   0.0740741
        k(    8) = (   0.1666667   0.3333333   0.3333333), wk =   0.1481481
        k(    9) = (   0.3333333  -0.0000000   0.0000000), wk =   0.1481481
        k(   10) = (   0.3333333  -0.0000000   0.3333333), wk =   0.1481481
        k(   11) = (   0.3333333  -0.3333333   0.0000000), wk =   0.0740741
        k(   12) = (   0.3333333  -0.3333333   0.3333333), wk =   0.1481481
        k(   13) = (  -0.5000000   0.0000000   0.0000000), wk =   0.0370370
        k(   14) = (  -0.5000000   0.0000000   0.3333333), wk =   0.0740741
        k(   15) = (  -0.5000000   0.3333333   0.0000000), wk =   0.0740741
        k(   16) = (  -0.5000000   0.3333333   0.3333333), wk =   0.0740741
        k(   17) = (   0.0000000   0.3333333  -0.3333333), wk =   0.0740741
        k(   18) = (  -0.1666667   0.3333333  -0.3333333), wk =   0.1481481
        k(   19) = (  -0.3333333   0.6666667  -0.3333333), wk =   0.1481481
        k(   20) = (   0.5000000  -0.6666667  -0.3333333), wk =   0.0740741

     Dense  grid:   178241 G-vectors     FFT dimensions: (  40,  80, 128)

     Smooth grid:    62839 G-vectors     FFT dimensions: (  27,  60,  90)

     Dynamical RAM for                 wfc:       1.08 MB

     Dynamical RAM for     wfc (w. buffer):      11.89 MB

     Dynamical RAM for           str. fact:       0.68 MB

     Dynamical RAM for           local pot:       0.00 MB

     Dynamical RAM for          nlocal pot:       3.12 MB

     Dynamical RAM for                qrad:       3.21 MB

     Dynamical RAM for          rho,v,vnew:       2.19 MB

     Dynamical RAM for               rhoin:       0.73 MB

     Dynamical RAM for            rho*nmix:       5.44 MB

     Dynamical RAM for           G-vectors:       1.33 MB

     Dynamical RAM for          h,s,v(r/c):       0.95 MB

     Dynamical RAM for          <psi|beta>:       0.23 MB

     Dynamical RAM for                 psi:       2.16 MB

     Dynamical RAM for                hpsi:       2.16 MB

     Dynamical RAM for                spsi:       2.16 MB

     Dynamical RAM for      wfcinit/wfcrot:       3.37 MB

     Dynamical RAM for           addusdens:      33.15 MB

     Dynamical RAM for          addusforce:      35.56 MB

     Estimated static dynamical RAM per process >      26.14 MB

     Estimated max dynamical RAM per process >      67.13 MB

     Estimated total dynamical RAM >       1.01 GB

     Check: negative core charge=   -0.000002

     Initial potential from superposition of free atoms

     starting charge     143.9702, renormalised to     144.0000
     Starting wfcs are  104 randomized atomic wfcs

     total cpu time spent up to now is        5.5 secs

     Self-consistent Calculation

     iteration #  1     ecut=    50.00 Ry     beta= 0.30
     Davidson diagonalization with overlap

---- Real-time Memory Report at c_bands before calling an iterative solver
            78 MiB given to the printing process from OS
             0 MiB allocation reported by mallinfo(arena+hblkhd)
         79401 MiB available memory on the node where the printing process lives
------------------
     ethr =  1.00E-02,  avg # of iterations =  1.9

     total cpu time spent up to now is       10.4 secs

     total energy              =   -1445.91793921 Ry
     estimated scf accuracy    <       2.76419291 Ry

     iteration #  2     ecut=    50.00 Ry     beta= 0.30
     Davidson diagonalization with overlap

---- Real-time Memory Report at c_bands before calling an iterative solver
            99 MiB given to the printing process from OS
             0 MiB allocation reported by mallinfo(arena+hblkhd)
         79169 MiB available memory on the node where the printing process lives
------------------
     ethr =  1.92E-03,  avg # of iterations =  2.0

     total cpu time spent up to now is       16.5 secs

     total energy              =   -1446.31851918 Ry
     estimated scf accuracy    <       0.35094006 Ry

     iteration #  3     ecut=    50.00 Ry     beta= 0.30
     Davidson diagonalization with overlap

---- Real-time Memory Report at c_bands before calling an iterative solver
           100 MiB given to the printing process from OS
             0 MiB allocation reported by mallinfo(arena+hblkhd)
         79169 MiB available memory on the node where the printing process lives
------------------
     ethr =  2.44E-04,  avg # of iterations =  6.7

     total cpu time spent up to now is       27.2 secs

     total energy              =   -1446.44688481 Ry
     estimated scf accuracy    <       0.22299167 Ry

     iteration #  4     ecut=    50.00 Ry     beta= 0.30
     Davidson diagonalization with overlap

---- Real-time Memory Report at c_bands before calling an iterative solver
           100 MiB given to the printing process from OS
             0 MiB allocation reported by mallinfo(arena+hblkhd)
         79174 MiB available memory on the node where the printing process lives
------------------
     ethr =  1.55E-04,  avg # of iterations =  8.8

     total cpu time spent up to now is       40.5 secs

     total energy              =   -1446.58463142 Ry
     estimated scf accuracy    <       0.86958982 Ry

     iteration #  5     ecut=    50.00 Ry     beta= 0.30
     Davidson diagonalization with overlap

---- Real-time Memory Report at c_bands before calling an iterative solver
           100 MiB given to the printing process from OS
             0 MiB allocation reported by mallinfo(arena+hblkhd)
         79173 MiB available memory on the node where the printing process lives
------------------
     ethr =  1.55E-04,  avg # of iterations =  2.0

     total cpu time spent up to now is       45.6 secs

     total energy              =   -1446.20264143 Ry
     estimated scf accuracy    <       0.48737384 Ry

     iteration #  6     ecut=    50.00 Ry     beta= 0.30
     Davidson diagonalization with overlap

---- Real-time Memory Report at c_bands before calling an iterative solver
           100 MiB given to the printing process from OS
             0 MiB allocation reported by mallinfo(arena+hblkhd)
         79173 MiB available memory on the node where the printing process lives
------------------
     ethr =  1.55E-04,  avg # of iterations = 11.1

     total cpu time spent up to now is       61.2 secs

     total energy              =   -1446.13950613 Ry
     estimated scf accuracy    <       4.30187039 Ry

     iteration #  7     ecut=    50.00 Ry     beta= 0.30
     Davidson diagonalization with overlap

---- Real-time Memory Report at c_bands before calling an iterative solver
           101 MiB given to the printing process from OS
             0 MiB allocation reported by mallinfo(arena+hblkhd)
         79172 MiB available memory on the node where the printing process lives
------------------
     ethr =  1.55E-04,  avg # of iterations =  8.8

     total cpu time spent up to now is       74.6 secs

     total energy              =   -1446.53780971 Ry
     estimated scf accuracy    <       0.25985570 Ry

     iteration #  8     ecut=    50.00 Ry     beta= 0.30
     Davidson diagonalization with overlap

---- Real-time Memory Report at c_bands before calling an iterative solver
           101 MiB given to the printing process from OS
             0 MiB allocation reported by mallinfo(arena+hblkhd)
         79171 MiB available memory on the node where the printing process lives
------------------
     ethr =  1.55E-04,  avg # of iterations =  1.9

     total cpu time spent up to now is       79.5 secs

     total energy              =   -1446.53660256 Ry
     estimated scf accuracy    <       0.14018476 Ry

     iteration #  9     ecut=    50.00 Ry     beta= 0.30
     Davidson diagonalization with overlap

---- Real-time Memory Report at c_bands before calling an iterative solver
           101 MiB given to the printing process from OS
             0 MiB allocation reported by mallinfo(arena+hblkhd)
         79170 MiB available memory on the node where the printing process lives
------------------
     ethr =  9.74E-05,  avg # of iterations =  2.0

     total cpu time spent up to now is       84.6 secs

     total energy              =   -1446.50225553 Ry
     estimated scf accuracy    <       0.09395750 Ry

     iteration # 10     ecut=    50.00 Ry     beta= 0.30
     Davidson diagonalization with overlap

---- Real-time Memory Report at c_bands before calling an iterative solver
           101 MiB given to the printing process from OS
             0 MiB allocation reported by mallinfo(arena+hblkhd)
         79169 MiB available memory on the node where the printing process lives
------------------
     ethr =  6.52E-05,  avg # of iterations =  6.6

     total cpu time spent up to now is       93.7 secs

     total energy              =   -1446.54637411 Ry
     estimated scf accuracy    <       0.00927610 Ry

     iteration # 11     ecut=    50.00 Ry     beta= 0.30
     Davidson diagonalization with overlap

---- Real-time Memory Report at c_bands before calling an iterative solver
           101 MiB given to the printing process from OS
             0 MiB allocation reported by mallinfo(arena+hblkhd)
         79169 MiB available memory on the node where the printing process lives
------------------
     ethr =  6.44E-06,  avg # of iterations =  4.7

     total cpu time spent up to now is      100.5 secs

     total energy              =   -1446.54662320 Ry
     estimated scf accuracy    <       0.00447103 Ry

     iteration # 12     ecut=    50.00 Ry     beta= 0.30
     Davidson diagonalization with overlap

---- Real-time Memory Report at c_bands before calling an iterative solver
           101 MiB given to the printing process from OS
             0 MiB allocation reported by mallinfo(arena+hblkhd)
         79169 MiB available memory on the node where the printing process lives
------------------
     ethr =  3.10E-06,  avg # of iterations =  3.2

     total cpu time spent up to now is      106.4 secs

     total energy              =   -1446.54610909 Ry
     estimated scf accuracy    <       0.00135752 Ry

     iteration # 13     ecut=    50.00 Ry     beta= 0.30
     Davidson diagonalization with overlap

---- Real-time Memory Report at c_bands before calling an iterative solver
           101 MiB given to the printing process from OS
             0 MiB allocation reported by mallinfo(arena+hblkhd)
         79168 MiB available memory on the node where the printing process lives
------------------
     ethr =  9.43E-07,  avg # of iterations =  8.7

     total cpu time spent up to now is      119.7 secs

     total energy              =   -1446.54671338 Ry
     estimated scf accuracy    <       0.00521092 Ry

     iteration # 14     ecut=    50.00 Ry     beta= 0.30
     Davidson diagonalization with overlap

---- Real-time Memory Report at c_bands before calling an iterative solver
           101 MiB given to the printing process from OS
             0 MiB allocation reported by mallinfo(arena+hblkhd)
         79168 MiB available memory on the node where the printing process lives
------------------
     ethr =  9.43E-07,  avg # of iterations =  5.3

     total cpu time spent up to now is      129.2 secs

     total energy              =   -1446.54762878 Ry
     estimated scf accuracy    <       0.00008367 Ry

     iteration # 15     ecut=    50.00 Ry     beta= 0.30
     Davidson diagonalization with overlap

---- Real-time Memory Report at c_bands before calling an iterative solver
           101 MiB given to the printing process from OS
             0 MiB allocation reported by mallinfo(arena+hblkhd)
         79168 MiB available memory on the node where the printing process lives
------------------
     ethr =  5.81E-08,  avg # of iterations =  5.6

     total cpu time spent up to now is      138.7 secs

     total energy              =   -1446.54752771 Ry
     estimated scf accuracy    <       0.00049609 Ry

     iteration # 16     ecut=    50.00 Ry     beta= 0.30
     Davidson diagonalization with overlap

---- Real-time Memory Report at c_bands before calling an iterative solver
           101 MiB given to the printing process from OS
             0 MiB allocation reported by mallinfo(arena+hblkhd)
         79168 MiB available memory on the node where the printing process lives
------------------
     ethr =  5.81E-08,  avg # of iterations =  5.2

     total cpu time spent up to now is      146.7 secs

     total energy              =   -1446.54756164 Ry
     estimated scf accuracy    <       0.00009172 Ry

     iteration # 17     ecut=    50.00 Ry     beta= 0.30
     Davidson diagonalization with overlap

---- Real-time Memory Report at c_bands before calling an iterative solver
           101 MiB given to the printing process from OS
             0 MiB allocation reported by mallinfo(arena+hblkhd)
         79168 MiB available memory on the node where the printing process lives
------------------
     ethr =  5.81E-08,  avg # of iterations =  1.8

     total cpu time spent up to now is      151.7 secs

     total energy              =   -1446.54752586 Ry
     estimated scf accuracy    <       0.00008149 Ry

     iteration # 18     ecut=    50.00 Ry     beta= 0.30
     Davidson diagonalization with overlap

---- Real-time Memory Report at c_bands before calling an iterative solver
           101 MiB given to the printing process from OS
             0 MiB allocation reported by mallinfo(arena+hblkhd)
         79168 MiB available memory on the node where the printing process lives
------------------
     ethr =  5.66E-08,  avg # of iterations =  5.2

     total cpu time spent up to now is      159.0 secs

     total energy              =   -1446.54754805 Ry
     estimated scf accuracy    <       0.00000066 Ry

     iteration # 19     ecut=    50.00 Ry     beta= 0.30
     Davidson diagonalization with overlap

---- Real-time Memory Report at c_bands before calling an iterative solver
           101 MiB given to the printing process from OS
             0 MiB allocation reported by mallinfo(arena+hblkhd)
         79168 MiB available memory on the node where the printing process lives
------------------
     c_bands:  1 eigenvalues not converged
     ethr =  4.55E-10,  avg # of iterations = 14.2

     total cpu time spent up to now is      179.0 secs

     total energy              =   -1446.54755422 Ry
     estimated scf accuracy    <       0.00005607 Ry

     iteration # 20     ecut=    50.00 Ry     beta= 0.30
     Davidson diagonalization with overlap

---- Real-time Memory Report at c_bands before calling an iterative solver
           101 MiB given to the printing process from OS
             0 MiB allocation reported by mallinfo(arena+hblkhd)
         79168 MiB available memory on the node where the printing process lives
------------------
     ethr =  4.55E-10,  avg # of iterations =  9.8

     total cpu time spent up to now is      193.5 secs

     total energy              =   -1446.54755718 Ry
     estimated scf accuracy    <       0.00001844 Ry

     iteration # 21     ecut=    50.00 Ry     beta= 0.30
     Davidson diagonalization with overlap

---- Real-time Memory Report at c_bands before calling an iterative solver
           101 MiB given to the printing process from OS
             0 MiB allocation reported by mallinfo(arena+hblkhd)
         79168 MiB available memory on the node where the printing process lives
------------------
     ethr =  4.55E-10,  avg # of iterations =  1.1

     total cpu time spent up to now is      198.2 secs

     total energy              =   -1446.54755015 Ry
     estimated scf accuracy    <       0.00002052 Ry

     iteration # 22     ecut=    50.00 Ry     beta= 0.30
     Davidson diagonalization with overlap

---- Real-time Memory Report at c_bands before calling an iterative solver
           101 MiB given to the printing process from OS
             0 MiB allocation reported by mallinfo(arena+hblkhd)
         79168 MiB available memory on the node where the printing process lives
------------------
     ethr =  4.55E-10,  avg # of iterations = 10.7

     total cpu time spent up to now is      212.9 secs

     total energy              =   -1446.54755194 Ry
     estimated scf accuracy    <       0.00000177 Ry

     iteration # 23     ecut=    50.00 Ry     beta= 0.30
     Davidson diagonalization with overlap

---- Real-time Memory Report at c_bands before calling an iterative solver
           101 MiB given to the printing process from OS
             0 MiB allocation reported by mallinfo(arena+hblkhd)
         79168 MiB available memory on the node where the printing process lives
------------------
     ethr =  4.55E-10,  avg # of iterations =  1.6

     total cpu time spent up to now is      217.7 secs

     total energy              =   -1446.54755168 Ry
     estimated scf accuracy    <       0.00000158 Ry

     iteration # 24     ecut=    50.00 Ry     beta= 0.30
     Davidson diagonalization with overlap

---- Real-time Memory Report at c_bands before calling an iterative solver
           101 MiB given to the printing process from OS
             0 MiB allocation reported by mallinfo(arena+hblkhd)
         79168 MiB available memory on the node where the printing process lives
------------------
     ethr =  4.55E-10,  avg # of iterations =  2.2

     total cpu time spent up to now is      222.9 secs

     total energy              =   -1446.54755132 Ry
     estimated scf accuracy    <       0.00000093 Ry

     iteration # 25     ecut=    50.00 Ry     beta= 0.30
     Davidson diagonalization with overlap

---- Real-time Memory Report at c_bands before calling an iterative solver
           101 MiB given to the printing process from OS
             0 MiB allocation reported by mallinfo(arena+hblkhd)
         79168 MiB available memory on the node where the printing process lives
------------------
     ethr =  4.55E-10,  avg # of iterations =  6.0

     total cpu time spent up to now is      231.7 secs

     total energy              =   -1446.54755165 Ry
     estimated scf accuracy    <       0.00000011 Ry

     iteration # 26     ecut=    50.00 Ry     beta= 0.30
     Davidson diagonalization with overlap

---- Real-time Memory Report at c_bands before calling an iterative solver
           101 MiB given to the printing process from OS
             0 MiB allocation reported by mallinfo(arena+hblkhd)
         79168 MiB available memory on the node where the printing process lives
------------------
     ethr =  7.85E-11,  avg # of iterations =  6.2

     total cpu time spent up to now is      240.9 secs

     total energy              =   -1446.54755164 Ry
     estimated scf accuracy    <       0.00000029 Ry

     iteration # 27     ecut=    50.00 Ry     beta= 0.30
     Davidson diagonalization with overlap

---- Real-time Memory Report at c_bands before calling an iterative solver
           101 MiB given to the printing process from OS
             0 MiB allocation reported by mallinfo(arena+hblkhd)
         79168 MiB available memory on the node where the printing process lives
------------------
     ethr =  7.85E-11,  avg # of iterations =  2.5

     total cpu time spent up to now is      246.3 secs

     total energy              =   -1446.54755156 Ry
     estimated scf accuracy    <       0.00000015 Ry

     iteration # 28     ecut=    50.00 Ry     beta= 0.30
     Davidson diagonalization with overlap

---- Real-time Memory Report at c_bands before calling an iterative solver
           101 MiB given to the printing process from OS
             0 MiB allocation reported by mallinfo(arena+hblkhd)
         79168 MiB available memory on the node where the printing process lives
------------------
     ethr =  7.85E-11,  avg # of iterations =  6.5

     total cpu time spent up to now is      256.6 secs

     total energy              =   -1446.54755164 Ry
     estimated scf accuracy    <       0.00000006 Ry

     iteration # 29     ecut=    50.00 Ry     beta= 0.30
     Davidson diagonalization with overlap

---- Real-time Memory Report at c_bands before calling an iterative solver
           101 MiB given to the printing process from OS
             0 MiB allocation reported by mallinfo(arena+hblkhd)
         79168 MiB available memory on the node where the printing process lives
------------------
     ethr =  4.43E-11,  avg # of iterations =  1.8

     total cpu time spent up to now is      261.4 secs

     total energy              =   -1446.54755162 Ry
     estimated scf accuracy    <       0.00000004 Ry

     iteration # 30     ecut=    50.00 Ry     beta= 0.30
     Davidson diagonalization with overlap

---- Real-time Memory Report at c_bands before calling an iterative solver
           101 MiB given to the printing process from OS
             0 MiB allocation reported by mallinfo(arena+hblkhd)
         79168 MiB available memory on the node where the printing process lives
------------------
     ethr =  2.45E-11,  avg # of iterations =  4.4

     total cpu time spent up to now is      268.9 secs

     End of self-consistent calculation

          k = 0.0000 0.0000 0.0000 (  7805 PWs)   bands (ev):

   -10.9984 -10.6674 -10.6674 -10.3492 -10.3182 -10.2371 -10.2371 -10.1407
     0.9527   0.9527   1.1141   1.1297   1.1297   1.3159   1.3159   1.3230
     1.3565   1.3852   1.3852   1.3852   1.3852   1.4392   1.5014   1.5014
     1.5609   1.7820   1.7821   1.8586   1.8587   1.9413   1.9538   2.0753
     2.4282   2.4282   2.4641   2.5468   2.5468   2.5468   2.5468   2.5909
     2.6133   2.6133   2.6248   2.6248   2.6705   2.6978   2.6978   2.7417
     2.8918   3.1878   3.1878   3.2047   3.4268   4.1406   4.6601   4.6601
     4.7140   5.4385   5.4385   5.5539   5.5540   5.6403   6.0830   6.1251
     6.1251   6.5108   6.5108   6.5109   6.5109   6.8050   6.8874   6.8874

     occupation numbers 
     1.0000   1.0000   1.0000   1.0000   1.0000   1.0000   1.0000   1.0000
     1.0000   1.0000   1.0000   1.0000   1.0000   1.0000   1.0000   1.0000
     1.0000   1.0000   1.0000   1.0000   1.0000   1.0000   1.0000   1.0000
     1.0000   1.0000   1.0000   1.0000   1.0000   1.0000   1.0000   1.0000
     1.0000   1.0000   1.0000   1.0000   1.0000   1.0000   1.0000   1.0000
     1.0000   1.0000   1.0000   1.0000   1.0000   1.0000   1.0000   1.0000
     1.0000   1.0000   1.0000   1.0000   1.0000   1.0000   1.0000   1.0000
     1.0000   1.0000   1.0000   1.0000   1.0000   1.0000   1.0000   1.0000
     1.0000   1.0000   1.0000   1.0000   1.0000   1.0000   1.0000   1.0000

          k = 0.0000 0.0000 0.1032 (  7841 PWs)   bands (ev):

   -10.9551 -10.8351 -10.4951 -10.3661 -10.3334 -10.2914 -10.1868 -10.1526
     0.9826   1.0471   1.0698   1.1614   1.2062   1.2255   1.3102   1.3169
     1.3225   1.3225   1.3451   1.3451   1.4366   1.4366   1.4826   1.4826
     1.5871   1.6641   1.8687   1.8803   1.9133   1.9178   1.9195   2.0308
     2.4460   2.4460   2.4918   2.4918   2.5266   2.5917   2.5917   2.5930
     2.6003   2.6172   2.6172   2.6268   2.6329   2.6574   2.7317   2.7411
     3.1456   3.1660   3.2007   3.2754   3.3762   3.8753   4.4237   4.8201
     5.0141   5.0927   5.4566   5.7267   5.7659   5.7927   5.9987   6.1772
     6.1772   6.2430   6.3190   6.3190   6.7004   6.7004   6.8375   6.8375

     occupation numbers 
     1.0000   1.0000   1.0000   1.0000   1.0000   1.0000   1.0000   1.0000
     1.0000   1.0000   1.0000   1.0000   1.0000   1.0000   1.0000   1.0000
     1.0000   1.0000   1.0000   1.0000   1.0000   1.0000   1.0000   1.0000
     1.0000   1.0000   1.0000   1.0000   1.0000   1.0000   1.0000   1.0000
     1.0000   1.0000   1.0000   1.0000   1.0000   1.0000   1.0000   1.0000
     1.0000   1.0000   1.0000   1.0000   1.0000   1.0000   1.0000   1.0000
     1.0000   1.0000   1.0000   1.0000   1.0000   1.0000   1.0000   1.0000
     1.0000   1.0000   1.0000   1.0000   1.0000   1.0000   1.0000   1.0000
     1.0000   1.0000   1.0000   1.0000   1.0000   1.0000   1.0000   1.0000

          k = 0.0000 0.1925 0.0000 (  7876 PWs)   bands (ev):

   -10.8593 -10.5636 -10.5636 -10.5469 -10.3486 -10.3486 -10.2581 -10.1574
     0.9620   0.9620   1.0420   1.0549   1.0549   1.1787   1.3780   1.3939
     1.4175   1.4698   1.4698   1.4827   1.4827   1.4978   1.5196   1.6182
     1.6647   1.6841   1.6841   1.6874   1.6874   1.7197   1.9005   2.0312
     2.3484   2.3719   2.4269   2.4988   2.5440   2.5440   2.5485   2.5485
     2.5701   2.5702   2.5851   2.5851   2.6358   2.6552   2.7479   2.8130
     2.8613   3.0838   3.7941   3.8758   3.8758   4.6007   4.6008   4.6507
     5.0973   5.2257   5.5303   5.5303   5.7224   5.7225   5.7794   5.7885
     5.9120   5.9120   6.0931   6.2537   6.2538   6.3016   6.6256   6.7030

     occupation numbers 
     1.0000   1.0000   1.0000   1.0000   1.0000   1.0000   1.0000   1.0000
     1.0000   1.0000   1.0000   1.0000   1.0000   1.0000   1.0000   1.0000
     1.0000   1.0000   1.0000   1.0000   1.0000   1.0000   1.0000   1.0000
     1.0000   1.0000   1.0000   1.0000   1.0000   1.0000   1.0000   1.0000
     1.0000   1.0000   1.0000   1.0000   1.0000   1.0000   1.0000   1.0000
     1.0000   1.0000   1.0000   1.0000   1.0000   1.0000   1.0000   1.0000
     1.0000   1.0000   1.0000   1.0000   1.0000   1.0000   1.0000   1.0000
     1.0000   1.0000   1.0000   1.0000   1.0000   1.0000   1.0000   1.0000
     1.0000   1.0000   1.0000   1.0000   1.0000   1.0000   1.0000   1.0000

          k = 0.0000 0.1925 0.1032 (  7840 PWs)   bands (ev):

   -10.8203 -10.7127 -10.5201 -10.4471 -10.4120 -10.2995 -10.2519 -10.1825
     0.9559   1.0114   1.0820   1.0906   1.1443   1.1496   1.2878   1.3367
     1.4035   1.4331   1.4425   1.4548   1.5221   1.5395   1.5437   1.5905
     1.5967   1.5969   1.6674   1.6945   1.7583   1.7846   1.8679   1.8969
     2.3853   2.4013   2.4440   2.4695   2.4787   2.4884   2.5083   2.5339
     2.5935   2.6096   2.6172   2.6255   2.6425   2.6724   2.6819   2.7606
     3.2560   3.3424   3.6415   3.9343   3.9351   4.0473   4.6229   4.9084
     5.1229   5.1856   5.2751   5.4186   5.5974   5.6315   5.8520   5.9793
     6.0155   6.0235   6.1085   6.2255   6.2837   6.4801   6.5473   6.6436

     occupation numbers 
     1.0000   1.0000   1.0000   1.0000   1.0000   1.0000   1.0000   1.0000
     1.0000   1.0000   1.0000   1.0000   1.0000   1.0000   1.0000   1.0000
     1.0000   1.0000   1.0000   1.0000   1.0000   1.0000   1.0000   1.0000
     1.0000   1.0000   1.0000   1.0000   1.0000   1.0000   1.0000   1.0000
     1.0000   1.0000   1.0000   1.0000   1.0000   1.0000   1.0000   1.0000
     1.0000   1.0000   1.0000   1.0000   1.0000   1.0000   1.0000   1.0000
     1.0000   1.0000   1.0000   1.0000   1.0000   1.0000   1.0000   1.0000
     1.0000   1.0000   1.0000   1.0000   1.0000   1.0000   1.0000   1.0000
     1.0000   1.0000   1.0000   1.0000   1.0000   1.0000   1.0000   1.0000

          k = 0.1667 0.0962 0.0000 (  7868 PWs)   bands (ev):

   -10.8593 -10.5636 -10.5636 -10.3567 -10.2581 -10.2391 -10.2390 -10.1367
     1.0549   1.0549   1.0857   1.0857   1.1787   1.2098   1.3939   1.4175
     1.4530   1.4698   1.4698   1.4827   1.4827   1.4978   1.5839   1.6182
     1.6623   1.6623   1.6647   1.7926   1.8597   1.8597   2.0460   2.1149
     2.3719   2.4055   2.4269   2.4731   2.5440   2.5440   2.5485   2.5485
     2.5532   2.5532   2.6358   2.6836   2.7389   2.7389   2.7479   2.8613
     2.8732   3.0747   3.4275   3.4275   3.6813   4.1031   4.4220   4.6007
     4.6008   4.9299   4.9299   5.2257   5.6135   5.6423   5.6423   5.7794
     5.7885   5.7976   5.9120   5.9120   6.2537   6.2538   6.6256   6.7030

     occupation numbers 
     1.0000   1.0000   1.0000   1.0000   1.0000   1.0000   1.0000   1.0000
     1.0000   1.0000   1.0000   1.0000   1.0000   1.0000   1.0000   1.0000
     1.0000   1.0000   1.0000   1.0000   1.0000   1.0000   1.0000   1.0000
     1.0000   1.0000   1.0000   1.0000   1.0000   1.0000   1.0000   1.0000
     1.0000   1.0000   1.0000   1.0000   1.0000   1.0000   1.0000   1.0000
     1.0000   1.0000   1.0000   1.0000   1.0000   1.0000   1.0000   1.0000
     1.0000   1.0000   1.0000   1.0000   1.0000   1.0000   1.0000   1.0000
     1.0000   1.0000   1.0000   1.0000   1.0000   1.0000   1.0000   1.0000
     1.0000   1.0000   1.0000   1.0000   1.0000   1.0000   1.0000   1.0000

          k = 0.1667 0.0962 0.1032 (  7866 PWs)   bands (ev):

   -10.8203 -10.7127 -10.4120 -10.3401 -10.2995 -10.2961 -10.1858 -10.1494
     1.0820   1.1038   1.1443   1.1496   1.1780   1.1968   1.3367   1.3762
     1.4035   1.4331   1.4425   1.4548   1.5220   1.5437   1.5637   1.5839
     1.5905   1.5969   1.7338   1.7730   1.8904   1.9133   1.9824   2.0290
     2.4013   2.4171   2.4440   2.4695   2.4884   2.4958   2.5393   2.5677
     2.5935   2.6172   2.6255   2.6724   2.6804   2.6913   2.8116   2.8696
     3.1154   3.2560   3.2568   3.5916   3.6971   3.9343   4.2092   4.5350
     4.6168   5.0817   5.1229   5.2751   5.3813   5.5973   5.5974   5.6315
     5.7986   5.8448   5.8520   6.0235   6.2837   6.4801   6.5473   6.6436

     occupation numbers 
     1.0000   1.0000   1.0000   1.0000   1.0000   1.0000   1.0000   1.0000
     1.0000   1.0000   1.0000   1.0000   1.0000   1.0000   1.0000   1.0000
     1.0000   1.0000   1.0000   1.0000   1.0000   1.0000   1.0000   1.0000
     1.0000   1.0000   1.0000   1.0000   1.0000   1.0000   1.0000   1.0000
     1.0000   1.0000   1.0000   1.0000   1.0000   1.0000   1.0000   1.0000
     1.0000   1.0000   1.0000   1.0000   1.0000   1.0000   1.0000   1.0000
     1.0000   1.0000   1.0000   1.0000   1.0000   1.0000   1.0000   1.0000
     1.0000   1.0000   1.0000   1.0000   1.0000   1.0000   1.0000   1.0000
     1.0000   1.0000   1.0000   1.0000   1.0000   1.0000   1.0000   1.0000

          k = 0.1667 0.2887 0.0000 (  7874 PWs)   bands (ev):

   -10.6322 -10.6321 -10.4038 -10.4038 -10.4038 -10.4037 -10.1782 -10.1781
     1.0209   1.0209   1.0209   1.0209   1.1448   1.1448   1.3347   1.3347
     1.5272   1.5272   1.5328   1.5328   1.5328   1.5328   1.5845   1.5845
     1.6781   1.6781   1.6781   1.6781   1.8373   1.8373   1.9688   1.9688
     2.3226   2.3226   2.4472   2.4472   2.5519   2.5519   2.5519   2.5519
     2.5835   2.5835   2.5835   2.5835   2.6484   2.6484   2.8198   2.8198
     3.0203   3.0203   4.2135   4.2135   4.2135   4.2135   4.4227   4.4227
     4.6354   4.6354   5.2290   5.2290   5.5301   5.5301   5.5301   5.5301
     5.7236   5.7236   5.7237   5.7237   6.2537   6.2537   6.2864   6.2864

     occupation numbers 
     1.0000   1.0000   1.0000   1.0000   1.0000   1.0000   1.0000   1.0000
     1.0000   1.0000   1.0000   1.0000   1.0000   1.0000   1.0000   1.0000
     1.0000   1.0000   1.0000   1.0000   1.0000   1.0000   1.0000   1.0000
     1.0000   1.0000   1.0000   1.0000   1.0000   1.0000   1.0000   1.0000
     1.0000   1.0000   1.0000   1.0000   1.0000   1.0000   1.0000   1.0000
     1.0000   1.0000   1.0000   1.0000   1.0000   1.0000   1.0000   1.0000
     1.0000   1.0000   1.0000   1.0000   1.0000   1.0000   1.0000   1.0000
     1.0000   1.0000   1.0000   1.0000   1.0000   1.0000   1.0000   1.0000
     1.0000   1.0000   1.0000   1.0000   1.0000   1.0000   1.0000   1.0000

          k = 0.1667 0.2887 0.1032 (  7868 PWs)   bands (ev):

   -10.6015 -10.6015 -10.5178 -10.5178 -10.2904 -10.2904 -10.2081 -10.2081
     1.0368   1.0368   1.1086   1.1086   1.1268   1.1268   1.2850   1.2850
     1.5169   1.5169   1.5188   1.5188   1.5381   1.5381   1.5573   1.5573
     1.6853   1.6853   1.7417   1.7417   1.8092   1.8092   1.8094   1.8094
     2.3642   2.3642   2.4609   2.4609   2.4789   2.4789   2.5183   2.5183
     2.6056   2.6056   2.6363   2.6363   2.6725   2.6725   2.7500   2.7500
     3.3752   3.3752   3.8659   3.8659   4.4657   4.4657   4.5551   4.5551
     4.6101   4.6101   4.9825   4.9825   5.2328   5.2328   5.3664   5.3664
     5.9570   5.9570   6.0904   6.0904   6.1732   6.1732   6.2739   6.2739

     occupation numbers 
     1.0000   1.0000   1.0000   1.0000   1.0000   1.0000   1.0000   1.0000
     1.0000   1.0000   1.0000   1.0000   1.0000   1.0000   1.0000   1.0000
     1.0000   1.0000   1.0000   1.0000   1.0000   1.0000   1.0000   1.0000
     1.0000   1.0000   1.0000   1.0000   1.0000   1.0000   1.0000   1.0000
     1.0000   1.0000   1.0000   1.0000   1.0000   1.0000   1.0000   1.0000
     1.0000   1.0000   1.0000   1.0000   1.0000   1.0000   1.0000   1.0000
     1.0000   1.0000   1.0000   1.0000   1.0000   1.0000   1.0000   1.0000
     1.0000   1.0000   1.0000   1.0000   1.0000   1.0000   1.0000   1.0000
     1.0000   1.0000   1.0000   1.0000   1.0000   1.0000   1.0000   1.0000

          k = 0.3333 0.1925 0.0000 (  7908 PWs)   bands (ev):

   -10.5469 -10.3567 -10.3486 -10.3486 -10.2391 -10.2390 -10.1574 -10.1367
     0.9620   0.9620   1.0420   1.0857   1.0857   1.2098   1.3780   1.4530
     1.5196   1.5839   1.6623   1.6623   1.6841   1.6841   1.6874   1.6874
     1.7197   1.7926   1.8597   1.8597   1.9005   2.0312   2.0460   2.1149
     2.3484   2.4055   2.4731   2.4988   2.5532   2.5532   2.5701   2.5702
     2.5851   2.5851   2.6552   2.6836   2.7389   2.7389   2.8130   2.8732
     3.0747   3.0838   3.4275   3.4275   3.6813   3.7941   3.8758   3.8758
     4.1031   4.4220   4.6507   4.9299   4.9299   5.0973   5.5303   5.5303
     5.6135   5.6423   5.6423   5.7224   5.7225   5.7976   6.0931   6.3016

     occupation numbers 
     1.0000   1.0000   1.0000   1.0000   1.0000   1.0000   1.0000   1.0000
     1.0000   1.0000   1.0000   1.0000   1.0000   1.0000   1.0000   1.0000
     1.0000   1.0000   1.0000   1.0000   1.0000   1.0000   1.0000   1.0000
     1.0000   1.0000   1.0000   1.0000   1.0000   1.0000   1.0000   1.0000
     1.0000   1.0000   1.0000   1.0000   1.0000   1.0000   1.0000   1.0000
     1.0000   1.0000   1.0000   1.0000   1.0000   1.0000   1.0000   1.0000
     1.0000   1.0000   1.0000   1.0000   1.0000   1.0000   1.0000   1.0000
     1.0000   1.0000   1.0000   1.0000   1.0000   1.0000   1.0000   1.0000
     1.0000   1.0000   1.0000   1.0000   1.0000   1.0000   1.0000   1.0000

          k = 0.3333 0.1925 0.1032 (  7888 PWs)   bands (ev):

   -10.5201 -10.4471 -10.3401 -10.2961 -10.2519 -10.1858 -10.1825 -10.1494
     0.9559   1.0114   1.0906   1.1038   1.1780   1.1968   1.2878   1.3762
     1.5395   1.5637   1.5839   1.5967   1.6674   1.6945   1.7338   1.7583
     1.7730   1.7846   1.8679   1.8904   1.8969   1.9133   1.9824   2.0290
     2.3853   2.4171   2.4787   2.4958   2.5083   2.5339   2.5393   2.5677
     2.6096   2.6425   2.6804   2.6819   2.6913   2.7606   2.8116   2.8696
     3.1154   3.2568   3.3424   3.5916   3.6415   3.6971   3.9351   4.0473
     4.2092   4.5350   4.6168   4.6229   4.9084   5.0817   5.1856   5.3814
     5.4186   5.5972   5.7986   5.8448   5.9793   6.0155   6.1085   6.2255

     occupation numbers 
     1.0000   1.0000   1.0000   1.0000   1.0000   1.0000   1.0000   1.0000
     1.0000   1.0000   1.0000   1.0000   1.0000   1.0000   1.0000   1.0000
     1.0000   1.0000   1.0000   1.0000   1.0000   1.0000   1.0000   1.0000
     1.0000   1.0000   1.0000   1.0000   1.0000   1.0000   1.0000   1.0000
     1.0000   1.0000   1.0000   1.0000   1.0000   1.0000   1.0000   1.0000
     1.0000   1.0000   1.0000   1.0000   1.0000   1.0000   1.0000   1.0000
     1.0000   1.0000   1.0000   1.0000   1.0000   1.0000   1.0000   1.0000
     1.0000   1.0000   1.0000   1.0000   1.0000   1.0000   1.0000   1.0000
     1.0000   1.0000   1.0000   1.0000   1.0000   1.0000   1.0000   1.0000

          k = 0.3333-0.0000 0.0000 (  7876 PWs)   bands (ev):

   -10.6322 -10.4038 -10.4037 -10.1943 -10.1942 -10.1848 -10.1848 -10.1781
     1.0209   1.0209   1.1448   1.2800   1.3212   1.3212   1.3347   1.5272
     1.5305   1.5306   1.5328   1.5328   1.5845   1.6688   1.6688   1.6781
     1.6781   1.8373   1.9688   2.0258   2.0556   2.0556   2.2690   2.2690
     2.3226   2.3627   2.4346   2.4346   2.4472   2.4858   2.5316   2.5316
     2.5519   2.5519   2.5835   2.5835   2.6484   2.8198   2.9254   2.9254
     3.0203   3.2410   3.2429   3.2429   3.4120   3.4120   4.2135   4.2135
     4.2827   4.2827   4.4227   4.6354   5.0283   5.0283   5.2183   5.2290
     5.5301   5.5301   5.6818   5.6818   5.7236   5.7237   6.2537   6.2864

     occupation numbers 
     1.0000   1.0000   1.0000   1.0000   1.0000   1.0000   1.0000   1.0000
     1.0000   1.0000   1.0000   1.0000   1.0000   1.0000   1.0000   1.0000
     1.0000   1.0000   1.0000   1.0000   1.0000   1.0000   1.0000   1.0000
     1.0000   1.0000   1.0000   1.0000   1.0000   1.0000   1.0000   1.0000
     1.0000   1.0000   1.0000   1.0000   1.0000   1.0000   1.0000   1.0000
     1.0000   1.0000   1.0000   1.0000   1.0000   1.0000   1.0000   1.0000
     1.0000   1.0000   1.0000   1.0000   1.0000   1.0000   1.0000   1.0000
     1.0000   1.0000   1.0000   1.0000   1.0000   1.0000   1.0000   1.0000
     1.0000   1.0000   1.0000   1.0000   1.0000   1.0000   1.0000   1.0000

          k = 0.3333-0.0000 0.1032 (  7870 PWs)   bands (ev):

   -10.6015 -10.5178 -10.2904 -10.2081 -10.1919 -10.1918 -10.1872 -10.1871
     1.0368   1.1086   1.1268   1.2850   1.3081   1.3917   1.4031   1.4031
     1.5169   1.5188   1.5381   1.5573   1.5787   1.5787   1.6853   1.7170
     1.7417   1.8092   1.8094   1.9187   2.0771   2.0771   2.1585   2.1585
     2.3642   2.3793   2.4064   2.4607   2.4609   2.4789   2.4791   2.5183
     2.6056   2.6363   2.6725   2.6812   2.6812   2.7500   2.8530   2.8530
     3.2872   3.2873   3.3685   3.3685   3.3752   3.4090   3.8035   3.8659
     4.4657   4.5551   4.6101   4.7452   4.9825   5.0893   5.1982   5.1983
     5.2328   5.3664   5.5234   5.5234   5.9570   6.0904   6.1732   6.2739

     occupation numbers 
     1.0000   1.0000   1.0000   1.0000   1.0000   1.0000   1.0000   1.0000
     1.0000   1.0000   1.0000   1.0000   1.0000   1.0000   1.0000   1.0000
     1.0000   1.0000   1.0000   1.0000   1.0000   1.0000   1.0000   1.0000
     1.0000   1.0000   1.0000   1.0000   1.0000   1.0000   1.0000   1.0000
     1.0000   1.0000   1.0000   1.0000   1.0000   1.0000   1.0000   1.0000
     1.0000   1.0000   1.0000   1.0000   1.0000   1.0000   1.0000   1.0000
     1.0000   1.0000   1.0000   1.0000   1.0000   1.0000   1.0000   1.0000
     1.0000   1.0000   1.0000   1.0000   1.0000   1.0000   1.0000   1.0000
     1.0000   1.0000   1.0000   1.0000   1.0000   1.0000   1.0000   1.0000

          k =-0.5000-0.2887 0.0000 (  7852 PWs)   bands (ev):

   -10.3492 -10.3492 -10.2371 -10.2371 -10.2371 -10.2370 -10.1407 -10.1406
     0.9527   0.9527   0.9527   0.9527   1.1141   1.1141   1.3230   1.3230
     1.5609   1.5609   1.7820   1.7820   1.7821   1.7821   1.8586   1.8586
     1.8587   1.8587   1.9413   1.9413   1.9538   1.9538   2.0753   2.0753
     2.4641   2.4641   2.5909   2.5909   2.6133   2.6133   2.6133   2.6133
     2.6705   2.6705   2.6978   2.6978   2.6978   2.6978   2.7417   2.7417
     3.1878   3.1878   3.1878   3.1878   3.2047   3.2047   3.4268   3.4268
     4.1406   4.1406   4.7140   4.7140   5.4385   5.4385   5.4385   5.4385
     5.5539   5.5539   5.5539   5.5540   5.6403   5.6403   6.0830   6.0830

     occupation numbers 
     1.0000   1.0000   1.0000   1.0000   1.0000   1.0000   1.0000   1.0000
     1.0000   1.0000   1.0000   1.0000   1.0000   1.0000   1.0000   1.0000
     1.0000   1.0000   1.0000   1.0000   1.0000   1.0000   1.0000   1.0000
     1.0000   1.0000   1.0000   1.0000   1.0000   1.0000   1.0000   1.0000
     1.0000   1.0000   1.0000   1.0000   1.0000   1.0000   1.0000   1.0000
     1.0000   1.0000   1.0000   1.0000   1.0000   1.0000   1.0000   1.0000
     1.0000   1.0000   1.0000   1.0000   1.0000   1.0000   1.0000   1.0000
     1.0000   1.0000   1.0000   1.0000   1.0000   1.0000   1.0000   1.0000
     1.0000   1.0000   1.0000   1.0000   1.0000   1.0000   1.0000   1.0000

          k =-0.5000-0.2887 0.1032 (  7900 PWs)   bands (ev):

   -10.3334 -10.3334 -10.2914 -10.2914 -10.1868 -10.1867 -10.1526 -10.1526
     0.9826   0.9826   1.0471   1.0471   1.0697   1.0698   1.2255   1.2255
     1.5871   1.5871   1.6641   1.6641   1.8687   1.8687   1.8803   1.8803
     1.9133   1.9133   1.9178   1.9178   1.9195   1.9195   2.0308   2.0308
     2.5266   2.5266   2.5930   2.5930   2.6003   2.6003   2.6268   2.6268
     2.6329   2.6329   2.6574   2.6574   2.7317   2.7317   2.7411   2.7411
     3.1456   3.1456   3.1660   3.1660   3.2754   3.2754   3.3762   3.3762
     4.4237   4.4237   4.8200   4.8201   5.0141   5.0141   5.0927   5.0928
     5.7267   5.7267   5.7659   5.7659   5.7927   5.7927   5.9987   5.9987

     occupation numbers 
     1.0000   1.0000   1.0000   1.0000   1.0000   1.0000   1.0000   1.0000
     1.0000   1.0000   1.0000   1.0000   1.0000   1.0000   1.0000   1.0000
     1.0000   1.0000   1.0000   1.0000   1.0000   1.0000   1.0000   1.0000
     1.0000   1.0000   1.0000   1.0000   1.0000   1.0000   1.0000   1.0000
     1.0000   1.0000   1.0000   1.0000   1.0000   1.0000   1.0000   1.0000
     1.0000   1.0000   1.0000   1.0000   1.0000   1.0000   1.0000   1.0000
     1.0000   1.0000   1.0000   1.0000   1.0000   1.0000   1.0000   1.0000
     1.0000   1.0000   1.0000   1.0000   1.0000   1.0000   1.0000   1.0000
     1.0000   1.0000   1.0000   1.0000   1.0000   1.0000   1.0000   1.0000

          k =-0.5000-0.0962 0.0000 (  7900 PWs)   bands (ev):

   -10.3567 -10.3566 -10.2391 -10.2391 -10.2391 -10.2390 -10.1367 -10.1367
     1.0856   1.0857   1.0857   1.0857   1.2098   1.2098   1.4530   1.4530
     1.5839   1.5839   1.6623   1.6623   1.6623   1.6623   1.7926   1.7926
     1.8597   1.8597   1.8597   1.8597   2.0460   2.0460   2.1149   2.1149
     2.4055   2.4055   2.4730   2.4731   2.5532   2.5532   2.5532   2.5532
     2.6836   2.6836   2.7389   2.7389   2.7389   2.7389   2.8732   2.8732
     3.0747   3.0747   3.4275   3.4275   3.4275   3.4275   3.6813   3.6813
     4.1031   4.1031   4.4220   4.4221   4.9299   4.9299   4.9299   4.9299
     5.6135   5.6135   5.6423   5.6423   5.6423   5.6423   5.7976   5.7976

     occupation numbers 
     1.0000   1.0000   1.0000   1.0000   1.0000   1.0000   1.0000   1.0000
     1.0000   1.0000   1.0000   1.0000   1.0000   1.0000   1.0000   1.0000
     1.0000   1.0000   1.0000   1.0000   1.0000   1.0000   1.0000   1.0000
     1.0000   1.0000   1.0000   1.0000   1.0000   1.0000   1.0000   1.0000
     1.0000   1.0000   1.0000   1.0000   1.0000   1.0000   1.0000   1.0000
     1.0000   1.0000   1.0000   1.0000   1.0000   1.0000   1.0000   1.0000
     1.0000   1.0000   1.0000   1.0000   1.0000   1.0000   1.0000   1.0000
     1.0000   1.0000   1.0000   1.0000   1.0000   1.0000   1.0000   1.0000
     1.0000   1.0000   1.0000   1.0000   1.0000   1.0000   1.0000   1.0000

          k =-0.5000-0.0962 0.1032 (  7914 PWs)   bands (ev):

   -10.3401 -10.3401 -10.2961 -10.2961 -10.1858 -10.1858 -10.1494 -10.1494
     1.1038   1.1038   1.1780   1.1780   1.1968   1.1968   1.3762   1.3762
     1.5637   1.5637   1.5839   1.5839   1.7338   1.7338   1.7730   1.7730
     1.8904   1.8904   1.9133   1.9133   1.9824   1.9824   2.0290   2.0290
     2.4171   2.4171   2.4958   2.4958   2.5393   2.5393   2.5677   2.5677
     2.6804   2.6804   2.6913   2.6913   2.8116   2.8116   2.8696   2.8696
     3.1154   3.1154   3.2568   3.2568   3.5916   3.5916   3.6971   3.6971
     4.2092   4.2092   4.5350   4.5350   4.6168   4.6168   5.0817   5.0817
     5.3814   5.3814   5.5972   5.5973   5.7986   5.7987   5.8448   5.8448

     occupation numbers 
     1.0000   1.0000   1.0000   1.0000   1.0000   1.0000   1.0000   1.0000
     1.0000   1.0000   1.0000   1.0000   1.0000   1.0000   1.0000   1.0000
     1.0000   1.0000   1.0000   1.0000   1.0000   1.0000   1.0000   1.0000
     1.0000   1.0000   1.0000   1.0000   1.0000   1.0000   1.0000   1.0000
     1.0000   1.0000   1.0000   1.0000   1.0000   1.0000   1.0000   1.0000
     1.0000   1.0000   1.0000   1.0000   1.0000   1.0000   1.0000   1.0000
     1.0000   1.0000   1.0000   1.0000   1.0000   1.0000   1.0000   1.0000
     1.0000   1.0000   1.0000   1.0000   1.0000   1.0000   1.0000   1.0000
     1.0000   1.0000   1.0000   1.0000   1.0000   1.0000   1.0000   1.0000

          k = 0.0000 0.1925-0.1032 (  7840 PWs)   bands (ev):

   -10.8203 -10.7127 -10.5201 -10.4471 -10.4120 -10.2995 -10.2519 -10.1825
     0.9559   1.0114   1.0820   1.0906   1.1443   1.1496   1.2878   1.3367
     1.4035   1.4331   1.4425   1.4548   1.5220   1.5395   1.5437   1.5905
     1.5967   1.5969   1.6673   1.6945   1.7583   1.7846   1.8679   1.8969
     2.3853   2.4013   2.4440   2.4695   2.4787   2.4884   2.5083   2.5339
     2.5935   2.6096   2.6172   2.6255   2.6425   2.6724   2.6819   2.7606
     3.2560   3.3424   3.6415   3.9343   3.9351   4.0473   4.6229   4.9084
     5.1229   5.1856   5.2751   5.4186   5.5974   5.6315   5.8520   5.9793
     6.0155   6.0235   6.1085   6.2255   6.2837   6.4801   6.5473   6.6436

     occupation numbers 
     1.0000   1.0000   1.0000   1.0000   1.0000   1.0000   1.0000   1.0000
     1.0000   1.0000   1.0000   1.0000   1.0000   1.0000   1.0000   1.0000
     1.0000   1.0000   1.0000   1.0000   1.0000   1.0000   1.0000   1.0000
     1.0000   1.0000   1.0000   1.0000   1.0000   1.0000   1.0000   1.0000
     1.0000   1.0000   1.0000   1.0000   1.0000   1.0000   1.0000   1.0000
     1.0000   1.0000   1.0000   1.0000   1.0000   1.0000   1.0000   1.0000
     1.0000   1.0000   1.0000   1.0000   1.0000   1.0000   1.0000   1.0000
     1.0000   1.0000   1.0000   1.0000   1.0000   1.0000   1.0000   1.0000
     1.0000   1.0000   1.0000   1.0000   1.0000   1.0000   1.0000   1.0000

          k =-0.1667 0.0962-0.1032 (  7866 PWs)   bands (ev):

   -10.8203 -10.7127 -10.4120 -10.3401 -10.2995 -10.2961 -10.1858 -10.1494
     1.0820   1.1038   1.1443   1.1496   1.1780   1.1968   1.3367   1.3762
     1.4035   1.4331   1.4425   1.4548   1.5221   1.5437   1.5637   1.5839
     1.5905   1.5969   1.7338   1.7730   1.8904   1.9133   1.9824   2.0290
     2.4013   2.4171   2.4440   2.4695   2.4884   2.4958   2.5393   2.5677
     2.5935   2.6172   2.6255   2.6724   2.6804   2.6913   2.8116   2.8696
     3.1154   3.2560   3.2568   3.5916   3.6971   3.9343   4.2092   4.5350
     4.6168   5.0817   5.1229   5.2751   5.3814   5.5972   5.5974   5.6315
     5.7986   5.8448   5.8520   6.0235   6.2837   6.4801   6.5473   6.6436

     occupation numbers 
     1.0000   1.0000   1.0000   1.0000   1.0000   1.0000   1.0000   1.0000
     1.0000   1.0000   1.0000   1.0000   1.0000   1.0000   1.0000   1.0000
     1.0000   1.0000   1.0000   1.0000   1.0000   1.0000   1.0000   1.0000
     1.0000   1.0000   1.0000   1.0000   1.0000   1.0000   1.0000   1.0000
     1.0000   1.0000   1.0000   1.0000   1.0000   1.0000   1.0000   1.0000
     1.0000   1.0000   1.0000   1.0000   1.0000   1.0000   1.0000   1.0000
     1.0000   1.0000   1.0000   1.0000   1.0000   1.0000   1.0000   1.0000
     1.0000   1.0000   1.0000   1.0000   1.0000   1.0000   1.0000   1.0000
     1.0000   1.0000   1.0000   1.0000   1.0000   1.0000   1.0000   1.0000

          k =-0.3333 0.1925-0.1032 (  7888 PWs)   bands (ev):

   -10.5201 -10.4471 -10.3401 -10.2961 -10.2519 -10.1858 -10.1825 -10.1494
     0.9559   1.0114   1.0906   1.1038   1.1780   1.1968   1.2878   1.3762
     1.5395   1.5637   1.5839   1.5967   1.6673   1.6945   1.7338   1.7583
     1.7730   1.7846   1.8679   1.8904   1.8969   1.9133   1.9824   2.0290
     2.3853   2.4171   2.4787   2.4958   2.5083   2.5339   2.5393   2.5677
     2.6096   2.6425   2.6804   2.6819   2.6913   2.7606   2.8116   2.8696
     3.1154   3.2568   3.3424   3.5916   3.6415   3.6971   3.9351   4.0473
     4.2092   4.5350   4.6168   4.6229   4.9084   5.0817   5.1856   5.3813
     5.4186   5.5973   5.7986   5.8448   5.9793   6.0155   6.1085   6.2255

     occupation numbers 
     1.0000   1.0000   1.0000   1.0000   1.0000   1.0000   1.0000   1.0000
     1.0000   1.0000   1.0000   1.0000   1.0000   1.0000   1.0000   1.0000
     1.0000   1.0000   1.0000   1.0000   1.0000   1.0000   1.0000   1.0000
     1.0000   1.0000   1.0000   1.0000   1.0000   1.0000   1.0000   1.0000
     1.0000   1.0000   1.0000   1.0000   1.0000   1.0000   1.0000   1.0000
     1.0000   1.0000   1.0000   1.0000   1.0000   1.0000   1.0000   1.0000
     1.0000   1.0000   1.0000   1.0000   1.0000   1.0000   1.0000   1.0000
     1.0000   1.0000   1.0000   1.0000   1.0000   1.0000   1.0000   1.0000
     1.0000   1.0000   1.0000   1.0000   1.0000   1.0000   1.0000   1.0000

          k = 0.5000-0.0962-0.1032 (  7914 PWs)   bands (ev):

   -10.3401 -10.3401 -10.2961 -10.2961 -10.1858 -10.1858 -10.1494 -10.1494
     1.1038   1.1038   1.1780   1.1780   1.1968   1.1968   1.3762   1.3762
     1.5637   1.5637   1.5839   1.5839   1.7338   1.7338   1.7730   1.7730
     1.8904   1.8904   1.9133   1.9133   1.9824   1.9824   2.0290   2.0290
     2.4171   2.4171   2.4958   2.4958   2.5393   2.5393   2.5677   2.5677
     2.6804   2.6804   2.6913   2.6913   2.8116   2.8116   2.8696   2.8696
     3.1154   3.1154   3.2568   3.2568   3.5916   3.5916   3.6971   3.6971
     4.2092   4.2092   4.5350   4.5350   4.6168   4.6168   5.0817   5.0817
     5.3813   5.3814   5.5972   5.5973   5.7986   5.7986   5.8448   5.8448

     occupation numbers 
     1.0000   1.0000   1.0000   1.0000   1.0000   1.0000   1.0000   1.0000
     1.0000   1.0000   1.0000   1.0000   1.0000   1.0000   1.0000   1.0000
     1.0000   1.0000   1.0000   1.0000   1.0000   1.0000   1.0000   1.0000
     1.0000   1.0000   1.0000   1.0000   1.0000   1.0000   1.0000   1.0000
     1.0000   1.0000   1.0000   1.0000   1.0000   1.0000   1.0000   1.0000
     1.0000   1.0000   1.0000   1.0000   1.0000   1.0000   1.0000   1.0000
     1.0000   1.0000   1.0000   1.0000   1.0000   1.0000   1.0000   1.0000
     1.0000   1.0000   1.0000   1.0000   1.0000   1.0000   1.0000   1.0000
     1.0000   1.0000   1.0000   1.0000   1.0000   1.0000   1.0000   1.0000

     highest occupied level (ev):     6.8874

!    total energy              =   -1446.54755163 Ry
     estimated scf accuracy    <          8.8E-10 Ry

     The total energy is the sum of the following terms:
     one-electron contribution =    -618.10058371 Ry
     hartree contribution      =     473.15628706 Ry
     xc contribution           =    -438.18432704 Ry
     ewald contribution        =    -863.41892795 Ry

     convergence has been achieved in  30 iterations

     Forces acting on atoms (cartesian axes, Ry/au):

     atom    1 type  1   force =     0.00000000    0.00000118    0.00006316
     atom    2 type  1   force =     0.00000000    0.00000135    0.00006387
     atom    3 type  2   force =     0.00000000    0.00000001   -0.00006321
     atom    4 type  2   force =     0.00000000    0.00000060   -0.00005844
     atom    5 type  1   force =     0.00000000    0.00000047    0.00006152
     atom    6 type  1   force =     0.00000000    0.00000255    0.00005244
     atom    7 type  2   force =     0.00000000    0.00000087   -0.00005802
     atom    8 type  2   force =     0.00000000    0.00000030   -0.00006457
     atom    9 type  1   force =     0.00000000   -0.00000109    0.00006473
     atom   10 type  1   force =     0.00000000   -0.00000161    0.00006735
     atom   11 type  2   force =     0.00000000   -0.00000038   -0.00006393
     atom   12 type  2   force =     0.00000000   -0.00000163   -0.00005727
     atom   13 type  1   force =     0.00000000   -0.00000079    0.00006334
     atom   14 type  1   force =     0.00000000   -0.00000090    0.00005359
     atom   15 type  2   force =     0.00000000   -0.00000037   -0.00005993
     atom   16 type  2   force =     0.00000000   -0.00000057   -0.00006462
     The non-local contrib.  to forces
     atom    1 type  1   force =     0.00000000   -0.00000031   -0.00483709
     atom    2 type  1   force =     0.00000000   -0.00000162   -0.00483357
     atom    3 type  2   force =     0.00000000   -0.00000070    0.00575438
     atom    4 type  2   force =     0.00000000    0.00000037    0.00575569
     atom    5 type  1   force =     0.00000000   -0.00000026   -0.00483140
     atom    6 type  1   force =     0.00000000   -0.00000096   -0.00483443
     atom    7 type  2   force =     0.00000000   -0.00000005    0.00575510
     atom    8 type  2   force =     0.00000000    0.00000087    0.00574817
     atom    9 type  1   force =     0.00000000   -0.00000041   -0.00483733
     atom   10 type  1   force =     0.00000000    0.00000263   -0.00483080
     atom   11 type  2   force =     0.00000000   -0.00000094    0.00575288
     atom   12 type  2   force =     0.00000000   -0.00000119    0.00575693
     atom   13 type  1   force =     0.00000000   -0.00000035   -0.00483302
     atom   14 type  1   force =     0.00000000    0.00000096   -0.00483392
     atom   15 type  2   force =     0.00000000   -0.00000001    0.00575339
     atom   16 type  2   force =     0.00000000   -0.00000084    0.00574867
     The ionic contribution  to forces
     atom    1 type  1   force =     0.00000000    0.00000001    0.06271747
     atom    2 type  1   force =    -0.00000000    0.00000001    0.06271747
     atom    3 type  2   force =     0.00000000    0.00000001   -0.06271747
     atom    4 type  2   force =    -0.00000000    0.00000000   -0.06271747
     atom    5 type  1   force =     0.00000000    0.00000001    0.06271747
     atom    6 type  1   force =    -0.00000000    0.00000001    0.06271747
     atom    7 type  2   force =     0.00000000    0.00000001   -0.06271747
     atom    8 type  2   force =    -0.00000000    0.00000000   -0.06271747
     atom    9 type  1   force =    -0.00000000   -0.00000000    0.06271747
     atom   10 type  1   force =     0.00000000   -0.00000002    0.06271747
     atom   11 type  2   force =    -0.00000000   -0.00000000   -0.06271747
     atom   12 type  2   force =     0.00000000   -0.00000001   -0.06271747
     atom   13 type  1   force =    -0.00000000   -0.00000000    0.06271747
     atom   14 type  1   force =     0.00000000   -0.00000002    0.06271747
     atom   15 type  2   force =    -0.00000000   -0.00000000   -0.06271747
     atom   16 type  2   force =     0.00000000   -0.00000001   -0.06271747
     The local contribution  to forces
     atom    1 type  1   force =    -0.00000009   -0.00000037   -0.05828358
     atom    2 type  1   force =     0.00000000    0.00000107   -0.05828815
     atom    3 type  2   force =    -0.00000002   -0.00000032    0.05696852
     atom    4 type  2   force =     0.00000000   -0.00000020    0.05696401
     atom    5 type  1   force =    -0.00000009   -0.00000022   -0.05829083
     atom    6 type  1   force =     0.00000000   -0.00000174   -0.05828159
     atom    7 type  2   force =    -0.00000002    0.00000081    0.05696257
     atom    8 type  2   force =     0.00000000   -0.00000141    0.05696556
     atom    9 type  1   force =    -0.00000009    0.00000081   -0.05828553
     atom   10 type  1   force =     0.00000009   -0.00000214   -0.05829277
     atom   11 type  2   force =    -0.00000002    0.00000126    0.05697061
     atom   12 type  2   force =     0.00000002   -0.00000107    0.05696528
     atom   13 type  1   force =    -0.00000009    0.00000086   -0.05828974
     atom   14 type  1   force =     0.00000009    0.00000136   -0.05828163
     atom   15 type  2   force =    -0.00000002   -0.00000025    0.05696141
     atom   16 type  2   force =     0.00000002    0.00000003    0.05696468
     The core correction contribution to forces
     atom    1 type  1   force =    -0.00000001   -0.00000001    0.00046398
     atom    2 type  1   force =     0.00000000   -0.00000005    0.00046402
     atom    3 type  2   force =     0.00000000    0.00000001   -0.00006503
     atom    4 type  2   force =     0.00000000   -0.00000001   -0.00006506
     atom    5 type  1   force =    -0.00000001    0.00000002    0.00046405
     atom    6 type  1   force =     0.00000000    0.00000005    0.00046438
     atom    7 type  2   force =     0.00000000    0.00000000   -0.00006505
     atom    8 type  2   force =     0.00000000   -0.00000002   -0.00006495
     atom    9 type  1   force =    -0.00000001    0.00000002    0.00046404
     atom   10 type  1   force =     0.00000001    0.00000001    0.00046392
     atom   11 type  2   force =     0.00000000    0.00000001   -0.00006501
     atom   12 type  2   force =    -0.00000000    0.00000001   -0.00006508
     atom   13 type  1   force =    -0.00000001   -0.00000003    0.00046403
     atom   14 type  1   force =     0.00000001   -0.00000007    0.00046433
     atom   15 type  2   force =     0.00000000    0.00000000   -0.00006504
     atom   16 type  2   force =    -0.00000000    0.00000001   -0.00006496
     The Hubbard contrib.    to forces
     atom    1 type  1   force =     0.00000000    0.00000000    0.00000000
     atom    2 type  1   force =     0.00000000    0.00000000    0.00000000
     atom    3 type  2   force =     0.00000000    0.00000000    0.00000000
     atom    4 type  2   force =     0.00000000    0.00000000    0.00000000
     atom    5 type  1   force =     0.00000000    0.00000000    0.00000000
     atom    6 type  1   force =     0.00000000    0.00000000    0.00000000
     atom    7 type  2   force =     0.00000000    0.00000000    0.00000000
     atom    8 type  2   force =     0.00000000    0.00000000    0.00000000
     atom    9 type  1   force =     0.00000000    0.00000000    0.00000000
     atom   10 type  1   force =     0.00000000    0.00000000    0.00000000
     atom   11 type  2   force =     0.00000000    0.00000000    0.00000000
     atom   12 type  2   force =     0.00000000    0.00000000    0.00000000
     atom   13 type  1   force =     0.00000000    0.00000000    0.00000000
     atom   14 type  1   force =     0.00000000    0.00000000    0.00000000
     atom   15 type  2   force =     0.00000000    0.00000000    0.00000000
     atom   16 type  2   force =     0.00000000    0.00000000    0.00000000
     The SCF correction term to forces
     atom    1 type  1   force =     0.00000000    0.00000189    0.00000018
     atom    2 type  1   force =    -0.00000000    0.00000197    0.00000191
     atom    3 type  2   force =     0.00000000    0.00000105   -0.00000579
     atom    4 type  2   force =    -0.00000000    0.00000046    0.00000222
     atom    5 type  1   force =     0.00000000    0.00000096    0.00000004
     atom    6 type  1   force =    -0.00000000    0.00000522   -0.00001558
     atom    7 type  2   force =     0.00000000    0.00000014    0.00000464
     atom    8 type  2   force =    -0.00000000    0.00000088    0.00000193
     atom    9 type  1   force =     0.00000000   -0.00000148    0.00000390
     atom   10 type  1   force =    -0.00000000   -0.00000207    0.00000734
     atom   11 type  2   force =     0.00000000   -0.00000068   -0.00000714
     atom   12 type  2   force =    -0.00000000    0.00000065    0.00000087
     atom   13 type  1   force =     0.00000000   -0.00000125    0.00000242
     atom   14 type  1   force =    -0.00000000   -0.00000310   -0.00001484
     atom   15 type  2   force =     0.00000000   -0.00000009    0.00000559
     atom   16 type  2   force =    -0.00000000    0.00000027    0.00000228

     Total force =     0.000246     Total SCF correction =     0.000027
     SCF correction compared to forces is large: reduce conv_thr to get better values

     init_run     :      5.64s CPU      5.11s WALL (       1 calls)
     electrons    :    352.74s CPU    263.40s WALL (       1 calls)
     forces       :      2.43s CPU      2.01s WALL (       1 calls)

     Called by init_run:
     wfcinit      :      2.95s CPU      2.37s WALL (       1 calls)
     wfcinit:atom :      0.03s CPU      0.03s WALL (      10 calls)
     wfcinit:wfcr :      2.76s CPU      2.20s WALL (      10 calls)
     potinit      :      1.17s CPU      1.18s WALL (       1 calls)
     hinit0       :      1.33s CPU      1.35s WALL (       1 calls)

     Called by electrons:
     c_bands      :    315.78s CPU    232.93s WALL (      30 calls)
     sum_band     :     30.87s CPU     25.14s WALL (      30 calls)
     v_of_rho     :      2.11s CPU      1.87s WALL (      31 calls)
     v_h          :      0.14s CPU      0.13s WALL (      31 calls)
     v_xc         :      2.04s CPU      1.79s WALL (      32 calls)
     newd         :      3.59s CPU      3.15s WALL (      31 calls)
     mix_rho      :      0.35s CPU      0.31s WALL (      30 calls)

     Called by c_bands:
     init_us_2    :      1.36s CPU      1.12s WALL (     620 calls)
     init_us_2:cp :      1.35s CPU      1.11s WALL (     620 calls)
     cegterg      :    299.77s CPU    219.22s WALL (     300 calls)

     Called by sum_band:
     sum_band:wei :      0.01s CPU      0.00s WALL (      30 calls)
     sum_band:loo :     25.69s CPU     21.19s WALL (      30 calls)
     sum_band:buf :      0.14s CPU      0.12s WALL (     300 calls)
     sum_band:ini :      0.65s CPU      0.53s WALL (     300 calls)
     sum_band:cal :      5.09s CPU      2.70s WALL (     300 calls)
     sum_band:bec :      0.11s CPU      0.09s WALL (     300 calls)
     addusdens    :      4.77s CPU      3.56s WALL (      30 calls)
                                        0.00s GPU  (      30 calls)
     addusd:skk   :      0.06s CPU      0.05s WALL (      60 calls)
                                        0.00s GPU  (      60 calls)

     Called by *egterg:
     cdiaghg      :     43.36s CPU     33.15s WALL (    1977 calls)
     cegterg:over :     19.37s CPU     10.35s WALL (    1677 calls)
     cegterg:upda :     11.37s CPU      5.86s WALL (    1677 calls)
     cegterg:last :     28.97s CPU     14.83s WALL (    1078 calls)
     h_psi        :    172.72s CPU    142.71s WALL (    1987 calls)
     s_psi        :     20.19s CPU     10.35s WALL (    1987 calls)
     g_psi        :      0.77s CPU      0.63s WALL (    1677 calls)

     Called by h_psi:
     h_psi:calbec :     19.79s CPU     10.53s WALL (    1987 calls)
     vloc_psi     :    132.11s CPU    121.35s WALL (    1987 calls)
     add_vuspsi   :     20.35s CPU     10.44s WALL (    1987 calls)

     General routines
     calbec       :     25.54s CPU     13.57s WALL (    2327 calls)
     fft          :      1.45s CPU      1.43s WALL (     412 calls)
     ffts         :      0.27s CPU      0.26s WALL (      61 calls)
     fftw         :    133.38s CPU    123.56s WALL (  181852 calls)
     interpolate  :      0.33s CPU      0.32s WALL (      31 calls)

     Parallel routines

     PWSCF        :   6m 1.22s CPU   4m30.95s WALL


   This run was terminated on:   5:19:47  18Jul2025            

=------------------------------------------------------------------------------=
   JOB DONE.
=------------------------------------------------------------------------------=
Note: The following floating-point exceptions are signalling: IEEE_INVALID_FLAG
Note: The following floating-point exceptions are signalling: IEEE_INVALID_FLAG
