
     Program PWSCF v.7.2 starts on  1Jul2025 at 20:50:25 

     This program is part of the open-source Quantum ESPRESSO suite
     for quantum simulation of materials; please cite
         "P. Giannozzi et al., J. Phys.:Condens. Matter 21 395502 (2009);
         "P. Giannozzi et al., J. Phys.:Condens. Matter 29 465901 (2017);
         "P. Giannozzi et al., J. Chem. Phys. 152 154105 (2020);
          URL http://www.quantum-espresso.org", 
     in publications or presentations arising from this work. More details at
     http://www.quantum-espresso.org/quote

     Parallel version (MPI), running on    16 processors

     MPI processes distributed on     1 nodes
     107381 MiB available memory on the printing compute node when the environment starts

     Reading input from ZnO-001.in
Warning: card KPAR=8 ! <------- (DIVIDE K-POINTS EM 8 GRUPOS) ignored
Warning: card   O   0.3333333333500000  0.3333333333000000  0.8796764146000000 ignored
Warning: card   O   0.8333333333500000  0.3333333333000000  0.8796764146000000 ignored
Warning: card   O   0.1666666666500000  0.6666666667000000  0.3796764146000000 ignored
Warning: card   O   0.6666666666500001  0.6666666667000000  0.3796764146000000 ignored

     Current dimensions of program PWSCF are:
     Max number of different atomic species (ntypx) = 10
     Max number of k-points (npk) =  40000
     Max angular momentum in pseudopotentials (lmaxx) =  4
     file Zn.upf: wavefunction(s)  3D renormalized

     K-points division:     npool     =       2
     R & G space division:  proc/nbgrp/npool/nimage =       8
     Subspace diagonalization in iterative solution of the eigenvalue problem:
     a serial algorithm will be used


     Parallelization info
     --------------------
     sticks:   dense  smooth     PW     G-vecs:    dense   smooth      PW
     Min         262     130     41                11140     3924     687
     Max         263     131     42                11143     3927     691
     Sum        2103    1047    329                89129    31407    5509

     Using Slab Decomposition



     bravais-lattice index     =            0
     lattice parameter (alat)  =      12.3576  a.u.
     unit-cell volume          =     659.5954 (a.u.)^3
     number of atoms/cell      =            4
     number of atomic types    =            2
     number of electrons       =        48.00
     number of Kohn-Sham states=           24
     kinetic-energy cutoff     =      50.0000  Ry
     charge density cutoff     =     400.0000  Ry
     scf convergence threshold =      1.0E-08
     mixing beta               =       0.3000
     number of iterations used =            8  plain     mixing
     Exchange-correlation= PBE
                           (   1   4   3   4   0   0   0)

     celldm(1)=  12.357644  celldm(2)=   0.000000  celldm(3)=   0.000000
     celldm(4)=   0.000000  celldm(5)=   0.000000  celldm(6)=   0.000000

     crystal axes: (cart. coord. in units of alat)
               a(1) = (   1.000000   0.000000   0.000000 )  
               a(2) = (  -0.250000   0.433013   0.000000 )  
               a(3) = (   0.000000   0.000000   0.807179 )  

     reciprocal axes: (cart. coord. in units 2 pi/alat)
               b(1) = (  1.000000  0.577350 -0.000000 )  
               b(2) = (  0.000000  2.309401  0.000000 )  
               b(3) = (  0.000000 -0.000000  1.238882 )  


     PseudoPot. # 1 for Zn read from file:
     ../../../pseudos/Zn.upf
     MD5 check sum: 7f56cabf9682ed8c977c2f7d0c5985c5
     Pseudo is Ultrasoft + core correction, Zval = 12.0
     Generated using &quot;atomic&quot; code by A. Dal Corso  v.6.2.2
     Using radial grid of 1201 points,  6 beta functions with: 
                l(1) =   0
                l(2) =   0
                l(3) =   1
                l(4) =   1
                l(5) =   2
                l(6) =   2
     Q(r) pseudized with 0 coefficients 


     PseudoPot. # 2 for O  read from file:
     ../../../pseudos/O.upf
     MD5 check sum: 91400c9766925bcf19f520983a725ff0
     Pseudo is Ultrasoft + core correction, Zval =  6.0
     Generated using &quot;atomic&quot; code by A. Dal Corso  v.6.3MaX
     Using radial grid of 1095 points,  4 beta functions with: 
                l(1) =   0
                l(2) =   0
                l(3) =   1
                l(4) =   1
     Q(r) pseudized with 0 coefficients 


     atomic species   valence    mass     pseudopotential
        Zn            12.00    65.38000     Zn( 1.00)
        O              6.00    15.99940     O ( 1.00)

     No symmetry found



   Cartesian axes

     site n.     atom                  positions (alat units)
         1           Zn  tau(   1) = (   0.2516184   0.1443376   0.4041010  )
         2           Zn  tau(   2) = (   0.7500000   0.1443376   0.4041010  )
         3           Zn  tau(   3) = (   0.0000000   0.2886751   0.0005114  )
         4           Zn  tau(   4) = (   0.5000000   0.2886751   0.0005114  )

     number of k points=   112

     Number of k-points >= 100: set verbosity='high' to print them.

     Dense  grid:    89129 G-vectors     FFT dimensions: (  80,  40,  64)

     Smooth grid:    31407 G-vectors     FFT dimensions: (  60,  27,  45)

     Estimated max dynamical RAM per process >      37.46 MB

     Estimated total dynamical RAM >     577.59 MB

     Check: negative core charge=   -0.000002

     Initial potential from superposition of free atoms

     starting charge      47.9851, renormalised to      48.0000
     Starting wfcs are   36 randomized atomic wfcs

     total cpu time spent up to now is        3.9 secs

     Self-consistent Calculation

     iteration #  1     ecut=    50.00 Ry     beta= 0.30
     Davidson diagonalization with overlap
     ethr =  1.00E-02,  avg # of iterations =  1.5

     Threshold (ethr) on eigenvalues was too large:
     Diagonalizing with lowered threshold

     Davidson diagonalization with overlap
     ethr =  1.81E-04,  avg # of iterations =  4.0

     total cpu time spent up to now is       12.0 secs

     total energy              =    -593.21335343 Ry
     estimated scf accuracy    <       0.07809560 Ry

     iteration #  2     ecut=    50.00 Ry     beta= 0.30
     Davidson diagonalization with overlap
     ethr =  1.63E-04,  avg # of iterations =  2.0

     total cpu time spent up to now is       16.7 secs

     total energy              =    -593.22635600 Ry
     estimated scf accuracy    <       0.00272511 Ry

     iteration #  3     ecut=    50.00 Ry     beta= 0.30
     Davidson diagonalization with overlap
     ethr =  5.68E-06,  avg # of iterations =  5.8

     total cpu time spent up to now is       23.2 secs

     total energy              =    -593.22819261 Ry
     estimated scf accuracy    <       0.00114984 Ry

     iteration #  4     ecut=    50.00 Ry     beta= 0.30
     Davidson diagonalization with overlap
     ethr =  2.40E-06,  avg # of iterations =  2.2

     total cpu time spent up to now is       28.0 secs

     total energy              =    -593.22854475 Ry
     estimated scf accuracy    <       0.00032617 Ry

     iteration #  5     ecut=    50.00 Ry     beta= 0.30
     Davidson diagonalization with overlap
     ethr =  6.80E-07,  avg # of iterations =  4.4

     total cpu time spent up to now is       32.6 secs

     total energy              =    -593.22859906 Ry
     estimated scf accuracy    <       0.00001437 Ry

     iteration #  6     ecut=    50.00 Ry     beta= 0.30
     Davidson diagonalization with overlap
     ethr =  2.99E-08,  avg # of iterations =  5.9

     total cpu time spent up to now is       37.9 secs

     total energy              =    -593.22860326 Ry
     estimated scf accuracy    <       0.00001687 Ry

     iteration #  7     ecut=    50.00 Ry     beta= 0.30
     Davidson diagonalization with overlap
     ethr =  2.99E-08,  avg # of iterations =  2.0

     total cpu time spent up to now is       42.5 secs

     total energy              =    -593.22860805 Ry
     estimated scf accuracy    <       0.00001053 Ry

     iteration #  8     ecut=    50.00 Ry     beta= 0.30
     Davidson diagonalization with overlap
     ethr =  2.19E-08,  avg # of iterations =  2.0

     total cpu time spent up to now is       46.4 secs

     total energy              =    -593.22860680 Ry
     estimated scf accuracy    <       0.00001258 Ry

     iteration #  9     ecut=    50.00 Ry     beta= 0.30
     Davidson diagonalization with overlap
     ethr =  2.19E-08,  avg # of iterations =  1.0

     total cpu time spent up to now is       49.9 secs

     total energy              =    -593.22860728 Ry
     estimated scf accuracy    <       0.00000896 Ry

     iteration # 10     ecut=    50.00 Ry     beta= 0.30
     Davidson diagonalization with overlap
     ethr =  1.87E-08,  avg # of iterations =  1.0

     total cpu time spent up to now is       53.4 secs

     total energy              =    -593.22860748 Ry
     estimated scf accuracy    <       0.00000899 Ry

     iteration # 11     ecut=    50.00 Ry     beta= 0.30
     Davidson diagonalization with overlap
     ethr =  1.87E-08,  avg # of iterations =  1.0

     total cpu time spent up to now is       56.8 secs

     total energy              =    -593.22860767 Ry
     estimated scf accuracy    <       0.00000933 Ry

     iteration # 12     ecut=    50.00 Ry     beta= 0.30
     Davidson diagonalization with overlap
     ethr =  1.87E-08,  avg # of iterations =  1.0

     total cpu time spent up to now is       60.3 secs

     total energy              =    -593.22860781 Ry
     estimated scf accuracy    <       0.00000991 Ry

     iteration # 13     ecut=    50.00 Ry     beta= 0.30
     Davidson diagonalization with overlap
     ethr =  1.87E-08,  avg # of iterations =  1.0

     total cpu time spent up to now is       63.8 secs

     total energy              =    -593.22860800 Ry
     estimated scf accuracy    <       0.00001033 Ry

     iteration # 14     ecut=    50.00 Ry     beta= 0.30
     Davidson diagonalization with overlap
     ethr =  1.87E-08,  avg # of iterations =  1.0

     total cpu time spent up to now is       67.2 secs

     total energy              =    -593.22860845 Ry
     estimated scf accuracy    <       0.00001076 Ry

     iteration # 15     ecut=    50.00 Ry     beta= 0.30
     Davidson diagonalization with overlap
     ethr =  1.87E-08,  avg # of iterations =  5.5

     total cpu time spent up to now is       73.3 secs

     total energy              =    -593.22862091 Ry
     estimated scf accuracy    <       0.00001926 Ry

     iteration # 16     ecut=    50.00 Ry     beta= 0.30
     Davidson diagonalization with overlap
     ethr =  1.87E-08,  avg # of iterations =  4.5

     total cpu time spent up to now is       78.6 secs

     total energy              =    -593.22862667 Ry
     estimated scf accuracy    <       0.00005263 Ry

     iteration # 17     ecut=    50.00 Ry     beta= 0.30
     Davidson diagonalization with overlap
     ethr =  1.87E-08,  avg # of iterations =  1.6

     total cpu time spent up to now is       82.3 secs

     total energy              =    -593.22861541 Ry
     estimated scf accuracy    <       0.00006198 Ry

     iteration # 18     ecut=    50.00 Ry     beta= 0.30
     Davidson diagonalization with overlap
     ethr =  1.87E-08,  avg # of iterations =  2.0

     total cpu time spent up to now is       86.4 secs

     total energy              =    -593.22860964 Ry
     estimated scf accuracy    <       0.00003784 Ry

     iteration # 19     ecut=    50.00 Ry     beta= 0.30
     Davidson diagonalization with overlap
     ethr =  1.87E-08,  avg # of iterations =  4.5

     total cpu time spent up to now is       91.0 secs

     total energy              =    -593.22860658 Ry
     estimated scf accuracy    <       0.00001668 Ry

     iteration # 20     ecut=    50.00 Ry     beta= 0.30
     Davidson diagonalization with overlap
     ethr =  1.87E-08,  avg # of iterations =  4.4

     total cpu time spent up to now is       95.6 secs

     total energy              =    -593.22860788 Ry
     estimated scf accuracy    <       0.00000328 Ry

     iteration # 21     ecut=    50.00 Ry     beta= 0.30
     Davidson diagonalization with overlap
     ethr =  6.84E-09,  avg # of iterations =  1.5

     total cpu time spent up to now is       99.3 secs

     total energy              =    -593.22860741 Ry
     estimated scf accuracy    <       0.00000197 Ry

     iteration # 22     ecut=    50.00 Ry     beta= 0.30
     Davidson diagonalization with overlap
     ethr =  4.10E-09,  avg # of iterations =  3.3

     total cpu time spent up to now is      103.5 secs

     total energy              =    -593.22860744 Ry
     estimated scf accuracy    <       0.00000049 Ry

     iteration # 23     ecut=    50.00 Ry     beta= 0.30
     Davidson diagonalization with overlap
     ethr =  1.02E-09,  avg # of iterations =  4.7

     total cpu time spent up to now is      108.9 secs

     total energy              =    -593.22860755 Ry
     estimated scf accuracy    <       0.00000010 Ry

     iteration # 24     ecut=    50.00 Ry     beta= 0.30
     Davidson diagonalization with overlap
     ethr =  2.03E-10,  avg # of iterations =  3.0

     total cpu time spent up to now is      113.1 secs

     total energy              =    -593.22860756 Ry
     estimated scf accuracy    <       0.00000003 Ry

     iteration # 25     ecut=    50.00 Ry     beta= 0.30
     Davidson diagonalization with overlap
     ethr =  6.43E-11,  avg # of iterations =  6.7

     total cpu time spent up to now is      119.5 secs

     total energy              =    -593.22860757 Ry
     estimated scf accuracy    <       0.00000003 Ry

     iteration # 26     ecut=    50.00 Ry     beta= 0.30
     Davidson diagonalization with overlap
     ethr =  6.18E-11,  avg # of iterations =  1.5

     total cpu time spent up to now is      123.2 secs

     total energy              =    -593.22860756 Ry
     estimated scf accuracy    <       0.00000002 Ry

     iteration # 27     ecut=    50.00 Ry     beta= 0.30
     Davidson diagonalization with overlap
     ethr =  3.30E-11,  avg # of iterations =  6.1

     total cpu time spent up to now is      129.4 secs

     total energy              =    -593.22860757 Ry
     estimated scf accuracy    <       0.00000001 Ry

     iteration # 28     ecut=    50.00 Ry     beta= 0.30
     Davidson diagonalization with overlap
     ethr =  2.77E-11,  avg # of iterations =  3.5

     total cpu time spent up to now is      133.8 secs

     End of self-consistent calculation

     Number of k-points >= 100: set verbosity='high' to print the bands.

     highest occupied level (ev):     5.9579

!    total energy              =    -593.22860757 Ry
     estimated scf accuracy    <          2.7E-10 Ry

     The total energy is the sum of the following terms:
     one-electron contribution =    -318.53788015 Ry
     hartree contribution      =     216.96749126 Ry
     xc contribution           =    -188.29675591 Ry
     ewald contribution        =    -303.36146278 Ry

     convergence has been achieved in  28 iterations

     Forces acting on atoms (cartesian axes, Ry/au):

     atom    1 type  1   force =    -0.00057883   -0.00039006    0.00000722
     atom    2 type  1   force =    -0.00076422   -0.00038528    0.00000048
     atom    3 type  1   force =     0.00059306    0.00038317   -0.00000369
     atom    4 type  1   force =     0.00074998    0.00039217   -0.00000401
     The non-local contrib.  to forces
     atom    1 type  1   force =     0.01232139    0.00755440    0.00001034
     atom    2 type  1   force =     0.01540458    0.00837206    0.00000311
     atom    3 type  1   force =    -0.01342941   -0.00809469   -0.00000659
     atom    4 type  1   force =    -0.01430724   -0.00783891   -0.00000680
     The ionic contribution  to forces
     atom    1 type  1   force =    -0.12252902   -0.05468826    0.00000000
     atom    2 type  1   force =     0.11195318    0.05457728    0.00000000
     atom    3 type  1   force =    -0.01725279   -0.02058573    0.00000000
     atom    4 type  1   force =     0.02782863    0.02069671   -0.00000000
     The local contribution  to forces
     atom    1 type  1   force =     0.10991585    0.04693418   -0.00001754
     atom    2 type  1   force =    -0.12770417   -0.06311712   -0.00000505
     atom    3 type  1   force =     0.03093498    0.02885051    0.00001110
     atom    4 type  1   force =    -0.01313550   -0.01265851    0.00001195
     The core correction contribution to forces
     atom    1 type  1   force =    -0.00025522   -0.00017573    0.00000013
     atom    2 type  1   force =    -0.00045427   -0.00023799    0.00000025
     atom    3 type  1   force =     0.00034079    0.00021707    0.00000013
     atom    4 type  1   force =     0.00036896    0.00019681    0.00000011
     The Hubbard contrib.    to forces
     atom    1 type  1   force =     0.00000000    0.00000000    0.00000000
     atom    2 type  1   force =     0.00000000    0.00000000    0.00000000
     atom    3 type  1   force =     0.00000000    0.00000000    0.00000000
     atom    4 type  1   force =     0.00000000    0.00000000    0.00000000
     The SCF correction term to forces
     atom    1 type  1   force =    -0.00003371   -0.00001655    0.00001398
     atom    2 type  1   force =     0.00003458    0.00001860    0.00000187
     atom    3 type  1   force =    -0.00000239   -0.00000589   -0.00000864
     atom    4 type  1   force =    -0.00000676   -0.00000582   -0.00000959

     Total force =     0.001560     Total SCF correction =     0.000059

     Writing all to output data dir ./ZnO_ANN.save/

     init_run     :      4.09s CPU      3.60s WALL (       1 calls)
     electrons    :    164.81s CPU    129.85s WALL (       1 calls)
     forces       :      1.15s CPU      0.98s WALL (       1 calls)

     Called by init_run:
     wfcinit      :      2.52s CPU      2.00s WALL (       1 calls)
     potinit      :      0.64s CPU      0.64s WALL (       1 calls)
     hinit0       :      0.81s CPU      0.83s WALL (       1 calls)

     Called by electrons:
     c_bands      :    138.70s CPU    108.48s WALL (      29 calls)
     sum_band     :     23.34s CPU     19.00s WALL (      29 calls)
     v_of_rho     :      0.93s CPU      0.82s WALL (      29 calls)
     newd         :      1.71s CPU      1.43s WALL (      29 calls)
     mix_rho      :      0.14s CPU      0.13s WALL (      29 calls)

     Called by c_bands:
     init_us_2    :      1.86s CPU      1.49s WALL (    3360 calls)
     init_us_2:cp :      1.84s CPU      1.48s WALL (    3360 calls)
     cegterg      :    127.18s CPU     99.05s WALL (    1624 calls)

     Called by *egterg:
     cdiaghg      :     13.63s CPU     10.46s WALL (    6563 calls)
     h_psi        :     96.28s CPU     79.00s WALL (    6675 calls)
     s_psi        :      4.74s CPU      2.61s WALL (    6675 calls)
     g_psi        :      0.47s CPU      0.32s WALL (    4995 calls)

     Called by h_psi:
     h_psi:calbec :      5.09s CPU      3.26s WALL (    6675 calls)
     vloc_psi     :     86.28s CPU     72.79s WALL (    6675 calls)
     add_vuspsi   :      4.58s CPU      2.71s WALL (    6675 calls)

     General routines
     calbec       :      7.11s CPU      4.51s WALL (    8523 calls)
     fft          :      0.81s CPU      0.79s WALL (     387 calls)
     ffts         :      0.18s CPU      0.18s WALL (      58 calls)
     fftw         :     90.65s CPU     77.33s WALL (  236772 calls)
     interpolate  :      0.20s CPU      0.20s WALL (      29 calls)

     Parallel routines

     PWSCF        :   2m50.60s CPU   2m15.20s WALL


   This run was terminated on:  20:52:40   1Jul2025            

=------------------------------------------------------------------------------=
   JOB DONE.
=------------------------------------------------------------------------------=
