
     Program BANDS v.7.2 starts on  8May2025 at 12:54:52 

     This program is part of the open-source Quantum ESPRESSO suite
     for quantum simulation of materials; please cite
         "P. Giannozzi et al., J. Phys.:Condens. Matter 21 395502 (2009);
         "P. Giannozzi et al., J. Phys.:Condens. Matter 29 465901 (2017);
         "P. Giannozzi et al., J. Chem. Phys. 152 154105 (2020);
          URL http://www.quantum-espresso.org", 
     in publications or presentations arising from this work. More details at
     http://www.quantum-espresso.org/quote

     Parallel version (MPI), running on     1 processors

     MPI processes distributed on     1 nodes
     105010 MiB available memory on the printing compute node when the environment starts


     Reading xml data from directory:

     ./ZnO_PBE_bulk.save/
     file Zn.upf: wavefunction(s)  3D renormalized

     IMPORTANT: XC functional enforced from input :
     Exchange-correlation= PBE
                           (   1   4   3   4   0   0   0)
     Any further DFT definition will be discarded
     Please, verify this is what you really want


     G-vector sticks info
     --------------------
     sticks:   dense  smooth     PW     G-vecs:    dense   smooth      PW
     Sum         925     745    241                36755    26357    4711

     Using Slab Decomposition


     Check: negative core charge=   -0.000003
     Reading collected, re-writing distributed wavefunctions
     high-symmetry point:  0.0000 0.0000 0.0000   x coordinate   0.0000
     high-symmetry point:  0.5000 0.2887 0.0000   x coordinate   0.5774
     high-symmetry point:  0.5000 0.2887 0.3097   x coordinate   0.8871
     high-symmetry point:  0.0000 0.0000 0.3097   x coordinate   1.4644
     high-symmetry point:  0.0000 0.0000 0.0000   x coordinate   1.7741
     high-symmetry point:  0.6666 0.7697 0.0000   x coordinate   2.7924
     high-symmetry point:  0.6666 0.7697 0.3097   x coordinate   3.1021
     high-symmetry point:  0.0000 0.0000 0.3097   x coordinate   4.1204

     Plottable bands (eV) written to file ZnO-fixed_bands.dat.gnu
     Bands written to file ZnO-fixed_bands.dat

 **************************************************************************

                    xk=(   0.00000,   0.00000,   0.00000  )

     point group C_6v (6mm) 
     there are  6 classes
     the character table:

       E     2C6   2C3   C2    3s_v  3s_d 
A_1    1.00  1.00  1.00  1.00  1.00  1.00
A_2    1.00  1.00  1.00  1.00 -1.00 -1.00
B_1    1.00 -1.00  1.00 -1.00  1.00 -1.00
B_2    1.00 -1.00  1.00 -1.00 -1.00  1.00
E_1    2.00  1.00 -1.00 -2.00  0.00  0.00
E_2    2.00 -1.00 -1.00  2.00  0.00  0.00

     the symmetry operations in each class and the name of the first element:

     E        1
                                                                 
     2C6      3    4
                                                                 
     2C3      5    6
                                                                 
     C2       2
                                                                 
     3s_v     8   12   11
                                                                 
     3s_d     7    9   10
                                                                 

     Band symmetry, C_6v (6mm)  point group:

     e(  1 -  1) =    -11.05108  eV     1   --> A_1            
     e(  2 -  2) =    -10.38194  eV     1   --> B_1            
     e(  3 -  4) =      1.23067  eV     2   --> E_1            
     e(  5 -  5) =      1.27032  eV     1   --> A_1            
     e(  6 -  6) =      1.38209  eV     1   --> B_1            
     e(  7 -  8) =      1.41352  eV     2   --> E_2            
     e(  9 - 10) =      2.31831  eV     2   --> E_1            
     e( 11 - 12) =      2.51246  eV     2   --> E_2            
     e( 13 - 13) =      2.77786  eV     1   --> B_1            
     e( 14 - 15) =      6.01656  eV     2   --> E_2            
     e( 16 - 16) =      6.69097  eV     1   --> A_1            
     e( 17 - 18) =      6.77015  eV     2   --> E_1            
     e( 19 - 19) =      7.50967  eV     1   --> A_1            
     e( 20 - 20) =     11.88450  eV     1   --> B_1            
     e( 21 - 21) =     14.84416  eV     1   --> B_1            
     e( 22 - 23) =     19.53108  eV     2   --> E_1            
     e( 24 - 24) =     20.54476  eV     1   --> A_1            
     e( 25 - 26) =     20.73169  eV     2   --> E_2            
     e( 27 - 27) =     23.16454  eV     1   --> A_1            
     e( 28 - 29) =     24.77058  eV     2   --> E_1            
     e( 30 - 30) =     26.39977  eV     1   --> B_1            
     e( 31 - 32) =     26.45669  eV     2   --> E_2            
     e( 33 - 33) =     27.46983  eV     1   --> A_1            
     e( 34 - 34) =     29.53702  eV     1   --> B_1            
     e( 35 - 36) =     31.21205  eV     2   --> E_2            
     e( 37 - 37) =     33.63723  eV     1   --> B_1            
     e( 38 - 39) =     34.61234  eV     2   --> E_1            
     e( 40 - 40) =     34.94159  eV     1   --> A_1            
     e( 41 - 42) =     37.49349  eV     2   --> E_2            
     e( 43 - 44) =     40.75976  eV     2   --> E_1            
     e( 45 - 45) =     41.33771  eV     1   --> A_1            
     e( 46 - 47) =     42.97826  eV     2   --> E_1            
     e( 48 - 49) =     45.15066  eV     2   --> E_2            
     e( 50 - 50) =     46.86080  eV     1   --> B_1            
     e( 51 - 51) =     47.97046  eV     1   --> A_1            
     e( 52 - 52) =     49.87637  eV     1   --> B_1            
     e( 53 - 53) =     53.16475  eV     1   --> B_2            
     e( 54 - 55) =     54.30331  eV     2   --> E_2            
     e( 56 - 56) =     55.99449  eV     1   --> A_1            
     e( 57 - 57) =     56.17441  eV     1   --> B_1            
     e( 58 - 58) =     56.24562  eV     1   --> A_2            
     e( 59 - 60) =     57.02616  eV     2   --> E_1            
     e( 61 - 62) =     58.60460  eV     2   --> E_1            
     e( 63 - 63) =     59.92967  eV     1   --> B_1            
     e( 64 - 64) =     60.93853  eV     1   --> A_1            
     e( 65 - 66) =     61.65043  eV     2   --> E_1            
     e( 67 - 67) =     61.88915  eV     1   --> A_2            
     e( 68 - 69) =     62.11978  eV     2   --> E_2            
     e( 70 - 71) =     63.03827  eV     2   --> E_1            
     e( 72 - 72) =     65.56936  eV     1   --> B_1            

 **************************************************************************

 **************************************************************************

                    xk=(   0.10000,   0.05774,   0.00000  )

     point group C_s (m)    
     there are  2 classes
     the character table:

       E     s    
A'     1.00  1.00
A''    1.00 -1.00

     the symmetry operations in each class and the name of the first element:

     E        1
                                                                 
     s        2
                                                                 

     Band symmetry, C_s (m)     point group:

     e(  1 -  1) =    -10.99970  eV     1   --> A'             
     e(  2 -  2) =    -10.35895  eV     1   --> A'             
     e(  3 -  3) =      1.17486  eV     1   --> A'             
     e(  4 -  4) =      1.26082  eV     1   --> A''            
     e(  5 -  5) =      1.30296  eV     1   --> A'             
     e(  6 -  6) =      1.40235  eV     1   --> A'             
     e(  7 -  7) =      1.45631  eV     1   --> A''            
     e(  8 -  8) =      1.46509  eV     1   --> A'             
     e(  9 -  9) =      2.29713  eV     1   --> A'             
     e( 10 - 10) =      2.31551  eV     1   --> A''            
     e( 11 - 11) =      2.51693  eV     1   --> A''            
     e( 12 - 12) =      2.55783  eV     1   --> A'             
     e( 13 - 13) =      2.76587  eV     1   --> A'             
     e( 14 - 14) =      5.66106  eV     1   --> A'             
     e( 15 - 15) =      5.88895  eV     1   --> A''            
     e( 16 - 16) =      6.15647  eV     1   --> A'             
     e( 17 - 17) =      6.62827  eV     1   --> A'             
     e( 18 - 18) =      6.70190  eV     1   --> A''            
     e( 19 - 19) =      8.25169  eV     1   --> A'             
     e( 20 - 20) =     12.28702  eV     1   --> A'             
     e( 21 - 21) =     14.84715  eV     1   --> A'             
     e( 22 - 22) =     18.54063  eV     1   --> A'             
     e( 23 - 23) =     19.61643  eV     1   --> A''            
     e( 24 - 24) =     19.99722  eV     1   --> A'             
     e( 25 - 25) =     20.69243  eV     1   --> A'             
     e( 26 - 26) =     20.84389  eV     1   --> A''            
     e( 27 - 27) =     22.65972  eV     1   --> A'             
     e( 28 - 28) =     24.18289  eV     1   --> A''            
     e( 29 - 29) =     24.96755  eV     1   --> A'             
     e( 30 - 30) =     26.51250  eV     1   --> A'             
     e( 31 - 31) =     27.57188  eV     1   --> A'             
     e( 32 - 32) =     27.63995  eV     1   --> A''            
     e( 33 - 33) =     28.20358  eV     1   --> A'             
     e( 34 - 34) =     30.13922  eV     1   --> A'             
     e( 35 - 35) =     31.07701  eV     1   --> A'             
     e( 36 - 36) =     31.30952  eV     1   --> A''            
     e( 37 - 37) =     34.06548  eV     1   --> A'             
     e( 38 - 38) =     34.64488  eV     1   --> A''            
     e( 39 - 39) =     34.67677  eV     1   --> A'             
     e( 40 - 40) =     34.90907  eV     1   --> A'             
     e( 41 - 41) =     36.79251  eV     1   --> A''            
     e( 42 - 42) =     37.01253  eV     1   --> A'             
     e( 43 - 43) =     40.33307  eV     1   --> A'             
     e( 44 - 44) =     41.66072  eV     1   --> A'             
     e( 45 - 45) =     41.81916  eV     1   --> A''            
     e( 46 - 46) =     42.76152  eV     1   --> A''            
     e( 47 - 47) =     43.66035  eV     1   --> A'             
     e( 48 - 48) =     45.01608  eV     1   --> A'             
     e( 49 - 49) =     45.25913  eV     1   --> A''            
     e( 50 - 50) =     47.15420  eV     1   --> A'             
     e( 51 - 51) =     48.50655  eV     1   --> A'             
     e( 52 - 52) =     49.71909  eV     1   --> A''            
     e( 53 - 53) =     50.18670  eV     1   --> A'             
     e( 54 - 54) =     53.02348  eV     1   --> A''            
     e( 55 - 55) =     53.65493  eV     1   --> A'             
     e( 56 - 56) =     55.24645  eV     1   --> A'             
     e( 57 - 57) =     55.71050  eV     1   --> A'             
     e( 58 - 58) =     56.15965  eV     1   --> A''            
     e( 59 - 59) =     57.12159  eV     1   --> A''            
     e( 60 - 60) =     57.24366  eV     1   --> A'             
     e( 61 - 61) =     58.64820  eV     1   --> A'             
     e( 62 - 62) =     59.24599  eV     1   --> A'             
     e( 63 - 63) =     59.55436  eV     1   --> A''            
     e( 64 - 64) =     59.82143  eV     1   --> A'             
     e( 65 - 65) =     60.68939  eV     1   --> A''            
     e( 66 - 66) =     61.10119  eV     1   --> A'             
     e( 67 - 67) =     62.44605  eV     1   --> A''            
     e( 68 - 68) =     62.95942  eV     1   --> A''            
     e( 69 - 69) =     63.28491  eV     1   --> A'             
     e( 70 - 70) =     63.35950  eV     1   --> A'             
     e( 71 - 71) =     64.58836  eV     1   --> A'             
     e( 72 - 72) =     65.99416  eV     1   --> A''            

 **************************************************************************

 **************************************************************************

                    xk=(   0.20000,   0.11547,   0.00000  )

     Band symmetry, C_s (m)     point group:

     e(  1 -  1) =    -10.85950  eV     1   --> A'             
     e(  2 -  2) =    -10.30131  eV     1   --> A'             
     e(  3 -  3) =      1.05895  eV     1   --> A'             
     e(  4 -  4) =      1.33274  eV     1   --> A'             
     e(  5 -  5) =      1.33508  eV     1   --> A''            
     e(  6 -  6) =      1.43924  eV     1   --> A'             
     e(  7 -  7) =      1.57694  eV     1   --> A''            
     e(  8 -  8) =      1.68245  eV     1   --> A'             
     e(  9 -  9) =      2.24340  eV     1   --> A'             
     e( 10 - 10) =      2.32251  eV     1   --> A''            
     e( 11 - 11) =      2.52659  eV     1   --> A''            
     e( 12 - 12) =      2.69006  eV     1   --> A'             
     e( 13 - 13) =      2.74116  eV     1   --> A'             
     e( 14 - 14) =      4.81424  eV     1   --> A'             
     e( 15 - 15) =      5.42508  eV     1   --> A'             
     e( 16 - 16) =      5.55638  eV     1   --> A''            
     e( 17 - 17) =      6.43378  eV     1   --> A'             
     e( 18 - 18) =      6.51553  eV     1   --> A''            
     e( 19 - 19) =      9.36252  eV     1   --> A'             
     e( 20 - 20) =     13.19003  eV     1   --> A'             
     e( 21 - 21) =     14.84735  eV     1   --> A'             
     e( 22 - 22) =     16.99478  eV     1   --> A'             
     e( 23 - 23) =     18.73059  eV     1   --> A'             
     e( 24 - 24) =     19.83975  eV     1   --> A''            
     e( 25 - 25) =     20.35016  eV     1   --> A'             
     e( 26 - 26) =     20.86365  eV     1   --> A''            
     e( 27 - 27) =     21.86201  eV     1   --> A'             
     e( 28 - 28) =     24.07833  eV     1   --> A''            
     e( 29 - 29) =     24.90216  eV     1   --> A'             
     e( 30 - 30) =     27.51513  eV     1   --> A'             
     e( 31 - 31) =     29.01855  eV     1   --> A'             
     e( 32 - 32) =     29.61014  eV     1   --> A'             
     e( 33 - 33) =     29.76101  eV     1   --> A''            
     e( 34 - 34) =     30.15716  eV     1   --> A'             
     e( 35 - 35) =     31.62992  eV     1   --> A''            
     e( 36 - 36) =     33.14019  eV     1   --> A'             
     e( 37 - 37) =     33.73948  eV     1   --> A'             
     e( 38 - 38) =     34.46673  eV     1   --> A'             
     e( 39 - 39) =     34.66676  eV     1   --> A''            
     e( 40 - 40) =     35.71484  eV     1   --> A''            
     e( 41 - 41) =     36.14406  eV     1   --> A'             
     e( 42 - 42) =     37.37024  eV     1   --> A'             
     e( 43 - 43) =     38.53163  eV     1   --> A'             
     e( 44 - 44) =     41.89965  eV     1   --> A''            
     e( 45 - 45) =     42.77908  eV     1   --> A'             
     e( 46 - 46) =     43.41131  eV     1   --> A'             
     e( 47 - 47) =     43.97492  eV     1   --> A''            
     e( 48 - 48) =     44.96294  eV     1   --> A''            
     e( 49 - 49) =     46.55752  eV     1   --> A'             
     e( 50 - 50) =     46.98053  eV     1   --> A''            
     e( 51 - 51) =     47.95210  eV     1   --> A'             
     e( 52 - 52) =     50.14661  eV     1   --> A'             
     e( 53 - 53) =     50.20179  eV     1   --> A''            
     e( 54 - 54) =     50.71733  eV     1   --> A'             
     e( 55 - 55) =     51.56290  eV     1   --> A'             
     e( 56 - 56) =     51.72608  eV     1   --> A''            
     e( 57 - 57) =     52.70315  eV     1   --> A'             
     e( 58 - 58) =     55.25744  eV     1   --> A'             
     e( 59 - 59) =     57.31706  eV     1   --> A'             
     e( 60 - 60) =     57.45981  eV     1   --> A''            
     e( 61 - 61) =     57.73127  eV     1   --> A'             
     e( 62 - 62) =     58.70677  eV     1   --> A'             
     e( 63 - 63) =     59.53767  eV     1   --> A'             
     e( 64 - 64) =     60.85597  eV     1   --> A'             
     e( 65 - 65) =     60.90205  eV     1   --> A''            
     e( 66 - 66) =     61.16229  eV     1   --> A'             
     e( 67 - 67) =     62.04641  eV     1   --> A''            
     e( 68 - 68) =     62.82746  eV     1   --> A'             
     e( 69 - 69) =     63.20120  eV     1   --> A'             
     e( 70 - 70) =     63.57104  eV     1   --> A''            
     e( 71 - 71) =     63.84963  eV     1   --> A''            
     e( 72 - 72) =     64.06571  eV     1   --> A'             

 **************************************************************************

 **************************************************************************

                    xk=(   0.30000,   0.17321,   0.00000  )

     Band symmetry, C_s (m)     point group:

     e(  1 -  1) =    -10.67059  eV     1   --> A'             
     e(  2 -  2) =    -10.23914  eV     1   --> A'             
     e(  3 -  3) =      0.97585  eV     1   --> A'             
     e(  4 -  4) =      1.30854  eV     1   --> A'             
     e(  5 -  5) =      1.41212  eV     1   --> A''            
     e(  6 -  6) =      1.57650  eV     1   --> A'             
     e(  7 -  7) =      1.74861  eV     1   --> A''            
     e(  8 -  8) =      1.91742  eV     1   --> A'             
     e(  9 -  9) =      2.21531  eV     1   --> A'             
     e( 10 - 10) =      2.36538  eV     1   --> A''            
     e( 11 - 11) =      2.53785  eV     1   --> A''            
     e( 12 - 12) =      2.69849  eV     1   --> A'             
     e( 13 - 13) =      2.92176  eV     1   --> A'             
     e( 14 - 14) =      3.92880  eV     1   --> A'             
     e( 15 - 15) =      4.74588  eV     1   --> A'             
     e( 16 - 16) =      5.13579  eV     1   --> A''            
     e( 17 - 17) =      6.11270  eV     1   --> A'             
     e( 18 - 18) =      6.27074  eV     1   --> A''            
     e( 19 - 19) =     10.54824  eV     1   --> A'             
     e( 20 - 20) =     13.99542  eV     1   --> A'             
     e( 21 - 21) =     14.76601  eV     1   --> A'             
     e( 22 - 22) =     15.74356  eV     1   --> A'             
     e( 23 - 23) =     17.77609  eV     1   --> A'             
     e( 24 - 24) =     19.32449  eV     1   --> A'             
     e( 25 - 25) =     20.02028  eV     1   --> A''            
     e( 26 - 26) =     20.65527  eV     1   --> A''            
     e( 27 - 27) =     22.17470  eV     1   --> A'             
     e( 28 - 28) =     24.73428  eV     1   --> A'             
     e( 29 - 29) =     25.00047  eV     1   --> A''            
     e( 30 - 30) =     26.55441  eV     1   --> A'             
     e( 31 - 31) =     29.79405  eV     1   --> A'             
     e( 32 - 32) =     30.96050  eV     1   --> A'             
     e( 33 - 33) =     31.60407  eV     1   --> A'             
     e( 34 - 34) =     32.16820  eV     1   --> A''            
     e( 35 - 35) =     32.21273  eV     1   --> A''            
     e( 36 - 36) =     33.88067  eV     1   --> A'             
     e( 37 - 37) =     34.48814  eV     1   --> A''            
     e( 38 - 38) =     34.67062  eV     1   --> A'             
     e( 39 - 39) =     34.97941  eV     1   --> A''            
     e( 40 - 40) =     35.85131  eV     1   --> A'             
     e( 41 - 41) =     36.47801  eV     1   --> A'             
     e( 42 - 42) =     37.53154  eV     1   --> A'             
     e( 43 - 43) =     39.75542  eV     1   --> A'             
     e( 44 - 44) =     40.13146  eV     1   --> A''            
     e( 45 - 45) =     43.22506  eV     1   --> A''            
     e( 46 - 46) =     43.32798  eV     1   --> A'             
     e( 47 - 47) =     43.79798  eV     1   --> A'             
     e( 48 - 48) =     45.72522  eV     1   --> A''            
     e( 49 - 49) =     46.61249  eV     1   --> A''            
     e( 50 - 50) =     47.54175  eV     1   --> A'             
     e( 51 - 51) =     47.72134  eV     1   --> A''            
     e( 52 - 52) =     47.78305  eV     1   --> A'             
     e( 53 - 53) =     49.53295  eV     1   --> A'             
     e( 54 - 54) =     49.78142  eV     1   --> A''            
     e( 55 - 55) =     50.29830  eV     1   --> A'             
     e( 56 - 56) =     52.02414  eV     1   --> A'             
     e( 57 - 57) =     52.97222  eV     1   --> A'             
     e( 58 - 58) =     54.26962  eV     1   --> A'             
     e( 59 - 59) =     55.39124  eV     1   --> A'             
     e( 60 - 60) =     56.35927  eV     1   --> A'             
     e( 61 - 61) =     57.09089  eV     1   --> A''            
     e( 62 - 62) =     57.44087  eV     1   --> A'             
     e( 63 - 63) =     58.08818  eV     1   --> A'             
     e( 64 - 64) =     59.63884  eV     1   --> A''            
     e( 65 - 65) =     59.84078  eV     1   --> A'             
     e( 66 - 66) =     60.21192  eV     1   --> A'             
     e( 67 - 67) =     60.34705  eV     1   --> A'             
     e( 68 - 68) =     60.65220  eV     1   --> A''            
     e( 69 - 69) =     61.65923  eV     1   --> A'             
     e( 70 - 70) =     62.52797  eV     1   --> A''            
     e( 71 - 71) =     62.93409  eV     1   --> A'             
     e( 72 - 72) =     63.04786  eV     1   --> A''            

 **************************************************************************

 **************************************************************************

                    xk=(   0.40000,   0.23094,   0.00000  )

     Band symmetry, C_s (m)     point group:

     e(  1 -  1) =    -10.49391  eV     1   --> A'             
     e(  2 -  2) =    -10.20704  eV     1   --> A'             
     e(  3 -  3) =      0.99059  eV     1   --> A'             
     e(  4 -  4) =      1.27855  eV     1   --> A'             
     e(  5 -  5) =      1.45835  eV     1   --> A''            
     e(  6 -  6) =      1.75160  eV     1   --> A'             
     e(  7 -  7) =      1.91111  eV     1   --> A''            
     e(  8 -  8) =      1.91364  eV     1   --> A'             
     e(  9 -  9) =      2.31965  eV     1   --> A'             
     e( 10 - 10) =      2.43775  eV     1   --> A''            
     e( 11 - 11) =      2.55031  eV     1   --> A''            
     e( 12 - 12) =      2.74654  eV     1   --> A'             
     e( 13 - 13) =      2.97300  eV     1   --> A'             
     e( 14 - 14) =      3.45664  eV     1   --> A'             
     e( 15 - 15) =      4.20887  eV     1   --> A'             
     e( 16 - 16) =      4.77211  eV     1   --> A''            
     e( 17 - 17) =      5.73552  eV     1   --> A'             
     e( 18 - 18) =      6.06006  eV     1   --> A''            
     e( 19 - 19) =     11.69541  eV     1   --> A'             
     e( 20 - 20) =     14.20154  eV     1   --> A'             
     e( 21 - 21) =     14.29392  eV     1   --> A'             
     e( 22 - 22) =     15.16185  eV     1   --> A'             
     e( 23 - 23) =     17.32356  eV     1   --> A'             
     e( 24 - 24) =     18.97759  eV     1   --> A'             
     e( 25 - 25) =     19.90492  eV     1   --> A''            
     e( 26 - 26) =     20.69212  eV     1   --> A''            
     e( 27 - 27) =     22.34419  eV     1   --> A'             
     e( 28 - 28) =     24.85130  eV     1   --> A'             
     e( 29 - 29) =     25.72800  eV     1   --> A'             
     e( 30 - 30) =     26.30295  eV     1   --> A''            
     e( 31 - 31) =     29.60561  eV     1   --> A'             
     e( 32 - 32) =     30.79659  eV     1   --> A'             
     e( 33 - 33) =     32.07765  eV     1   --> A'             
     e( 34 - 34) =     32.67873  eV     1   --> A''            
     e( 35 - 35) =     33.70312  eV     1   --> A''            
     e( 36 - 36) =     34.10795  eV     1   --> A''            
     e( 37 - 37) =     34.98369  eV     1   --> A'             
     e( 38 - 38) =     35.23142  eV     1   --> A'             
     e( 39 - 39) =     35.94090  eV     1   --> A''            
     e( 40 - 40) =     37.40246  eV     1   --> A'             
     e( 41 - 41) =     37.79286  eV     1   --> A'             
     e( 42 - 42) =     38.26737  eV     1   --> A''            
     e( 43 - 43) =     39.18026  eV     1   --> A'             
     e( 44 - 44) =     41.73264  eV     1   --> A''            
     e( 45 - 45) =     42.56232  eV     1   --> A''            
     e( 46 - 46) =     43.15259  eV     1   --> A'             
     e( 47 - 47) =     43.84692  eV     1   --> A'             
     e( 48 - 48) =     44.38122  eV     1   --> A'             
     e( 49 - 49) =     44.97689  eV     1   --> A'             
     e( 50 - 50) =     46.21517  eV     1   --> A'             
     e( 51 - 51) =     46.56509  eV     1   --> A''            
     e( 52 - 52) =     48.46468  eV     1   --> A'             
     e( 53 - 53) =     49.61823  eV     1   --> A''            
     e( 54 - 54) =     50.73560  eV     1   --> A'             
     e( 55 - 55) =     50.85893  eV     1   --> A''            
     e( 56 - 56) =     51.85586  eV     1   --> A'             
     e( 57 - 57) =     52.73041  eV     1   --> A'             
     e( 58 - 58) =     53.78139  eV     1   --> A'             
     e( 59 - 59) =     54.86575  eV     1   --> A'             
     e( 60 - 60) =     55.68612  eV     1   --> A'             
     e( 61 - 61) =     55.91297  eV     1   --> A''            
     e( 62 - 62) =     56.48162  eV     1   --> A'             
     e( 63 - 63) =     56.75681  eV     1   --> A''            
     e( 64 - 64) =     56.98646  eV     1   --> A'             
     e( 65 - 65) =     57.79655  eV     1   --> A'             
     e( 66 - 66) =     58.16661  eV     1   --> A'             
     e( 67 - 67) =     58.60942  eV     1   --> A''            
     e( 68 - 68) =     60.35898  eV     1   --> A'             
     e( 69 - 69) =     60.79851  eV     1   --> A'             
     e( 70 - 70) =     61.48137  eV     1   --> A''            
     e( 71 - 71) =     62.41275  eV     1   --> A'             
     e( 72 - 72) =     62.44043  eV     1   --> A''            

 **************************************************************************

 **************************************************************************

                    xk=(   0.50000,   0.28868,   0.00000  )

     point group C_2v (mm2) 
     there are  4 classes
     the character table:

       E     C2    s_v   s_v' 
A_1    1.00  1.00  1.00  1.00
A_2    1.00  1.00 -1.00 -1.00
B_1    1.00 -1.00  1.00 -1.00
B_2    1.00 -1.00 -1.00  1.00

     the symmetry operations in each class and the name of the first element:

     E        1
                                                                 
     C2       2
                                                                 
     s_v      4
                                                                 
     s_v'     3
                                                                 

     Band symmetry, C_2v (mm2)  point group:

     e(  1 -  1) =    -10.41249  eV     1   --> B_1  D_3  S_3  
     e(  2 -  2) =    -10.20730  eV     1   --> A_1  D_1  S_1  
     e(  3 -  3) =      1.03920  eV     1   --> B_1  D_3  S_3  
     e(  4 -  4) =      1.25537  eV     1   --> A_1  D_1  S_1  
     e(  5 -  5) =      1.47184  eV     1   --> A_2  D_2  S_2  
     e(  6 -  6) =      1.84696  eV     1   --> B_1  D_3  S_3  
     e(  7 -  7) =      1.86982  eV     1   --> A_1  D_1  S_1  
     e(  8 -  8) =      1.97932  eV     1   --> B_2  D_4  S_4  
     e(  9 -  9) =      2.35614  eV     1   --> A_1  D_1  S_1  
     e( 10 - 10) =      2.47851  eV     1   --> A_2  D_2  S_2  
     e( 11 - 11) =      2.55674  eV     1   --> B_2  D_4  S_4  
     e( 12 - 12) =      2.62662  eV     1   --> B_1  D_3  S_3  
     e( 13 - 13) =      3.09290  eV     1   --> A_1  D_1  S_1  
     e( 14 - 14) =      3.33506  eV     1   --> B_1  D_3  S_3  
     e( 15 - 15) =      4.04661  eV     1   --> A_1  D_1  S_1  
     e( 16 - 16) =      4.62268  eV     1   --> B_2  D_4  S_4  
     e( 17 - 17) =      5.53585  eV     1   --> B_1  D_3  S_3  
     e( 18 - 18) =      5.97611  eV     1   --> A_2  D_2  S_2  
     e( 19 - 19) =     12.40983  eV     1   --> B_1  D_3  S_3  
     e( 20 - 20) =     13.60068  eV     1   --> A_1  D_1  S_1  
     e( 21 - 21) =     14.30495  eV     1   --> B_1  D_3  S_3  
     e( 22 - 22) =     15.05998  eV     1   --> A_1  D_1  S_1  
     e( 23 - 23) =     17.17626  eV     1   --> A_1  D_1  S_1  
     e( 24 - 24) =     19.05022  eV     1   --> B_1  D_3  S_3  
     e( 25 - 25) =     19.80965  eV     1   --> A_2  D_2  S_2  
     e( 26 - 26) =     20.75913  eV     1   --> B_2  D_4  S_4  
     e( 27 - 27) =     22.33547  eV     1   --> B_1  D_3  S_3  
     e( 28 - 28) =     24.90101  eV     1   --> A_1  D_1  S_1  
     e( 29 - 29) =     25.49589  eV     1   --> B_1  D_3  S_3  
     e( 30 - 30) =     26.99846  eV     1   --> A_2  D_2  S_2  
     e( 31 - 31) =     29.44641  eV     1   --> A_1  D_1  S_1  
     e( 32 - 32) =     31.24831  eV     1   --> B_1  D_3  S_3  
     e( 33 - 33) =     31.26230  eV     1   --> A_1  D_1  S_1  
     e( 34 - 34) =     32.55157  eV     1   --> B_2  D_4  S_4  
     e( 35 - 35) =     33.82809  eV     1   --> B_2  D_4  S_4  
     e( 36 - 36) =     34.18800  eV     1   --> A_2  D_2  S_2  
     e( 37 - 37) =     34.74784  eV     1   --> A_1  D_1  S_1  
     e( 38 - 38) =     35.43452  eV     1   --> B_1  D_3  S_3  
     e( 39 - 39) =     37.34947  eV     1   --> B_2  D_4  S_4  
     e( 40 - 40) =     38.99478  eV     1   --> B_2  D_4  S_4  
     e( 41 - 41) =     39.02990  eV     1   --> A_2  D_2  S_2  
     e( 42 - 42) =     39.59473  eV     1   --> A_1  D_1  S_1  
     e( 43 - 43) =     39.69751  eV     1   --> B_1  D_3  S_3  
     e( 44 - 44) =     40.86493  eV     1   --> A_1  D_1  S_1  
     e( 45 - 45) =     41.20623  eV     1   --> A_2  D_2  S_2  
     e( 46 - 46) =     41.60299  eV     1   --> B_1  D_3  S_3  
     e( 47 - 47) =     42.99899  eV     1   --> A_1  D_1  S_1  
     e( 48 - 48) =     44.52331  eV     1   --> B_1  D_3  S_3  
     e( 49 - 49) =     45.30306  eV     1   --> A_1  D_1  S_1  
     e( 50 - 50) =     46.39215  eV     1   --> B_2  D_4  S_4  
     e( 51 - 51) =     47.62194  eV     1   --> B_1  D_3  S_3  
     e( 52 - 52) =     47.90952  eV     1   --> A_1  D_1  S_1  
     e( 53 - 53) =     49.20129  eV     1   --> A_1  D_1  S_1  
     e( 54 - 54) =     49.68826  eV     1   --> B_1  D_3  S_3  
     e( 55 - 55) =     52.01321  eV     1   --> B_2  D_4  S_4  
     e( 56 - 56) =     52.19328  eV     1   --> A_2  D_2  S_2  
     e( 57 - 57) =     52.98282  eV     1   --> A_1  D_1  S_1  
     e( 58 - 58) =     53.12255  eV     1   --> B_1  D_3  S_3  
     e( 59 - 59) =     53.84390  eV     1   --> B_2  D_4  S_4  
     e( 60 - 60) =     54.57223  eV     1   --> B_1  D_3  S_3  
     e( 61 - 61) =     54.72188  eV     1   --> A_2  D_2  S_2  
     e( 62 - 62) =     56.08345  eV     1   --> B_1  D_3  S_3  
     e( 63 - 63) =     56.09856  eV     1   --> A_1  D_1  S_1  
     e( 64 - 64) =     57.41055  eV     1   --> B_1  D_3  S_3  
     e( 65 - 65) =     57.44996  eV     1   --> A_1  D_1  S_1  
     e( 66 - 66) =     58.19466  eV     1   --> A_2  D_2  S_2  
     e( 67 - 67) =     58.82948  eV     1   --> A_1  D_1  S_1  
     e( 68 - 68) =     59.50616  eV     1   --> B_1  D_3  S_3  
     e( 69 - 69) =     60.86231  eV     1   --> A_1  D_1  S_1  
     e( 70 - 70) =     61.50117  eV     1   --> A_2  D_2  S_2  
     e( 71 - 71) =     61.77219  eV     1   --> B_2  D_4  S_4  
     e( 72 - 72) =     62.16534  eV     1   --> B_1  D_3  S_3  

 **************************************************************************

 **************************************************************************

                    xk=(   0.50000,   0.28868,   0.06194  )

     Band symmetry, C_2v (mm2)  point group:

     e(  1 -  1) =    -10.40678  eV     1   --> B_1  D_3  S_3  
     e(  2 -  2) =    -10.21156  eV     1   --> A_1  D_1  S_1  
     e(  3 -  3) =      1.02289  eV     1   --> B_1  D_3  S_3  
     e(  4 -  4) =      1.21768  eV     1   --> A_1  D_1  S_1  
     e(  5 -  5) =      1.48135  eV     1   --> A_2  D_2  S_2  
     e(  6 -  6) =      1.83901  eV     1   --> B_1  D_3  S_3  
     e(  7 -  7) =      1.85185  eV     1   --> A_1  D_1  S_1  
     e(  8 -  8) =      1.96327  eV     1   --> B_2  D_4  S_4  
     e(  9 -  9) =      2.38154  eV     1   --> A_1  D_1  S_1  
     e( 10 - 10) =      2.47935  eV     1   --> A_2  D_2  S_2  
     e( 11 - 11) =      2.55176  eV     1   --> B_2  D_4  S_4  
     e( 12 - 12) =      2.62661  eV     1   --> B_1  D_3  S_3  
     e( 13 - 13) =      3.07520  eV     1   --> A_1  D_1  S_1  
     e( 14 - 14) =      3.31431  eV     1   --> B_1  D_3  S_3  
     e( 15 - 15) =      4.15602  eV     1   --> A_1  D_1  S_1  
     e( 16 - 16) =      4.66136  eV     1   --> B_2  D_4  S_4  
     e( 17 - 17) =      5.57179  eV     1   --> B_1  D_3  S_3  
     e( 18 - 18) =      5.94566  eV     1   --> A_2  D_2  S_2  
     e( 19 - 19) =     12.34695  eV     1   --> B_1  D_3  S_3  
     e( 20 - 20) =     13.53835  eV     1   --> A_1  D_1  S_1  
     e( 21 - 21) =     14.37602  eV     1   --> B_1  D_3  S_3  
     e( 22 - 22) =     15.07859  eV     1   --> A_1  D_1  S_1  
     e( 23 - 23) =     17.15011  eV     1   --> A_1  D_1  S_1  
     e( 24 - 24) =     19.12242  eV     1   --> B_1  D_3  S_3  
     e( 25 - 25) =     19.83074  eV     1   --> A_2  D_2  S_2  
     e( 26 - 26) =     20.73372  eV     1   --> B_2  D_4  S_4  
     e( 27 - 27) =     21.97645  eV     1   --> B_1  D_3  S_3  
     e( 28 - 28) =     24.96609  eV     1   --> A_1  D_1  S_1  
     e( 29 - 29) =     25.95011  eV     1   --> B_1  D_3  S_3  
     e( 30 - 30) =     27.09863  eV     1   --> A_2  D_2  S_2  
     e( 31 - 31) =     28.70308  eV     1   --> A_1  D_1  S_1  
     e( 32 - 32) =     31.18099  eV     1   --> B_1  D_3  S_3  
     e( 33 - 33) =     31.98699  eV     1   --> A_1  D_1  S_1  
     e( 34 - 34) =     32.54149  eV     1   --> B_2  D_4  S_4  
     e( 35 - 35) =     33.44387  eV     1   --> B_2  D_4  S_4  
     e( 36 - 36) =     34.10392  eV     1   --> A_2  D_2  S_2  
     e( 37 - 37) =     34.80566  eV     1   --> A_1  D_1  S_1  
     e( 38 - 38) =     35.49628  eV     1   --> B_1  D_3  S_3  
     e( 39 - 39) =     37.37028  eV     1   --> B_2  D_4  S_4  
     e( 40 - 40) =     39.10585  eV     1   --> A_2  D_2  S_2  
     e( 41 - 41) =     39.48558  eV     1   --> A_1  D_1  S_1  
     e( 42 - 42) =     39.58266  eV     1   --> B_2  D_4  S_4  
     e( 43 - 43) =     39.62993  eV     1   --> B_1  D_3  S_3  
     e( 44 - 44) =     40.99730  eV     1   --> A_1  D_1  S_1  
     e( 45 - 45) =     41.26461  eV     1   --> A_2  D_2  S_2  
     e( 46 - 46) =     41.72898  eV     1   --> B_1  D_3  S_3  
     e( 47 - 47) =     42.76065  eV     1   --> A_1  D_1  S_1  
     e( 48 - 48) =     44.59270  eV     1   --> B_1  D_3  S_3  
     e( 49 - 49) =     45.50928  eV     1   --> A_1  D_1  S_1  
     e( 50 - 50) =     46.37420  eV     1   --> B_2  D_4  S_4  
     e( 51 - 51) =     47.27554  eV     1   --> B_1  D_3  S_3  
     e( 52 - 52) =     47.62543  eV     1   --> A_1  D_1  S_1  
     e( 53 - 53) =     49.72297  eV     1   --> A_1  D_1  S_1  
     e( 54 - 54) =     49.96129  eV     1   --> B_1  D_3  S_3  
     e( 55 - 55) =     50.98025  eV     1   --> B_2  D_4  S_4  
     e( 56 - 56) =     51.49496  eV     1   --> A_2  D_2  S_2  
     e( 57 - 57) =     51.88339  eV     1   --> B_1  D_3  S_3  
     e( 58 - 58) =     52.13868  eV     1   --> A_1  D_1  S_1  
     e( 59 - 59) =     54.56519  eV     1   --> B_1  D_3  S_3  
     e( 60 - 60) =     55.05102  eV     1   --> B_2  D_4  S_4  
     e( 61 - 61) =     55.55096  eV     1   --> A_2  D_2  S_2  
     e( 62 - 62) =     56.37383  eV     1   --> B_1  D_3  S_3  
     e( 63 - 63) =     56.72560  eV     1   --> A_1  D_1  S_1  
     e( 64 - 64) =     56.84352  eV     1   --> A_2  D_2  S_2  
     e( 65 - 65) =     57.63235  eV     1   --> A_1  D_1  S_1  
     e( 66 - 66) =     57.88004  eV     1   --> B_1  D_3  S_3  
     e( 67 - 67) =     58.43432  eV     1   --> A_1  D_1  S_1  
     e( 68 - 68) =     59.57738  eV     1   --> B_1  D_3  S_3  
     e( 69 - 69) =     61.42758  eV     1   --> A_1  D_1  S_1  
     e( 70 - 70) =     61.75935  eV     1   --> B_2  D_4  S_4  
     e( 71 - 71) =     61.88157  eV     1   --> B_1  D_3  S_3  
     e( 72 - 72) =     62.54880  eV     1   --> A_2  D_2  S_2  

 **************************************************************************

 **************************************************************************

                    xk=(   0.50000,   0.28868,   0.12389  )

     Band symmetry, C_2v (mm2)  point group:

     e(  1 -  1) =    -10.39037  eV     1   --> B_1  D_3  S_3  
     e(  2 -  2) =    -10.22415  eV     1   --> A_1  D_1  S_1  
     e(  3 -  3) =      0.98011  eV     1   --> B_1  D_3  S_3  
     e(  4 -  4) =      1.12296  eV     1   --> A_1  D_1  S_1  
     e(  5 -  5) =      1.50956  eV     1   --> A_2  D_2  S_2  
     e(  6 -  6) =      1.81775  eV     1   --> A_1  D_1  S_1  
     e(  7 -  7) =      1.81932  eV     1   --> B_1  D_3  S_3  
     e(  8 -  8) =      1.91778  eV     1   --> B_2  D_4  S_4  
     e(  9 -  9) =      2.43763  eV     1   --> A_1  D_1  S_1  
     e( 10 - 10) =      2.48189  eV     1   --> A_2  D_2  S_2  
     e( 11 - 11) =      2.53944  eV     1   --> B_2  D_4  S_4  
     e( 12 - 12) =      2.62545  eV     1   --> B_1  D_3  S_3  
     e( 13 - 13) =      3.04679  eV     1   --> A_1  D_1  S_1  
     e( 14 - 14) =      3.26195  eV     1   --> B_1  D_3  S_3  
     e( 15 - 15) =      4.43382  eV     1   --> A_1  D_1  S_1  
     e( 16 - 16) =      4.77064  eV     1   --> B_2  D_4  S_4  
     e( 17 - 17) =      5.64826  eV     1   --> B_1  D_3  S_3  
     e( 18 - 18) =      5.85702  eV     1   --> A_2  D_2  S_2  
     e( 19 - 19) =     12.22248  eV     1   --> B_1  D_3  S_3  
     e( 20 - 20) =     13.35568  eV     1   --> A_1  D_1  S_1  
     e( 21 - 21) =     14.54030  eV     1   --> B_1  D_3  S_3  
     e( 22 - 22) =     15.11644  eV     1   --> A_1  D_1  S_1  
     e( 23 - 23) =     17.12261  eV     1   --> A_1  D_1  S_1  
     e( 24 - 24) =     19.23997  eV     1   --> B_1  D_3  S_3  
     e( 25 - 25) =     19.89257  eV     1   --> A_2  D_2  S_2  
     e( 26 - 26) =     20.66061  eV     1   --> B_2  D_4  S_4  
     e( 27 - 27) =     21.38812  eV     1   --> B_1  D_3  S_3  
     e( 28 - 28) =     25.00945  eV     1   --> A_1  D_1  S_1  
     e( 29 - 29) =     26.87792  eV     1   --> B_1  D_3  S_3  
     e( 30 - 30) =     27.39612  eV     1   --> A_2  D_2  S_2  
     e( 31 - 31) =     27.71518  eV     1   --> A_1  D_1  S_1  
     e( 32 - 32) =     31.02324  eV     1   --> B_1  D_3  S_3  
     e( 33 - 33) =     32.29552  eV     1   --> B_2  D_4  S_4  
     e( 34 - 34) =     32.75905  eV     1   --> A_1  D_1  S_1  
     e( 35 - 35) =     32.80330  eV     1   --> B_2  D_4  S_4  
     e( 36 - 36) =     33.88584  eV     1   --> A_2  D_2  S_2  
     e( 37 - 37) =     35.24860  eV     1   --> A_1  D_1  S_1  
     e( 38 - 38) =     35.66743  eV     1   --> B_1  D_3  S_3  
     e( 39 - 39) =     37.54900  eV     1   --> B_2  D_4  S_4  
     e( 40 - 40) =     39.22384  eV     1   --> A_1  D_1  S_1  
     e( 41 - 41) =     39.23928  eV     1   --> A_2  D_2  S_2  
     e( 42 - 42) =     39.49788  eV     1   --> B_1  D_3  S_3  
     e( 43 - 43) =     40.91886  eV     1   --> B_2  D_4  S_4  
     e( 44 - 44) =     41.17374  eV     1   --> A_1  D_1  S_1  
     e( 45 - 45) =     41.49736  eV     1   --> A_2  D_2  S_2  
     e( 46 - 46) =     42.06184  eV     1   --> B_1  D_3  S_3  
     e( 47 - 47) =     42.39907  eV     1   --> A_1  D_1  S_1  
     e( 48 - 48) =     44.70185  eV     1   --> B_1  D_3  S_3  
     e( 49 - 49) =     45.79086  eV     1   --> A_1  D_1  S_1  
     e( 50 - 50) =     46.26858  eV     1   --> B_2  D_4  S_4  
     e( 51 - 51) =     46.50545  eV     1   --> B_1  D_3  S_3  
     e( 52 - 52) =     47.61332  eV     1   --> A_1  D_1  S_1  
     e( 53 - 53) =     49.63535  eV     1   --> B_2  D_4  S_4  
     e( 54 - 54) =     50.02622  eV     1   --> B_1  D_3  S_3  
     e( 55 - 55) =     50.10052  eV     1   --> A_1  D_1  S_1  
     e( 56 - 56) =     50.31902  eV     1   --> A_2  D_2  S_2  
     e( 57 - 57) =     50.51117  eV     1   --> B_1  D_3  S_3  
     e( 58 - 58) =     51.18152  eV     1   --> A_1  D_1  S_1  
     e( 59 - 59) =     54.05812  eV     1   --> B_1  D_3  S_3  
     e( 60 - 60) =     54.58565  eV     1   --> A_2  D_2  S_2  
     e( 61 - 61) =     56.22844  eV     1   --> B_1  D_3  S_3  
     e( 62 - 62) =     56.49774  eV     1   --> A_1  D_1  S_1  
     e( 63 - 63) =     56.97527  eV     1   --> B_2  D_4  S_4  
     e( 64 - 64) =     57.12570  eV     1   --> A_2  D_2  S_2  
     e( 65 - 65) =     57.94579  eV     1   --> A_1  D_1  S_1  
     e( 66 - 66) =     58.19656  eV     1   --> B_1  D_3  S_3  
     e( 67 - 67) =     59.15333  eV     1   --> A_1  D_1  S_1  
     e( 68 - 68) =     60.23915  eV     1   --> B_1  D_3  S_3  
     e( 69 - 69) =     61.74289  eV     1   --> B_2  D_4  S_4  
     e( 70 - 70) =     62.18562  eV     1   --> A_1  D_1  S_1  
     e( 71 - 71) =     62.46600  eV     1   --> B_1  D_3  S_3  
     e( 72 - 72) =     62.95043  eV     1   --> A_1  D_1  S_1  

 **************************************************************************

 **************************************************************************

                    xk=(   0.50000,   0.28868,   0.18583  )

     Band symmetry, C_2v (mm2)  point group:

     e(  1 -  1) =    -10.36536  eV     1   --> B_1  D_3  S_3  
     e(  2 -  2) =    -10.24445  eV     1   --> A_1  D_1  S_1  
     e(  3 -  3) =      0.92801  eV     1   --> B_1  D_3  S_3  
     e(  4 -  4) =      1.01338  eV     1   --> A_1  D_1  S_1  
     e(  5 -  5) =      1.55548  eV     1   --> A_2  D_2  S_2  
     e(  6 -  6) =      1.78997  eV     1   --> A_1  D_1  S_1  
     e(  7 -  7) =      1.79681  eV     1   --> B_1  D_3  S_3  
     e(  8 -  8) =      1.85036  eV     1   --> B_2  D_4  S_4  
     e(  9 -  9) =      2.48617  eV     1   --> A_2  D_2  S_2  
     e( 10 - 10) =      2.49723  eV     1   --> A_1  D_1  S_1  
     e( 11 - 11) =      2.52486  eV     1   --> B_2  D_4  S_4  
     e( 12 - 12) =      2.62034  eV     1   --> B_1  D_3  S_3  
     e( 13 - 13) =      3.03559  eV     1   --> A_1  D_1  S_1  
     e( 14 - 14) =      3.19714  eV     1   --> B_1  D_3  S_3  
     e( 15 - 15) =      4.79162  eV     1   --> A_1  D_1  S_1  
     e( 16 - 16) =      4.93369  eV     1   --> B_2  D_4  S_4  
     e( 17 - 17) =      5.69325  eV     1   --> B_1  D_3  S_3  
     e( 18 - 18) =      5.71785  eV     1   --> A_2  D_2  S_2  
     e( 19 - 19) =     12.15212  eV     1   --> B_1  D_3  S_3  
     e( 20 - 20) =     13.07241  eV     1   --> A_1  D_1  S_1  
     e( 21 - 21) =     14.72176  eV     1   --> B_1  D_3  S_3  
     e( 22 - 22) =     15.13184  eV     1   --> A_1  D_1  S_1  
     e( 23 - 23) =     17.20442  eV     1   --> A_1  D_1  S_1  
     e( 24 - 24) =     19.06303  eV     1   --> B_1  D_3  S_3  
     e( 25 - 25) =     19.99068  eV     1   --> A_2  D_2  S_2  
     e( 26 - 26) =     20.54860  eV     1   --> B_2  D_4  S_4  
     e( 27 - 27) =     21.27460  eV     1   --> B_1  D_3  S_3  
     e( 28 - 28) =     24.59111  eV     1   --> A_1  D_1  S_1  
     e( 29 - 29) =     27.34152  eV     1   --> A_1  D_1  S_1  
     e( 30 - 30) =     27.74555  eV     1   --> B_1  D_3  S_3  
     e( 31 - 31) =     27.88219  eV     1   --> A_2  D_2  S_2  
     e( 32 - 32) =     30.92878  eV     1   --> B_1  D_3  S_3  
     e( 33 - 33) =     31.33924  eV     1   --> B_2  D_4  S_4  
     e( 34 - 34) =     32.76633  eV     1   --> B_2  D_4  S_4  
     e( 35 - 35) =     32.78258  eV     1   --> A_1  D_1  S_1  
     e( 36 - 36) =     33.60397  eV     1   --> A_2  D_2  S_2  
     e( 37 - 37) =     35.92429  eV     1   --> B_1  D_3  S_3  
     e( 38 - 38) =     36.24337  eV     1   --> A_1  D_1  S_1  
     e( 39 - 39) =     37.88369  eV     1   --> B_2  D_4  S_4  
     e( 40 - 40) =     39.01106  eV     1   --> A_1  D_1  S_1  
     e( 41 - 41) =     39.24617  eV     1   --> A_2  D_2  S_2  
     e( 42 - 42) =     39.42347  eV     1   --> B_1  D_3  S_3  
     e( 43 - 43) =     40.88651  eV     1   --> A_1  D_1  S_1  
     e( 44 - 44) =     42.01154  eV     1   --> A_2  D_2  S_2  
     e( 45 - 45) =     42.49247  eV     1   --> B_1  D_3  S_3  
     e( 46 - 46) =     42.56065  eV     1   --> A_1  D_1  S_1  
     e( 47 - 47) =     42.56302  eV     1   --> B_2  D_4  S_4  
     e( 48 - 48) =     44.44810  eV     1   --> B_1  D_3  S_3  
     e( 49 - 49) =     45.65466  eV     1   --> B_1  D_3  S_3  
     e( 50 - 50) =     45.85690  eV     1   --> A_1  D_1  S_1  
     e( 51 - 51) =     45.89246  eV     1   --> B_2  D_4  S_4  
     e( 52 - 52) =     48.20222  eV     1   --> A_1  D_1  S_1  
     e( 53 - 53) =     48.76286  eV     1   --> B_2  D_4  S_4  
     e( 54 - 54) =     48.77437  eV     1   --> B_1  D_3  S_3  
     e( 55 - 55) =     49.12844  eV     1   --> A_1  D_1  S_1  
     e( 56 - 56) =     49.14149  eV     1   --> A_2  D_2  S_2  
     e( 57 - 57) =     50.79675  eV     1   --> B_1  D_3  S_3  
     e( 58 - 58) =     51.52503  eV     1   --> A_1  D_1  S_1  
     e( 59 - 59) =     52.36127  eV     1   --> A_2  D_2  S_2  
     e( 60 - 60) =     53.20924  eV     1   --> B_1  D_3  S_3  
     e( 61 - 61) =     55.94446  eV     1   --> B_1  D_3  S_3  
     e( 62 - 62) =     55.99290  eV     1   --> A_1  D_1  S_1  
     e( 63 - 63) =     57.80101  eV     1   --> A_1  D_1  S_1  
     e( 64 - 64) =     57.81006  eV     1   --> B_1  D_3  S_3  
     e( 65 - 65) =     58.83558  eV     1   --> A_2  D_2  S_2  
     e( 66 - 66) =     59.02334  eV     1   --> B_2  D_4  S_4  
     e( 67 - 67) =     60.67277  eV     1   --> A_1  D_1  S_1  
     e( 68 - 68) =     61.21154  eV     1   --> B_1  D_3  S_3  
     e( 69 - 69) =     61.78583  eV     1   --> B_2  D_4  S_4  
     e( 70 - 70) =     62.37707  eV     1   --> A_1  D_1  S_1  
     e( 71 - 71) =     63.22880  eV     1   --> A_2  D_2  S_2  
     e( 72 - 72) =     63.73920  eV     1   --> A_1  D_1  S_1  

 **************************************************************************

 **************************************************************************

                    xk=(   0.50000,   0.28868,   0.24778  )

     Band symmetry, C_2v (mm2)  point group:

     e(  1 -  1) =    -10.33481  eV     1   --> B_1  D_3  S_3  
     e(  2 -  2) =    -10.27118  eV     1   --> A_1  D_1  S_1  
     e(  3 -  3) =      0.88947  eV     1   --> B_1  D_3  S_3  
     e(  4 -  4) =      0.92743  eV     1   --> A_1  D_1  S_1  
     e(  5 -  5) =      1.61709  eV     1   --> A_2  D_2  S_2  
     e(  6 -  6) =      1.77134  eV     1   --> B_2  D_4  S_4  
     e(  7 -  7) =      1.77433  eV     1   --> A_1  D_1  S_1  
     e(  8 -  8) =      1.77921  eV     1   --> B_1  D_3  S_3  
     e(  9 -  9) =      2.49236  eV     1   --> A_2  D_2  S_2  
     e( 10 - 10) =      2.51154  eV     1   --> B_2  D_4  S_4  
     e( 11 - 11) =      2.54757  eV     1   --> A_1  D_1  S_1  
     e( 12 - 12) =      2.60781  eV     1   --> B_1  D_3  S_3  
     e( 13 - 13) =      3.04838  eV     1   --> A_1  D_1  S_1  
     e( 14 - 14) =      3.13456  eV     1   --> B_1  D_3  S_3  
     e( 15 - 15) =      5.12969  eV     1   --> B_2  D_4  S_4  
     e( 16 - 16) =      5.15251  eV     1   --> A_1  D_1  S_1  
     e( 17 - 17) =      5.53992  eV     1   --> A_2  D_2  S_2  
     e( 18 - 18) =      5.63755  eV     1   --> B_1  D_3  S_3  
     e( 19 - 19) =     12.21470  eV     1   --> B_1  D_3  S_3  
     e( 20 - 20) =     12.73689  eV     1   --> A_1  D_1  S_1  
     e( 21 - 21) =     14.88123  eV     1   --> B_1  D_3  S_3  
     e( 22 - 22) =     15.09491  eV     1   --> A_1  D_1  S_1  
     e( 23 - 23) =     17.47551  eV     1   --> A_1  D_1  S_1  
     e( 24 - 24) =     18.52162  eV     1   --> B_1  D_3  S_3  
     e( 25 - 25) =     20.11738  eV     1   --> A_2  D_2  S_2  
     e( 26 - 26) =     20.41065  eV     1   --> B_2  D_4  S_4  
     e( 27 - 27) =     21.80861  eV     1   --> B_1  D_3  S_3  
     e( 28 - 28) =     23.68207  eV     1   --> A_1  D_1  S_1  
     e( 29 - 29) =     27.59235  eV     1   --> A_1  D_1  S_1  
     e( 30 - 30) =     28.14207  eV     1   --> B_1  D_3  S_3  
     e( 31 - 31) =     28.54310  eV     1   --> A_2  D_2  S_2  
     e( 32 - 32) =     30.30740  eV     1   --> B_2  D_4  S_4  
     e( 33 - 33) =     31.16197  eV     1   --> B_1  D_3  S_3  
     e( 34 - 34) =     32.35673  eV     1   --> A_1  D_1  S_1  
     e( 35 - 35) =     32.88332  eV     1   --> B_2  D_4  S_4  
     e( 36 - 36) =     33.31967  eV     1   --> A_2  D_2  S_2  
     e( 37 - 37) =     36.25671  eV     1   --> B_1  D_3  S_3  
     e( 38 - 38) =     36.83711  eV     1   --> A_1  D_1  S_1  
     e( 39 - 39) =     38.29710  eV     1   --> B_2  D_4  S_4  
     e( 40 - 40) =     39.05409  eV     1   --> A_2  D_2  S_2  
     e( 41 - 41) =     39.39552  eV     1   --> A_1  D_1  S_1  
     e( 42 - 42) =     39.48291  eV     1   --> B_1  D_3  S_3  
     e( 43 - 43) =     40.49467  eV     1   --> A_1  D_1  S_1  
     e( 44 - 44) =     42.56477  eV     1   --> B_1  D_3  S_3  
     e( 45 - 45) =     42.80677  eV     1   --> A_2  D_2  S_2  
     e( 46 - 46) =     43.00441  eV     1   --> A_1  D_1  S_1  
     e( 47 - 47) =     43.50915  eV     1   --> B_1  D_3  S_3  
     e( 48 - 48) =     44.10363  eV     1   --> B_2  D_4  S_4  
     e( 49 - 49) =     45.32542  eV     1   --> B_2  D_4  S_4  
     e( 50 - 50) =     45.35934  eV     1   --> B_1  D_3  S_3  
     e( 51 - 51) =     45.77530  eV     1   --> A_1  D_1  S_1  
     e( 52 - 52) =     47.91365  eV     1   --> A_2  D_2  S_2  
     e( 53 - 53) =     48.02994  eV     1   --> A_1  D_1  S_1  
     e( 54 - 54) =     48.12080  eV     1   --> B_1  D_3  S_3  
     e( 55 - 55) =     48.63781  eV     1   --> B_2  D_4  S_4  
     e( 56 - 56) =     49.48368  eV     1   --> A_1  D_1  S_1  
     e( 57 - 57) =     50.45283  eV     1   --> A_2  D_2  S_2  
     e( 58 - 58) =     50.96653  eV     1   --> B_1  D_3  S_3  
     e( 59 - 59) =     51.60353  eV     1   --> A_1  D_1  S_1  
     e( 60 - 60) =     52.08882  eV     1   --> B_1  D_3  S_3  
     e( 61 - 61) =     55.82802  eV     1   --> A_1  D_1  S_1  
     e( 62 - 62) =     55.85586  eV     1   --> B_1  D_3  S_3  
     e( 63 - 63) =     57.62825  eV     1   --> B_1  D_3  S_3  
     e( 64 - 64) =     57.71415  eV     1   --> A_1  D_1  S_1  
     e( 65 - 65) =     60.37815  eV     1   --> A_2  D_2  S_2  
     e( 66 - 66) =     60.79558  eV     1   --> B_2  D_4  S_4  
     e( 67 - 67) =     61.57840  eV     1   --> A_1  D_1  S_1  
     e( 68 - 68) =     61.79024  eV     1   --> B_1  D_3  S_3  
     e( 69 - 69) =     62.20038  eV     1   --> B_2  D_4  S_4  
     e( 70 - 70) =     62.43162  eV     1   --> A_1  D_1  S_1  
     e( 71 - 71) =     63.27777  eV     1   --> B_1  D_3  S_3  
     e( 72 - 72) =     63.33396  eV     1   --> A_2  D_2  S_2  

 **************************************************************************

 **************************************************************************

                    xk=(   0.50000,   0.28868,   0.30972  )

     Band symmetry, C_2v (mm2)  point group:

     e(  1 -  2) =    -10.30227  eV     2   --> A_1  D_1  S_1  
     e(  1 -  2) =    -10.30227  eV     2   --> B_1  D_3  S_3  
     e(  3 -  4) =      0.88536  eV     2   --> A_1  D_1  S_1  
     e(  3 -  4) =      0.88536  eV     2   --> B_1  D_3  S_3  
     e(  5 -  6) =      1.69090  eV     2   --> A_2  D_2  S_2  
     e(  5 -  6) =      1.69090  eV     2   --> B_2  D_4  S_4  
     e(  7 -  8) =      1.77103  eV     2   --> A_1  D_1  S_1  
     e(  7 -  8) =      1.77103  eV     2   --> B_1  D_3  S_3  
     e(  9 - 10) =      2.50071  eV     2   --> A_2  D_2  S_2  
     e(  9 - 10) =      2.50071  eV     2   --> B_2  D_4  S_4  
     e( 11 - 12) =      2.58439  eV     2   --> A_1  D_1  S_1  
     e( 11 - 12) =      2.58439  eV     2   --> B_1  D_3  S_3  
     e( 13 - 14) =      3.08296  eV     2   --> A_1  D_1  S_1  
     e( 13 - 14) =      3.08296  eV     2   --> B_1  D_3  S_3  
     e( 15 - 16) =      5.33814  eV     2   --> A_2  D_2  S_2  
     e( 15 - 16) =      5.33814  eV     2   --> B_2  D_4  S_4  
     e( 17 - 18) =      5.45129  eV     2   --> A_1  D_1  S_1  
     e( 17 - 18) =      5.45129  eV     2   --> B_1  D_3  S_3  
     e( 19 - 20) =     12.42486  eV     2   --> A_1  D_1  S_1  
     e( 19 - 20) =     12.42486  eV     2   --> B_1  D_3  S_3  
     e( 21 - 22) =     15.00758  eV     2   --> A_1  D_1  S_1  
     e( 21 - 22) =     15.00758  eV     2   --> B_1  D_3  S_3  
     e( 23 - 24) =     17.93640  eV     2   --> A_1  D_1  S_1  
     e( 23 - 24) =     17.93640  eV     2   --> B_1  D_3  S_3  
     e( 25 - 26) =     20.26187  eV     2   --> A_2  D_2  S_2  
     e( 25 - 26) =     20.26187  eV     2   --> B_2  D_4  S_4  
     e( 27 - 28) =     22.68009  eV     2   --> A_1  D_1  S_1  
     e( 27 - 28) =     22.68009  eV     2   --> B_1  D_3  S_3  
     e( 29 - 30) =     27.98429  eV     2   --> A_1  D_1  S_1  
     e( 29 - 30) =     27.98429  eV     2   --> B_1  D_3  S_3  
     e( 31 - 32) =     29.36019  eV     2   --> A_2  D_2  S_2  
     e( 31 - 32) =     29.36019  eV     2   --> B_2  D_4  S_4  
     e( 33 - 34) =     31.74088  eV     2   --> A_1  D_1  S_1  
     e( 33 - 34) =     31.74088  eV     2   --> B_1  D_3  S_3  
     e( 35 - 36) =     33.07227  eV     2   --> A_2  D_2  S_2  
     e( 35 - 36) =     33.07227  eV     2   --> B_2  D_4  S_4  
     e( 37 - 38) =     36.63611  eV     2   --> A_1  D_1  S_1  
     e( 37 - 38) =     36.63611  eV     2   --> B_1  D_3  S_3  
     e( 39 - 40) =     38.71247  eV     2   --> A_2  D_2  S_2  
     e( 39 - 40) =     38.71247  eV     2   --> B_2  D_4  S_4  
     e( 41 - 42) =     39.65880  eV     2   --> A_1  D_1  S_1  
     e( 41 - 42) =     39.65880  eV     2   --> B_1  D_3  S_3  
     e( 43 - 44) =     41.24878  eV     2   --> A_1  D_1  S_1  
     e( 43 - 44) =     41.24878  eV     2   --> B_1  D_3  S_3  
     e( 45 - 46) =     43.31381  eV     2   --> A_1  D_1  S_1  
     e( 45 - 46) =     43.31381  eV     2   --> B_1  D_3  S_3  
     e( 47 - 48) =     43.75077  eV     2   --> A_2  D_2  S_2  
     e( 47 - 48) =     43.75077  eV     2   --> B_2  D_4  S_4  
     e( 49 - 50) =     45.50031  eV     2   --> A_1  D_1  S_1  
     e( 49 - 50) =     45.50031  eV     2   --> B_1  D_3  S_3  
     e( 51 - 52) =     46.43220  eV     2   --> A_2  D_2  S_2  
     e( 51 - 52) =     46.43220  eV     2   --> B_2  D_4  S_4  
     e( 53 - 54) =     47.84904  eV     2   --> A_1  D_1  S_1  
     e( 53 - 54) =     47.84904  eV     2   --> B_1  D_3  S_3  
     e( 55 - 56) =     49.19029  eV     2   --> A_2  D_2  S_2  
     e( 55 - 56) =     49.19029  eV     2   --> B_2  D_4  S_4  
     e( 57 - 58) =     50.63350  eV     2   --> A_1  D_1  S_1  
     e( 57 - 58) =     50.63350  eV     2   --> B_1  D_3  S_3  
     e( 59 - 60) =     51.40120  eV     2   --> A_1  D_1  S_1  
     e( 59 - 60) =     51.40120  eV     2   --> B_1  D_3  S_3  
     e( 61 - 62) =     55.86106  eV     2   --> A_1  D_1  S_1  
     e( 61 - 62) =     55.86106  eV     2   --> B_1  D_3  S_3  
     e( 63 - 64) =     57.63630  eV     2   --> A_1  D_1  S_1  
     e( 63 - 64) =     57.63630  eV     2   --> B_1  D_3  S_3  
     e( 65 - 66) =     61.14418  eV     2   --> A_2  D_2  S_2  
     e( 65 - 66) =     61.14418  eV     2   --> B_2  D_4  S_4  
     e( 67 - 68) =     61.94367  eV     2   --> A_1  D_1  S_1  
     e( 67 - 68) =     61.94367  eV     2   --> B_1  D_3  S_3  
     e( 69 - 70) =     62.62108  eV     2   --> A_1  D_1  S_1  
     e( 69 - 70) =     62.62108  eV     2   --> B_1  D_3  S_3  
     e( 71 - 72) =     63.85860  eV     2   --> A_2  D_2  S_2  
     e( 71 - 72) =     63.85860  eV     2   --> B_2  D_4  S_4  

 **************************************************************************

 **************************************************************************

                    xk=(   0.40000,   0.23094,   0.30972  )

     point group C_s (m)    
     there are  2 classes
     the character table:

       E     s    
A'     1.00  1.00
A''    1.00 -1.00

     the symmetry operations in each class and the name of the first element:

     E        1
                                                                 
     s        2
                                                                 

     Band symmetry, C_s (m)     point group:

     e(  1 -  2) =    -10.34444  eV     2   -->   2 A'             
     e(  3 -  4) =      0.88472  eV     2   -->   2 A'             
     e(  5 -  6) =      1.65488  eV     2   -->   2 A''            
     e(  7 -  8) =      1.69573  eV     2   -->   2 A'             
     e(  9 - 10) =      2.48113  eV     2   -->   2 A''            
     e( 11 - 12) =      2.51543  eV     2   -->   2 A'             
     e( 13 - 14) =      3.38646  eV     2   -->   2 A'             
     e( 15 - 16) =      5.43535  eV     2   -->   2 A'             
     e( 17 - 18) =      5.44727  eV     2   -->   2 A''            
     e( 19 - 20) =     12.25101  eV     2   -->   2 A'             
     e( 21 - 22) =     15.20655  eV     2   -->   2 A'             
     e( 23 - 24) =     18.00476  eV     2   -->   2 A'             
     e( 25 - 26) =     20.25156  eV     2   -->   2 A''            
     e( 27 - 28) =     22.68888  eV     2   -->   2 A'             
     e( 29 - 30) =     28.13478  eV     2   -->   2 A'             
     e( 31 - 32) =     28.77129  eV     2   -->   2 A''            
     e( 33 - 34) =     31.96399  eV     2   -->   2 A'             
     e( 35 - 36) =     33.26813  eV     2   -->   2 A''            
     e( 37 - 38) =     36.08992  eV     2   -->   2 A'             
     e( 39 - 40) =     38.17683  eV     2   -->   2 A'             
     e( 41 - 42) =     38.91385  eV     2   -->   2 A''            
     e( 43 - 44) =     40.85728  eV     2   -->   2 A'             
     e( 45 - 46) =     42.88701  eV     2   -->   2 A'             
     e( 47 - 48) =     43.03738  eV     2   -->   2 A''            
     e( 49 - 50) =     46.58808  eV     2   -->   2 A'             
     e( 51 - 52) =     47.79736  eV     2   -->   2 A''            
     e( 53 - 54) =     47.99837  eV     2   -->   2 A'             
     e( 55 - 56) =     49.75281  eV     2   -->   2 A''            
     e( 57 - 58) =     50.24616  eV     2   -->   2 A'             
     e( 59 - 60) =     52.76144  eV     2   -->   2 A'             
     e( 61 - 62) =     56.70370  eV     2   -->   2 A'             
     e( 63 - 64) =     57.98304  eV     2   -->   2 A'             
     e( 65 - 66) =     59.95866  eV     2   -->   2 A''            
     e( 67 - 68) =     61.56130  eV     2   -->   2 A'             
     e( 69 - 70) =     62.82804  eV     2   -->   2 A''            
     e( 71 - 72) =     63.29185  eV     2   -->   2 A'             

 **************************************************************************

 **************************************************************************

                    xk=(   0.30000,   0.17321,   0.30972  )

     Band symmetry, C_s (m)     point group:

     e(  1 -  2) =    -10.45298  eV     2   -->   2 A'             
     e(  3 -  4) =      0.90288  eV     2   -->   2 A'             
     e(  5 -  6) =      1.55068  eV     2   -->   2 A'             
     e(  7 -  8) =      1.55669  eV     2   -->   2 A''            
     e(  9 - 10) =      2.44883  eV     2   -->   2 A''            
     e( 11 - 12) =      2.46053  eV     2   -->   2 A'             
     e( 13 - 14) =      3.96442  eV     2   -->   2 A'             
     e( 15 - 16) =      5.43985  eV     2   -->   2 A'             
     e( 17 - 18) =      5.72152  eV     2   -->   2 A''            
     e( 19 - 20) =     11.77289  eV     2   -->   2 A'             
     e( 21 - 22) =     15.75743  eV     2   -->   2 A'             
     e( 23 - 24) =     18.10842  eV     2   -->   2 A'             
     e( 25 - 26) =     20.19627  eV     2   -->   2 A''            
     e( 27 - 28) =     23.01539  eV     2   -->   2 A'             
     e( 29 - 30) =     27.75632  eV     2   -->   2 A''            
     e( 31 - 32) =     28.47182  eV     2   -->   2 A'             
     e( 33 - 34) =     31.73707  eV     2   -->   2 A'             
     e( 35 - 36) =     33.16675  eV     2   -->   2 A''            
     e( 37 - 38) =     34.77138  eV     2   -->   2 A'             
     e( 39 - 40) =     36.69135  eV     2   -->   2 A'             
     e( 41 - 42) =     38.80844  eV     2   -->   2 A''            
     e( 43 - 44) =     39.14123  eV     2   -->   2 A'             
     e( 45 - 46) =     42.87103  eV     2   -->   2 A'             
     e( 47 - 48) =     43.75089  eV     2   -->   2 A''            
     e( 49 - 50) =     45.30522  eV     2   -->   2 A'             
     e( 51 - 52) =     48.76686  eV     2   -->   2 A''            
     e( 53 - 54) =     49.99954  eV     2   -->   2 A'             
     e( 55 - 56) =     51.89311  eV     2   -->   2 A'             
     e( 57 - 58) =     52.37733  eV     2   -->   2 A''            
     e( 59 - 60) =     55.04407  eV     2   -->   2 A'             
     e( 61 - 62) =     57.25160  eV     2   -->   2 A'             
     e( 63 - 64) =     57.68371  eV     2   -->   2 A''            
     e( 65 - 66) =     58.73955  eV     2   -->   2 A'             
     e( 67 - 68) =     61.37382  eV     2   -->   2 A'             
     e( 69 - 70) =     62.62371  eV     2   -->   2 A''            
     e( 71 - 72) =     64.44314  eV     2   -->   2 A'             

 **************************************************************************

 **************************************************************************

                    xk=(   0.20000,   0.11547,   0.30972  )

     Band symmetry, C_s (m)     point group:

     e(  1 -  2) =    -10.58361  eV     2   -->   2 A'             
     e(  3 -  4) =      0.95820  eV     2   -->   2 A'             
     e(  5 -  6) =      1.41919  eV     2   -->   2 A'             
     e(  7 -  8) =      1.43339  eV     2   -->   2 A''            
     e(  9 - 10) =      2.43368  eV     2   -->   2 A''            
     e( 11 - 12) =      2.43989  eV     2   -->   2 A'             
     e( 13 - 14) =      4.41620  eV     2   -->   2 A'             
     e( 15 - 16) =      5.65772  eV     2   -->   2 A'             
     e( 17 - 18) =      6.04558  eV     2   -->   2 A''            
     e( 19 - 20) =     11.10298  eV     2   -->   2 A'             
     e( 21 - 22) =     16.40458  eV     2   -->   2 A'             
     e( 23 - 24) =     18.35678  eV     2   -->   2 A'             
     e( 25 - 26) =     20.06172  eV     2   -->   2 A''            
     e( 27 - 28) =     23.91209  eV     2   -->   2 A'             
     e( 29 - 30) =     27.03630  eV     2   -->   2 A''            
     e( 31 - 32) =     28.63461  eV     2   -->   2 A'             
     e( 33 - 34) =     29.88915  eV     2   -->   2 A'             
     e( 35 - 36) =     32.49518  eV     2   -->   2 A''            
     e( 37 - 38) =     34.13833  eV     2   -->   2 A'             
     e( 39 - 40) =     35.93639  eV     2   -->   2 A'             
     e( 41 - 42) =     37.83634  eV     2   -->   2 A'             
     e( 43 - 44) =     38.36734  eV     2   -->   2 A''            
     e( 45 - 46) =     40.99156  eV     2   -->   2 A'             
     e( 47 - 48) =     46.37960  eV     2   -->   2 A''            
     e( 49 - 50) =     46.66062  eV     2   -->   2 A'             
     e( 51 - 52) =     49.42740  eV     2   -->   2 A''            
     e( 53 - 54) =     51.02962  eV     2   -->   2 A'             
     e( 55 - 56) =     53.74697  eV     2   -->   2 A'             
     e( 57 - 58) =     54.96864  eV     2   -->   2 A''            
     e( 59 - 60) =     55.97329  eV     2   -->   2 A'             
     e( 61 - 62) =     56.70756  eV     2   -->   2 A''            
     e( 63 - 64) =     57.51424  eV     2   -->   2 A'             
     e( 65 - 66) =     60.36135  eV     2   -->   2 A'             
     e( 67 - 68) =     61.70860  eV     2   -->   2 A'             
     e( 69 - 70) =     61.94756  eV     2   -->   2 A''            
     e( 71 - 72) =     63.89073  eV     2   -->   2 A'             

 **************************************************************************

 **************************************************************************

                    xk=(   0.10000,   0.05774,   0.30972  )

     Band symmetry, C_s (m)     point group:

     e(  1 -  2) =    -10.68659  eV     2   -->   2 A'             
     e(  3 -  4) =      1.02495  eV     2   -->   2 A'             
     e(  5 -  6) =      1.33037  eV     2   -->   2 A'             
     e(  7 -  8) =      1.33550  eV     2   -->   2 A''            
     e(  9 - 10) =      2.43331  eV     2   -->   2 A''            
     e( 11 - 12) =      2.43506  eV     2   -->   2 A'             
     e( 13 - 14) =      4.54120  eV     2   -->   2 A'             
     e( 15 - 16) =      6.13451  eV     2   -->   2 A'             
     e( 17 - 18) =      6.30112  eV     2   -->   2 A''            
     e( 19 - 20) =     10.44363  eV     2   -->   2 A'             
     e( 21 - 22) =     16.67699  eV     2   -->   2 A'             
     e( 23 - 24) =     19.17625  eV     2   -->   2 A'             
     e( 25 - 26) =     19.89236  eV     2   -->   2 A''            
     e( 27 - 28) =     24.84663  eV     2   -->   2 A'             
     e( 29 - 30) =     26.74689  eV     2   -->   2 A''            
     e( 31 - 32) =     27.10824  eV     2   -->   2 A'             
     e( 33 - 34) =     30.00243  eV     2   -->   2 A'             
     e( 35 - 36) =     31.72973  eV     2   -->   2 A''            
     e( 37 - 38) =     32.65403  eV     2   -->   2 A'             
     e( 39 - 40) =     35.29009  eV     2   -->   2 A'             
     e( 41 - 42) =     37.62595  eV     2   -->   2 A'             
     e( 43 - 44) =     38.10766  eV     2   -->   2 A''            
     e( 45 - 46) =     39.84558  eV     2   -->   2 A'             
     e( 47 - 48) =     48.83164  eV     2   -->   2 A'             
     e( 49 - 50) =     49.23120  eV     2   -->   2 A''            
     e( 51 - 52) =     50.90176  eV     2   -->   2 A''            
     e( 53 - 54) =     51.36887  eV     2   -->   2 A'             
     e( 55 - 56) =     53.55515  eV     2   -->   2 A''            
     e( 57 - 58) =     53.93338  eV     2   -->   2 A'             
     e( 59 - 60) =     55.60664  eV     2   -->   2 A'             
     e( 61 - 62) =     57.53345  eV     2   -->   2 A'             
     e( 63 - 64) =     58.74521  eV     2   -->   2 A''            
     e( 65 - 66) =     60.84243  eV     2   -->   2 A'             
     e( 67 - 68) =     61.10401  eV     2   -->   2 A''            
     e( 69 - 70) =     62.31928  eV     2   -->   2 A'             
     e( 71 - 72) =     64.64159  eV     2   -->   2 A''            

 **************************************************************************

 **************************************************************************

                    xk=(   0.00000,   0.00000,   0.30972  )

     point group C_6v (6mm) 
     there are  6 classes
     the character table:

       E     2C6   2C3   C2    3s_v  3s_d 
A_1    1.00  1.00  1.00  1.00  1.00  1.00
A_2    1.00  1.00  1.00  1.00 -1.00 -1.00
B_1    1.00 -1.00  1.00 -1.00  1.00 -1.00
B_2    1.00 -1.00  1.00 -1.00 -1.00  1.00
E_1    2.00  1.00 -1.00 -2.00  0.00  0.00
E_2    2.00 -1.00 -1.00  2.00  0.00  0.00

     the symmetry operations in each class and the name of the first element:

     E        1
                                                                 
     2C6      3    4
                                                                 
     2C3      5    6
                                                                 
     C2       2
                                                                 
     3s_v     8   12   11
                                                                 
     3s_d     7    9   10
                                                                 

     Band symmetry, C_6v (6mm)  point group:

     e(  1 -  2) =    -10.72531  eV     2   --> A_1            
     e(  1 -  2) =    -10.72531  eV     2   --> B_1            
     e(  3 -  4) =      1.05510  eV     2   --> A_1            
     e(  3 -  4) =      1.05510  eV     2   --> B_1            
     e(  5 -  8) =      1.29888  eV     4   --> E_1            
     e(  5 -  8) =      1.29888  eV     4   --> E_2            
     e(  9 - 12) =      2.43503  eV     4   --> E_1            
     e(  9 - 12) =      2.43503  eV     4   --> E_2            
     e( 13 - 14) =      4.54770  eV     2   --> A_1            
     e( 13 - 14) =      4.54770  eV     2   --> B_1            
     e( 15 - 18) =      6.39796  eV     4   --> E_1            
     e( 15 - 18) =      6.39796  eV     4   --> E_2            
     e( 19 - 20) =     10.14108  eV     2   --> A_1            
     e( 19 - 20) =     10.14108  eV     2   --> B_1            
     e( 21 - 22) =     16.70158  eV     2   --> A_1            
     e( 21 - 22) =     16.70158  eV     2   --> B_1            
     e( 23 - 26) =     19.81288  eV     4   --> E_1            
     e( 23 - 26) =     19.81288  eV     4   --> E_2            
     e( 27 - 28) =     24.76911  eV     2   --> A_1            
     e( 27 - 28) =     24.76911  eV     2   --> B_1            
     e( 29 - 32) =     26.70038  eV     4   --> E_1            
     e( 29 - 32) =     26.70038  eV     4   --> E_2            
     e( 33 - 34) =     30.83329  eV     2   --> A_1            
     e( 33 - 34) =     30.83329  eV     2   --> B_1            
     e( 35 - 38) =     31.39753  eV     4   --> E_1            
     e( 35 - 38) =     31.39753  eV     4   --> E_2            
     e( 39 - 40) =     34.61608  eV     2   --> A_1            
     e( 39 - 40) =     34.61608  eV     2   --> B_1            
     e( 41 - 44) =     38.03248  eV     4   --> E_1            
     e( 41 - 44) =     38.03248  eV     4   --> E_2            
     e( 45 - 46) =     39.42425  eV     2   --> A_1            
     e( 45 - 46) =     39.42425  eV     2   --> B_1            
     e( 47 - 50) =     50.07418  eV     4   --> E_1            
     e( 47 - 50) =     50.07418  eV     4   --> E_2            
     e( 51 - 52) =     52.34624  eV     2   --> A_1            
     e( 51 - 52) =     52.34624  eV     2   --> B_1            
     e( 53 - 56) =     52.54888  eV     4   --> E_1            
     e( 53 - 56) =     52.54888  eV     4   --> E_2            
     e( 57 - 58) =     54.29384  eV     2   --> A_2            
     e( 57 - 58) =     54.29384  eV     2   --> B_2            
     e( 59 - 62) =     55.38116  eV     4   --> E_1            
     e( 59 - 62) =     55.38116  eV     4   --> E_2            
     e( 63 - 64) =     56.75201  eV     2   --> A_1            
     e( 63 - 64) =     56.75201  eV     2   --> B_1            
     e( 65 - 66) =     61.91901  eV     2   --> A_1            
     e( 65 - 66) =     61.91901  eV     2   --> B_1            
     e( 67 - 70) =     63.29912  eV     4   --> E_1            
     e( 67 - 70) =     63.29912  eV     4   --> E_2            
     e( 71 - 72) =     65.19559  eV     2   --> A_1            
     e( 71 - 72) =     65.19559  eV     2   --> B_1            

 **************************************************************************

 **************************************************************************

                    xk=(   0.00000,   0.00000,   0.24778  )

     Band symmetry, C_6v (6mm)  point group:

     e(  1 -  1) =    -10.82781  eV     1   --> A_1            
     e(  2 -  2) =    -10.62113  eV     1   --> B_1            
     e(  3 -  3) =      1.06118  eV     1   --> B_1            
     e(  4 -  4) =      1.08907  eV     1   --> A_1            
     e(  5 -  6) =      1.27321  eV     2   --> E_1            
     e(  7 -  8) =      1.32889  eV     2   --> E_2            
     e(  9 - 10) =      2.40279  eV     2   --> E_1            
     e( 11 - 12) =      2.46362  eV     2   --> E_2            
     e( 13 - 13) =      4.07293  eV     1   --> B_1            
     e( 14 - 14) =      5.02517  eV     1   --> A_1            
     e( 15 - 16) =      6.28101  eV     2   --> E_2            
     e( 17 - 18) =      6.51402  eV     2   --> E_1            
     e( 19 - 19) =      9.54870  eV     1   --> A_1            
     e( 20 - 20) =     10.69131  eV     1   --> B_1            
     e( 21 - 21) =     16.04104  eV     1   --> B_1            
     e( 22 - 22) =     17.49815  eV     1   --> A_1            
     e( 23 - 24) =     19.66956  eV     2   --> E_1            
     e( 25 - 26) =     20.01083  eV     2   --> E_2            
     e( 27 - 27) =     24.31684  eV     1   --> A_1            
     e( 28 - 28) =     25.25890  eV     1   --> B_1            
     e( 29 - 30) =     26.16142  eV     2   --> E_1            
     e( 31 - 32) =     27.07759  eV     2   --> E_2            
     e( 33 - 33) =     30.25366  eV     1   --> B_1            
     e( 34 - 35) =     30.77864  eV     2   --> E_2            
     e( 36 - 36) =     31.10709  eV     1   --> A_1            
     e( 37 - 38) =     32.26849  eV     2   --> E_1            
     e( 39 - 39) =     33.51559  eV     1   --> A_1            
     e( 40 - 40) =     35.46526  eV     1   --> B_1            
     e( 41 - 42) =     37.88896  eV     2   --> E_2            
     e( 43 - 44) =     38.24532  eV     2   --> E_1            
     e( 45 - 45) =     39.56618  eV     1   --> B_1            
     e( 46 - 46) =     40.01731  eV     1   --> A_1            
     e( 47 - 48) =     48.54036  eV     2   --> E_2            
     e( 49 - 50) =     49.79683  eV     2   --> E_1            
     e( 51 - 51) =     50.98945  eV     1   --> A_1            
     e( 52 - 53) =     52.31818  eV     2   --> E_1            
     e( 54 - 54) =     53.50980  eV     1   --> B_1            
     e( 55 - 55) =     53.89913  eV     1   --> B_2            
     e( 56 - 57) =     54.57479  eV     2   --> E_2            
     e( 58 - 58) =     54.75168  eV     1   --> A_2            
     e( 59 - 60) =     55.36509  eV     2   --> E_2            
     e( 61 - 62) =     55.77140  eV     2   --> E_1            
     e( 63 - 63) =     56.39549  eV     1   --> A_1            
     e( 64 - 64) =     57.31819  eV     1   --> B_1            
     e( 65 - 65) =     60.27759  eV     1   --> B_1            
     e( 66 - 66) =     62.25280  eV     1   --> A_1            
     e( 67 - 68) =     63.04936  eV     2   --> E_2            
     e( 69 - 70) =     63.46007  eV     2   --> E_1            
     e( 71 - 71) =     64.36413  eV     1   --> B_1            
     e( 72 - 72) =     64.82308  eV     1   -->   ?

 **************************************************************************

 **************************************************************************

                    xk=(   0.00000,   0.00000,   0.18583  )

     Band symmetry, C_6v (6mm)  point group:

     e(  1 -  1) =    -10.91885  eV     1   --> A_1            
     e(  2 -  2) =    -10.52568  eV     1   --> B_1            
     e(  3 -  3) =      1.11631  eV     1   --> B_1            
     e(  4 -  4) =      1.14651  eV     1   --> A_1            
     e(  5 -  6) =      1.25363  eV     2   --> E_1            
     e(  7 -  8) =      1.35994  eV     2   --> E_2            
     e(  9 - 10) =      2.37074  eV     2   --> E_1            
     e( 11 - 12) =      2.48601  eV     2   --> E_2            
     e( 13 - 13) =      3.61607  eV     1   --> B_1            
     e( 14 - 14) =      5.50038  eV     1   --> A_1            
     e( 15 - 16) =      6.17479  eV     2   --> E_2            
     e( 17 - 18) =      6.61799  eV     2   --> E_1            
     e( 19 - 19) =      8.94115  eV     1   --> A_1            
     e( 20 - 20) =     11.17118  eV     1   --> B_1            
     e( 21 - 21) =     15.52401  eV     1   --> B_1            
     e( 22 - 22) =     18.40365  eV     1   --> A_1            
     e( 23 - 24) =     19.58318  eV     2   --> E_1            
     e( 25 - 26) =     20.24562  eV     2   --> E_2            
     e( 27 - 27) =     23.92309  eV     1   --> A_1            
     e( 28 - 29) =     25.61954  eV     2   --> E_1            
     e( 30 - 30) =     25.73461  eV     1   --> B_1            
     e( 31 - 32) =     27.11295  eV     2   --> E_2            
     e( 33 - 33) =     29.77796  eV     1   --> B_1            
     e( 34 - 34) =     30.25086  eV     1   --> A_1            
     e( 35 - 36) =     30.60421  eV     2   --> E_2            
     e( 37 - 38) =     33.18213  eV     2   --> E_1            
     e( 39 - 39) =     33.53036  eV     1   --> A_1            
     e( 40 - 40) =     35.23095  eV     1   --> B_1            
     e( 41 - 42) =     37.76532  eV     2   --> E_2            
     e( 43 - 44) =     38.60855  eV     2   --> E_1            
     e( 45 - 45) =     40.66933  eV     1   --> A_1            
     e( 46 - 46) =     41.00053  eV     1   --> B_1            
     e( 47 - 48) =     47.15261  eV     2   --> E_2            
     e( 49 - 50) =     47.70286  eV     2   --> E_1            
     e( 51 - 51) =     49.72071  eV     1   --> A_1            
     e( 52 - 52) =     53.58230  eV     1   --> B_2            
     e( 53 - 53) =     54.09634  eV     1   --> B_1            
     e( 54 - 55) =     54.11838  eV     2   --> E_1            
     e( 56 - 57) =     54.63652  eV     2   --> E_2            
     e( 58 - 58) =     55.24552  eV     1   --> A_2            
     e( 59 - 59) =     56.18342  eV     1   --> A_1            
     e( 60 - 61) =     56.22872  eV     2   --> E_1            
     e( 62 - 62) =     57.58392  eV     1   --> B_1            
     e( 63 - 64) =     57.58428  eV     2   --> E_2            
     e( 65 - 65) =     58.64281  eV     1   --> B_1            
     e( 66 - 66) =     61.92780  eV     1   --> A_1            
     e( 67 - 68) =     62.82243  eV     2   --> E_2            
     e( 69 - 70) =     63.18699  eV     2   --> E_1            
     e( 71 - 71) =     63.84507  eV     1   --> A_2            
     e( 72 - 72) =     64.14191  eV     1   -->   ?

 **************************************************************************

 **************************************************************************

                    xk=(   0.00000,   0.00000,   0.12389  )

     Band symmetry, C_6v (6mm)  point group:

     e(  1 -  1) =    -10.99017  eV     1   --> A_1            
     e(  2 -  2) =    -10.44893  eV     1   --> B_1            
     e(  3 -  3) =      1.20756  eV     1   --> A_1            
     e(  4 -  4) =      1.21569  eV     1   --> B_1            
     e(  5 -  6) =      1.24040  eV     2   --> E_1            
     e(  7 -  8) =      1.38748  eV     2   --> E_2            
     e(  9 - 10) =      2.34335  eV     2   --> E_1            
     e( 11 - 12) =      2.50127  eV     2   --> E_2            
     e( 13 - 13) =      3.20705  eV     1   --> B_1            
     e( 14 - 14) =      5.97256  eV     1   --> A_1            
     e( 15 - 16) =      6.09000  eV     2   --> E_2            
     e( 17 - 18) =      6.69983  eV     2   --> E_1            
     e( 19 - 19) =      8.34616  eV     1   --> A_1            
     e( 20 - 20) =     11.55065  eV     1   --> B_1            
[...]
     e( 48 - 48) =     43.78766  eV     1   --> A              
     e( 49 - 49) =     44.91481  eV     1   --> A              
     e( 50 - 50) =     46.75488  eV     1   --> A              
     e( 51 - 51) =     47.24389  eV     1   --> A              
     e( 52 - 52) =     48.90529  eV     1   --> A              
     e( 53 - 53) =     49.42247  eV     1   --> A              
     e( 54 - 54) =     49.90121  eV     1   --> A              
     e( 55 - 55) =     50.48178  eV     1   --> A              
     e( 56 - 56) =     50.55368  eV     1   --> A              
     e( 57 - 57) =     52.57875  eV     1   --> A              
     e( 58 - 58) =     52.63714  eV     1   --> A              
     e( 59 - 59) =     53.49477  eV     1   --> A              
     e( 60 - 60) =     54.82258  eV     1   --> A              
     e( 61 - 61) =     56.50375  eV     1   --> A              
     e( 62 - 62) =     56.93678  eV     1   --> A              
     e( 63 - 63) =     57.17569  eV     1   --> A              
     e( 64 - 64) =     58.22436  eV     1   --> A              
     e( 65 - 65) =     58.90265  eV     1   --> A              
     e( 66 - 66) =     60.15646  eV     1   --> A              
     e( 67 - 67) =     60.99632  eV     1   --> A              
     e( 68 - 68) =     61.50825  eV     1   --> A              
     e( 69 - 69) =     62.57885  eV     1   --> A              
     e( 70 - 70) =     63.19447  eV     1   --> A              
     e( 71 - 71) =     63.50249  eV     1   --> A              
     e( 72 - 72) =     64.15515  eV     1   --> A              

 **************************************************************************

 **************************************************************************

                    xk=(   0.66660,   0.76972,   0.30972  )

     Band symmetry, C_1 (1)     point group:

     e(  1 -  2) =    -10.41182  eV     2   -->   2 A              
     e(  3 -  4) =      0.89280  eV     2   -->   2 A              
     e(  5 -  6) =      1.59464  eV     2   -->   2 A              
     e(  7 -  8) =      1.59999  eV     2   -->   2 A              
     e(  9 - 10) =      2.45846  eV     2   -->   2 A              
     e( 11 - 12) =      2.47379  eV     2   -->   2 A              
     e( 13 - 14) =      3.76593  eV     2   -->   2 A              
     e( 15 - 16) =      5.42750  eV     2   -->   2 A              
     e( 17 - 18) =      5.61836  eV     2   -->   2 A              
     e( 19 - 20) =     11.96050  eV     2   -->   2 A              
     e( 21 - 22) =     15.54301  eV     2   -->   2 A              
     e( 23 - 24) =     18.07566  eV     2   -->   2 A              
     e( 25 - 26) =     20.22257  eV     2   -->   2 A              
     e( 27 - 28) =     22.84316  eV     2   -->   2 A              
     e( 29 - 30) =     28.08284  eV     2   -->   2 A              
     e( 31 - 32) =     28.34960  eV     2   -->   2 A              
     e( 33 - 34) =     32.01760  eV     2   -->   2 A              
     e( 35 - 36) =     33.27447  eV     2   -->   2 A              
     e( 37 - 38) =     35.12597  eV     2   -->   2 A              
     e( 39 - 40) =     37.13233  eV     2   -->   2 A              
     e( 41 - 42) =     38.92298  eV     2   -->   2 A              
     e( 43 - 44) =     39.67786  eV     2   -->   2 A              
     e( 45 - 46) =     43.11598  eV     2   -->   2 A              
     e( 47 - 48) =     43.23798  eV     2   -->   2 A              
     e( 49 - 50) =     45.57162  eV     2   -->   2 A              
     e( 51 - 52) =     48.54588  eV     2   -->   2 A              
     e( 53 - 54) =     49.16398  eV     2   -->   2 A              
     e( 55 - 56) =     51.30503  eV     2   -->   2 A              
     e( 57 - 58) =     51.52501  eV     2   -->   2 A              
     e( 59 - 60) =     54.13367  eV     2   -->   2 A              
     e( 61 - 62) =     57.03146  eV     2   -->   2 A              
     e( 63 - 64) =     58.44438  eV     2   -->   2 A              
     e( 65 - 66) =     58.63071  eV     2   -->   2 A              
     e( 67 - 68) =     61.33685  eV     2   -->   2 A              
     e( 69 - 70) =     62.68808  eV     2   -->   2 A              
     e( 71 - 72) =     64.15241  eV     2   -->   2 A              

 **************************************************************************

 **************************************************************************

                    xk=(   0.53330,   0.61574,   0.30972  )

     Band symmetry, C_1 (1)     point group:

     e(  1 -  2) =    -10.32916  eV     2   -->   2 A              
     e(  3 -  4) =      1.02510  eV     2   -->   2 A              
     e(  5 -  6) =      1.53455  eV     2   -->   2 A              
     e(  7 -  8) =      1.72327  eV     2   -->   2 A              
     e(  9 - 10) =      2.44344  eV     2   -->   2 A              
     e( 11 - 12) =      2.58821  eV     2   -->   2 A              
     e( 13 - 14) =      3.52572  eV     2   -->   2 A              
     e( 15 - 16) =      4.84954  eV     2   -->   2 A              
     e( 17 - 18) =      5.53735  eV     2   -->   2 A              
     e( 19 - 20) =     12.82834  eV     2   -->   2 A              
     e( 21 - 22) =     15.45982  eV     2   -->   2 A              
     e( 23 - 24) =     16.85071  eV     2   -->   2 A              
     e( 25 - 26) =     20.65016  eV     2   -->   2 A              
     e( 27 - 28) =     23.34646  eV     2   -->   2 A              
     e( 29 - 30) =     26.55697  eV     2   -->   2 A              
     e( 31 - 32) =     29.62915  eV     2   -->   2 A              
     e( 33 - 34) =     31.77437  eV     2   -->   2 A              
     e( 35 - 36) =     34.05506  eV     2   -->   2 A              
     e( 37 - 38) =     36.65071  eV     2   -->   2 A              
     e( 39 - 40) =     37.44585  eV     2   -->   2 A              
     e( 41 - 42) =     38.78660  eV     2   -->   2 A              
     e( 43 - 44) =     40.69044  eV     2   -->   2 A              
     e( 45 - 46) =     42.94294  eV     2   -->   2 A              
     e( 47 - 48) =     44.31980  eV     2   -->   2 A              
     e( 49 - 50) =     45.35674  eV     2   -->   2 A              
     e( 51 - 52) =     47.06534  eV     2   -->   2 A              
     e( 53 - 54) =     48.79050  eV     2   -->   2 A              
     e( 55 - 56) =     50.30664  eV     2   -->   2 A              
     e( 57 - 58) =     52.08655  eV     2   -->   2 A              
     e( 59 - 60) =     53.36577  eV     2   -->   2 A              
     e( 61 - 62) =     55.40820  eV     2   -->   2 A              
     e( 63 - 64) =     56.76008  eV     2   -->   2 A              
     e( 65 - 66) =     58.35782  eV     2   -->   2 A              
     e( 67 - 68) =     60.10716  eV     2   -->   2 A              
     e( 69 - 70) =     61.46764  eV     2   -->   2 A              
     e( 71 - 72) =     62.74935  eV     2   -->   2 A              

 **************************************************************************

 **************************************************************************

                    xk=(   0.39990,   0.46171,   0.30972  )

     Band symmetry, C_1 (1)     point group:

     e(  1 -  2) =    -10.27078  eV     2   -->   2 A              
     e(  3 -  4) =      1.08926  eV     2   -->   2 A              
     e(  5 -  6) =      1.55642  eV     2   -->   2 A              
     e(  7 -  8) =      1.85917  eV     2   -->   2 A              
     e(  9 - 10) =      2.40809  eV     2   -->   2 A              
     e( 11 - 12) =      2.72507  eV     2   -->   2 A              
     e( 13 - 14) =      3.13335  eV     2   -->   2 A              
     e( 15 - 16) =      4.56481  eV     2   -->   2 A              
     e( 17 - 18) =      5.56019  eV     2   -->   2 A              
     e( 19 - 20) =     13.44242  eV     2   -->   2 A              
     e( 21 - 22) =     15.06456  eV     2   -->   2 A              
     e( 23 - 24) =     16.39322  eV     2   -->   2 A              
     e( 25 - 26) =     21.25109  eV     2   -->   2 A              
     e( 27 - 28) =     22.89386  eV     2   -->   2 A              
     e( 29 - 30) =     26.77789  eV     2   -->   2 A              
     e( 31 - 32) =     29.27104  eV     2   -->   2 A              
     e( 33 - 34) =     32.40015  eV     2   -->   2 A              
     e( 35 - 36) =     34.06763  eV     2   -->   2 A              
     e( 37 - 38) =     36.12059  eV     2   -->   2 A              
     e( 39 - 40) =     39.02759  eV     2   -->   2 A              
     e( 41 - 42) =     39.96352  eV     2   -->   2 A              
     e( 43 - 44) =     41.99696  eV     2   -->   2 A              
     e( 45 - 46) =     42.58782  eV     2   -->   2 A              
     e( 47 - 48) =     43.53326  eV     2   -->   2 A              
     e( 49 - 50) =     44.99873  eV     2   -->   2 A              
     e( 51 - 52) =     47.02370  eV     2   -->   2 A              
     e( 53 - 54) =     48.61311  eV     2   -->   2 A              
     e( 55 - 56) =     49.46762  eV     2   -->   2 A              
     e( 57 - 58) =     51.61457  eV     2   -->   2 A              
     e( 59 - 60) =     53.09884  eV     2   -->   2 A              
     e( 61 - 62) =     54.02604  eV     2   -->   2 A              
     e( 63 - 64) =     56.20063  eV     2   -->   2 A              
     e( 65 - 66) =     56.67464  eV     2   -->   2 A              
     e( 67 - 68) =     60.48346  eV     2   -->   2 A              
     e( 69 - 70) =     61.64375  eV     2   -->   2 A              
     e( 71 - 72) =     62.40772  eV     2   -->   2 A              

 **************************************************************************

 **************************************************************************

                    xk=(   0.26660,   0.30784,   0.30972  )

     Band symmetry, C_1 (1)     point group:

     e(  1 -  2) =    -10.38621  eV     2   -->   2 A              
     e(  3 -  4) =      0.95147  eV     2   -->   2 A              
     e(  5 -  6) =      1.52815  eV     2   -->   2 A              
     e(  7 -  8) =      1.65945  eV     2   -->   2 A              
     e(  9 - 10) =      2.44975  eV     2   -->   2 A              
     e( 11 - 12) =      2.51437  eV     2   -->   2 A              
     e( 13 - 14) =      3.74221  eV     2   -->   2 A              
     e( 15 - 16) =      5.22212  eV     2   -->   2 A              
     e( 17 - 18) =      5.53393  eV     2   -->   2 A              
     e( 19 - 20) =     12.28946  eV     2   -->   2 A              
     e( 21 - 22) =     15.59351  eV     2   -->   2 A              
     e( 23 - 24) =     17.51936  eV     2   -->   2 A              
     e( 25 - 26) =     20.27756  eV     2   -->   2 A              
     e( 27 - 28) =     23.36743  eV     2   -->   2 A              
     e( 29 - 30) =     26.74202  eV     2   -->   2 A              
     e( 31 - 32) =     29.40360  eV     2   -->   2 A              
     e( 33 - 34) =     32.12080  eV     2   -->   2 A              
     e( 35 - 36) =     33.31558  eV     2   -->   2 A              
     e( 37 - 38) =     35.96201  eV     2   -->   2 A              
     e( 39 - 40) =     36.85614  eV     2   -->   2 A              
     e( 41 - 42) =     38.23343  eV     2   -->   2 A              
     e( 43 - 44) =     41.00338  eV     2   -->   2 A              
     e( 45 - 46) =     42.35222  eV     2   -->   2 A              
     e( 47 - 48) =     43.98436  eV     2   -->   2 A              
     e( 49 - 50) =     45.62660  eV     2   -->   2 A              
     e( 51 - 52) =     47.69547  eV     2   -->   2 A              
     e( 53 - 54) =     48.89620  eV     2   -->   2 A              
     e( 55 - 56) =     50.64610  eV     2   -->   2 A              
     e( 57 - 58) =     52.70129  eV     2   -->   2 A              
     e( 59 - 60) =     54.55442  eV     2   -->   2 A              
     e( 61 - 62) =     55.88874  eV     2   -->   2 A              
     e( 63 - 64) =     57.59378  eV     2   -->   2 A              
     e( 65 - 66) =     59.09147  eV     2   -->   2 A              
     e( 67 - 68) =     60.57845  eV     2   -->   2 A              
     e( 69 - 70) =     61.69702  eV     2   -->   2 A              
     e( 71 - 72) =     63.03001  eV     2   -->   2 A              

 **************************************************************************

 **************************************************************************

                    xk=(   0.13330,   0.15386,   0.30972  )

     Band symmetry, C_1 (1)     point group:

     e(  1 -  2) =    -10.61214  eV     2   -->   2 A              
     e(  3 -  4) =      0.97866  eV     2   -->   2 A              
     e(  5 -  6) =      1.37084  eV     2   -->   2 A              
     e(  7 -  8) =      1.42500  eV     2   -->   2 A              
     e(  9 - 10) =      2.43156  eV     2   -->   2 A              
     e( 11 - 12) =      2.43942  eV     2   -->   2 A              
     e( 13 - 14) =      4.47394  eV     2   -->   2 A              
     e( 15 - 16) =      5.77326  eV     2   -->   2 A              
     e( 17 - 18) =      6.09262  eV     2   -->   2 A              
     e( 19 - 20) =     10.94398  eV     2   -->   2 A              
     e( 21 - 22) =     16.52571  eV     2   -->   2 A              
     e( 23 - 24) =     18.48808  eV     2   -->   2 A              
     e( 25 - 26) =     19.97415  eV     2   -->   2 A              
     e( 27 - 28) =     24.40887  eV     2   -->   2 A              
     e( 29 - 30) =     26.41354  eV     2   -->   2 A              
     e( 31 - 32) =     28.75021  eV     2   -->   2 A              
     e( 33 - 34) =     29.83456  eV     2   -->   2 A              
     e( 35 - 36) =     32.01602  eV     2   -->   2 A              
     e( 37 - 38) =     33.87440  eV     2   -->   2 A              
     e( 39 - 40) =     36.05325  eV     2   -->   2 A              
     e( 41 - 42) =     37.37764  eV     2   -->   2 A              
     e( 43 - 44) =     38.44748  eV     2   -->   2 A              
     e( 45 - 46) =     40.61772  eV     2   -->   2 A              
     e( 47 - 48) =     46.71740  eV     2   -->   2 A              
     e( 49 - 50) =     47.79831  eV     2   -->   2 A              
     e( 51 - 52) =     49.27907  eV     2   -->   2 A              
     e( 53 - 54) =     51.33162  eV     2   -->   2 A              
     e( 55 - 56) =     53.77474  eV     2   -->   2 A              
     e( 57 - 58) =     54.62988  eV     2   -->   2 A              
     e( 59 - 60) =     56.20628  eV     2   -->   2 A              
     e( 61 - 62) =     56.62014  eV     2   -->   2 A              
     e( 63 - 64) =     58.96728  eV     2   -->   2 A              
     e( 65 - 66) =     60.42626  eV     2   -->   2 A              
     e( 67 - 68) =     61.12681  eV     2   -->   2 A              
     e( 69 - 70) =     62.07914  eV     2   -->   2 A              
     e( 71 - 72) =     64.11248  eV     2   -->   2 A              

 **************************************************************************

 **************************************************************************

                    xk=(   0.00000,   0.00000,   0.30972  )

     point group C_6v (6mm) 
     there are  6 classes
     the character table:

       E     2C6   2C3   C2    3s_v  3s_d 
A_1    1.00  1.00  1.00  1.00  1.00  1.00
A_2    1.00  1.00  1.00  1.00 -1.00 -1.00
B_1    1.00 -1.00  1.00 -1.00  1.00 -1.00
B_2    1.00 -1.00  1.00 -1.00 -1.00  1.00
E_1    2.00  1.00 -1.00 -2.00  0.00  0.00
E_2    2.00 -1.00 -1.00  2.00  0.00  0.00

     the symmetry operations in each class and the name of the first element:

     E        1
                                                                 
     2C6      3    4
                                                                 
     2C3      5    6
                                                                 
     C2       2
                                                                 
     3s_v     8   12   11
                                                                 
     3s_d     7    9   10
                                                                 

     Band symmetry, C_6v (6mm)  point group:

     e(  1 -  2) =    -10.72531  eV     2   --> A_1            
     e(  1 -  2) =    -10.72531  eV     2   --> B_1            
     e(  3 -  4) =      1.05510  eV     2   --> A_1            
     e(  3 -  4) =      1.05510  eV     2   --> B_1            
     e(  5 -  8) =      1.29888  eV     4   --> E_1            
     e(  5 -  8) =      1.29888  eV     4   --> E_2            
     e(  9 - 12) =      2.43503  eV     4   --> E_1            
     e(  9 - 12) =      2.43503  eV     4   --> E_2            
     e( 13 - 14) =      4.54770  eV     2   --> A_1            
     e( 13 - 14) =      4.54770  eV     2   --> B_1            
     e( 15 - 18) =      6.39796  eV     4   --> E_1            
     e( 15 - 18) =      6.39796  eV     4   --> E_2            
     e( 19 - 20) =     10.14108  eV     2   --> A_1            
     e( 19 - 20) =     10.14108  eV     2   --> B_1            
     e( 21 - 22) =     16.70158  eV     2   --> A_1            
     e( 21 - 22) =     16.70158  eV     2   --> B_1            
     e( 23 - 26) =     19.81288  eV     4   --> E_1            
     e( 23 - 26) =     19.81288  eV     4   --> E_2            
     e( 27 - 28) =     24.76911  eV     2   --> A_1            
     e( 27 - 28) =     24.76911  eV     2   --> B_1            
     e( 29 - 32) =     26.70038  eV     4   --> E_1            
     e( 29 - 32) =     26.70038  eV     4   --> E_2            
     e( 33 - 34) =     30.83329  eV     2   --> A_1            
     e( 33 - 34) =     30.83329  eV     2   --> B_1            
     e( 35 - 38) =     31.39753  eV     4   --> E_1            
     e( 35 - 38) =     31.39753  eV     4   --> E_2            
     e( 39 - 40) =     34.61608  eV     2   --> A_1            
     e( 39 - 40) =     34.61608  eV     2   --> B_1            
     e( 41 - 44) =     38.03248  eV     4   --> E_1            
     e( 41 - 44) =     38.03248  eV     4   --> E_2            
     e( 45 - 46) =     39.42425  eV     2   --> A_1            
     e( 45 - 46) =     39.42425  eV     2   --> B_1            
     e( 47 - 50) =     50.07418  eV     4   --> E_1            
     e( 47 - 50) =     50.07418  eV     4   --> E_2            
     e( 51 - 52) =     52.34624  eV     2   --> A_1            
     e( 51 - 52) =     52.34624  eV     2   --> B_1            
     e( 53 - 56) =     52.54888  eV     4   --> E_1            
     e( 53 - 56) =     52.54888  eV     4   --> E_2            
     e( 57 - 58) =     54.29384  eV     2   --> A_2            
     e( 57 - 58) =     54.29384  eV     2   --> B_2            
     e( 59 - 62) =     55.38116  eV     4   --> E_1            
     e( 59 - 62) =     55.38116  eV     4   --> E_2            
     e( 63 - 64) =     56.75201  eV     2   --> A_1            
     e( 63 - 64) =     56.75201  eV     2   --> B_1            
     e( 65 - 66) =     61.91901  eV     2   --> A_1            
     e( 65 - 66) =     61.91901  eV     2   --> B_1            
     e( 67 - 70) =     63.29912  eV     4   --> E_1            
     e( 67 - 70) =     63.29912  eV     4   --> E_2            
     e( 71 - 72) =     65.19559  eV     2   --> A_1            
     e( 71 - 72) =     65.19559  eV     2   --> B_1            

 **************************************************************************

     BANDS        :   3m46.02s CPU   1m23.68s WALL


   This run was terminated on:  12:56:15   8May2025            

=------------------------------------------------------------------------------=
   JOB DONE.
=------------------------------------------------------------------------------=
