
     Program DOS v.7.2 starts on  8May2025 at  8: 3: 0 

     This program is part of the open-source Quantum ESPRESSO suite
     for quantum simulation of materials; please cite
         "P. Giannozzi et al., J. Phys.:Condens. Matter 21 395502 (2009);
         "P. Giannozzi et al., J. Phys.:Condens. Matter 29 465901 (2017);
         "P. Giannozzi et al., J. Chem. Phys. 152 154105 (2020);
          URL http://www.quantum-espresso.org", 
     in publications or presentations arising from this work. More details at
     http://www.quantum-espresso.org/quote

     Parallel version (MPI), running on     4 processors

     MPI processes distributed on     1 nodes
     R & G space division:  proc/nbgrp/npool/nimage =       4
     105335 MiB available memory on the printing compute node when the environment starts


     Reading xml data from directory:

     ./ZnO_PBE_bulk.save/
     file Zn.upf: wavefunction(s)  3D renormalized

     IMPORTANT: XC functional enforced from input :
     Exchange-correlation= PBE
                           (   1   4   3   4   0   0   0)
     Any further DFT definition will be discarded
     Please, verify this is what you really want


     Parallelization info
     --------------------
     sticks:   dense  smooth     PW     G-vecs:    dense   smooth      PW
     Min         231     186     52                 9187     6588    1040
     Max         232     187     53                 9192     6593    1047
     Sum         925     745    211                36755    26357    4175

     Using Slab Decomposition


     Check: negative core charge=   -0.000003

     Gaussian broadening (default values): ngauss,degauss=   0    0.000735


     DOS          :      1.55s CPU      1.44s WALL


   This run was terminated on:   8: 3: 1   8May2025            

=------------------------------------------------------------------------------=
   JOB DONE.
=------------------------------------------------------------------------------=
