
     Program PWSCF v.7.2 starts on  8May2025 at  6:43:46 

     This program is part of the open-source Quantum ESPRESSO suite
     for quantum simulation of materials; please cite
         "P. Giannozzi et al., J. Phys.:Condens. Matter 21 395502 (2009);
         "P. Giannozzi et al., J. Phys.:Condens. Matter 29 465901 (2017);
         "P. Giannozzi et al., J. Chem. Phys. 152 154105 (2020);
          URL http://www.quantum-espresso.org", 
     in publications or presentations arising from this work. More details at
     http://www.quantum-espresso.org/quote

     Parallel version (MPI), running on    64 processors

     MPI processes distributed on     1 nodes
     104659 MiB available memory on the printing compute node when the environment starts

     Waiting for input...
     Reading input from standard input
Warning: card / ignored
Warning: card &IONS ignored
Warning: card   ION_DYNAMICS = 'BFGS', ignored
Warning: card / ignored
Warning: card &CELL ignored
Warning: card   CELL_DYNAMICS = 'BFGS', ignored
Warning: card   PRESS_CONV_THR  = 0.5D0, ignored
Warning: card   !CELL_DOFREE='XYZ' ignored
Warning: card   CELL_DOFREE='IBRAV' ignored
Warning: card / ignored

     Current dimensions of program PWSCF are:
     Max number of different atomic species (ntypx) = 10
     Max number of k-points (npk) =  40000
     Max angular momentum in pseudopotentials (lmaxx) =  4

     Atomic positions and unit cell read from directory:
     ./ZnO_PBE_bulk.save/
     Atomic positions from file used, from input discarded

     file Zn.upf: wavefunction(s)  3D renormalized

     K-points division:     npool     =       4
     R & G space division:  proc/nbgrp/npool/nimage =      16
     Subspace diagonalization in iterative solution of the eigenvalue problem:
     a serial algorithm will be used


     Parallelization info
     --------------------
     sticks:   dense  smooth     PW     G-vecs:    dense   smooth      PW
     Min          57      46     13                 2293     1644     259
     Max          58      47     14                 2300     1651     266
     Sum         925     745    211                36755    26357    4175

     Using Slab Decomposition



     bravais-lattice index     =            4
     lattice parameter (alat)  =       6.1946  a.u.
     unit-cell volume          =     332.3260 (a.u.)^3
     number of atoms/cell      =            4
     number of atomic types    =            2
     number of electrons       =        36.00
     number of Kohn-Sham states=           36
     kinetic-energy cutoff     =      70.0000  Ry
     charge density cutoff     =     350.0000  Ry
     Exchange-correlation= PBE
                           (   1   4   3   4   0   0   0)

     celldm(1)=   6.194571  celldm(2)=   0.000000  celldm(3)=   1.614358
     celldm(4)=   0.000000  celldm(5)=   0.000000  celldm(6)=   0.000000

     crystal axes: (cart. coord. in units of alat)
               a(1) = (   1.000000   0.000000   0.000000 )  
               a(2) = (  -0.500000   0.866025   0.000000 )  
               a(3) = (   0.000000   0.000000   1.614358 )  

     reciprocal axes: (cart. coord. in units 2 pi/alat)
               b(1) = (  1.000000  0.577350 -0.000000 )  
               b(2) = (  0.000000  1.154701  0.000000 )  
               b(3) = (  0.000000 -0.000000  0.619441 )  


     PseudoPot. # 1 for Zn read from file:
     ./Zn.upf
     MD5 check sum: 7f56cabf9682ed8c977c2f7d0c5985c5
     Pseudo is Ultrasoft + core correction, Zval = 12.0
     Generated using &quot;atomic&quot; code by A. Dal Corso  v.6.2.2
     Using radial grid of 1201 points,  6 beta functions with: 
                l(1) =   0
                l(2) =   0
                l(3) =   1
                l(4) =   1
                l(5) =   2
                l(6) =   2
     Q(r) pseudized with 0 coefficients 


     PseudoPot. # 2 for O  read from file:
     ./O.upf
     MD5 check sum: 91400c9766925bcf19f520983a725ff0
     Pseudo is Ultrasoft + core correction, Zval =  6.0
     Generated using &quot;atomic&quot; code by A. Dal Corso  v.6.3MaX
     Using radial grid of 1095 points,  4 beta functions with: 
                l(1) =   0
                l(2) =   0
                l(3) =   1
                l(4) =   1
     Q(r) pseudized with 0 coefficients 


     atomic species   valence    mass     pseudopotential
        Zn            12.00    63.38000     Zn( 1.00)
        O              6.00    15.99900     O ( 1.00)

     12 Sym. Ops. (no inversion) found ( 6 have fractional translation)


                                    s                        frac. trans.

      isym =  1     identity                                     

 cryst.   s( 1) = (     1          0          0      )
                  (     0          1          0      )
                  (     0          0          1      )

 cart.    s( 1) = (  1.0000000  0.0000000  0.0000000 )
                  (  0.0000000  1.0000000  0.0000000 )
                  (  0.0000000  0.0000000  1.0000000 )


      isym =  2     180 deg rotation - cart. axis [0,0,1]        

 cryst.   s( 2) = (    -1          0          0      )    f =(  0.0000000 )
                  (     0         -1          0      )       (  0.0000000 )
                  (     0          0          1      )       (  0.5000000 )

 cart.    s( 2) = ( -1.0000000  0.0000000  0.0000000 )    f =( -0.0000000 )
                  (  0.0000000 -1.0000000  0.0000000 )       (  0.0000000 )
                  (  0.0000000  0.0000000  1.0000000 )       (  0.8071792 )


      isym =  3      60 deg rotation - cryst. axis [0,0,1]       

 cryst.   s( 3) = (     1          1          0      )    f =( -0.0000000 )
                  (    -1          0          0      )       ( -0.0000000 )
                  (     0          0          1      )       (  0.5000000 )

 cart.    s( 3) = (  0.5000000 -0.8660254  0.0000000 )    f =( -0.0000000 )
                  (  0.8660254  0.5000000  0.0000000 )       ( -0.0000000 )
                  (  0.0000000  0.0000000  1.0000000 )       (  0.8071792 )


      isym =  4      60 deg rotation - cryst. axis [0,0,-1]      

 cryst.   s( 4) = (     0         -1          0      )    f =( -0.0000000 )
                  (     1          1          0      )       (  0.0000000 )
                  (     0          0          1      )       (  0.5000000 )

 cart.    s( 4) = (  0.5000000  0.8660254  0.0000000 )    f =( -0.0000000 )
                  ( -0.8660254  0.5000000  0.0000000 )       (  0.0000000 )
                  (  0.0000000  0.0000000  1.0000000 )       (  0.8071792 )


      isym =  5     120 deg rotation - cryst. axis [0,0,1]       

 cryst.   s( 5) = (     0          1          0      )
                  (    -1         -1          0      )
                  (     0          0          1      )

 cart.    s( 5) = ( -0.5000000 -0.8660254  0.0000000 )
                  (  0.8660254 -0.5000000  0.0000000 )
                  (  0.0000000  0.0000000  1.0000000 )


      isym =  6     120 deg rotation - cryst. axis [0,0,-1]      

 cryst.   s( 6) = (    -1         -1          0      )
                  (     1          0          0      )
                  (     0          0          1      )

 cart.    s( 6) = ( -0.5000000  0.8660254  0.0000000 )
                  ( -0.8660254 -0.5000000  0.0000000 )
                  (  0.0000000  0.0000000  1.0000000 )


      isym =  7     inv. 180 deg rotation - cart. axis [0,1,0]   

 cryst.   s( 7) = (     1          0          0      )    f =( -0.0000000 )
                  (    -1         -1          0      )       (  0.0000000 )
                  (     0          0          1      )       (  0.5000000 )

 cart.    s( 7) = (  1.0000000  0.0000000  0.0000000 )    f =( -0.0000000 )
                  (  0.0000000 -1.0000000  0.0000000 )       (  0.0000000 )
                  (  0.0000000  0.0000000  1.0000000 )       (  0.8071792 )


      isym =  8     inv. 180 deg rotation - cart. axis [1,0,0]   

 cryst.   s( 8) = (    -1          0          0      )
                  (     1          1          0      )
                  (     0          0          1      )

 cart.    s( 8) = ( -1.0000000  0.0000000  0.0000000 )
                  (  0.0000000  1.0000000  0.0000000 )
                  (  0.0000000  0.0000000  1.0000000 )


      isym =  9     inv. 180 deg rotation - cryst. axis [1,-1,0] 

 cryst.   s( 9) = (     0          1          0      )    f =( -0.0000000 )
                  (     1          0          0      )       ( -0.0000000 )
                  (     0          0          1      )       (  0.5000000 )

 cart.    s( 9) = ( -0.5000000  0.8660254  0.0000000 )    f =( -0.0000000 )
                  (  0.8660254  0.5000000  0.0000000 )       ( -0.0000000 )
                  (  0.0000000  0.0000000  1.0000000 )       (  0.8071792 )


      isym = 10     inv. 180 deg rotation - cryst. axis [2,1,0]  

 cryst.   s(10) = (    -1         -1          0      )    f =(  0.0000000 )
                  (     0          1          0      )       (  0.0000000 )
                  (     0          0          1      )       (  0.5000000 )

 cart.    s(10) = ( -0.5000000 -0.8660254  0.0000000 )    f =( -0.0000000 )
                  ( -0.8660254  0.5000000  0.0000000 )       (  0.0000000 )
                  (  0.0000000  0.0000000  1.0000000 )       (  0.8071792 )


      isym = 11     inv. 180 deg rotation - cryst. axis [0,1,0]  

 cryst.   s(11) = (     1          1          0      )
                  (     0         -1          0      )
                  (     0          0          1      )

 cart.    s(11) = (  0.5000000  0.8660254  0.0000000 )
                  (  0.8660254 -0.5000000  0.0000000 )
                  (  0.0000000  0.0000000  1.0000000 )


      isym = 12     inv. 180 deg rotation - cryst. axis [1,1,0]  

 cryst.   s(12) = (     0         -1          0      )
                  (    -1          0          0      )
                  (     0          0          1      )

 cart.    s(12) = (  0.5000000 -0.8660254  0.0000000 )
                  ( -0.8660254 -0.5000000  0.0000000 )
                  (  0.0000000  0.0000000  1.0000000 )


     point group C_6v (6mm) 
     there are  6 classes
     the character table:

       E     2C6   2C3   C2    3s_v  3s_d 
A_1    1.00  1.00  1.00  1.00  1.00  1.00
A_2    1.00  1.00  1.00  1.00 -1.00 -1.00
B_1    1.00 -1.00  1.00 -1.00  1.00 -1.00
B_2    1.00 -1.00  1.00 -1.00 -1.00  1.00
E_1    2.00  1.00 -1.00 -2.00  0.00  0.00
E_2    2.00 -1.00 -1.00  2.00  0.00  0.00

     the symmetry operations in each class and the name of the first element:

     E        1
          identity                                               
     2C6      3    4
           60 deg rotation - cryst. axis [0,0,1]                 
     2C3      5    6
          120 deg rotation - cryst. axis [0,0,1]                 
     C2       2
          180 deg rotation - cart. axis [0,0,1]                  
     3s_v     8   12   11
          inv. 180 deg rotation - cart. axis [1,0,0]             
     3s_d     7    9   10
          inv. 180 deg rotation - cart. axis [0,1,0]             

   Cartesian axes

     site n.     atom                  positions (alat units)
         1           Zn  tau(   1) = (   0.5000000   0.2886751   0.8082166  )
         2           Zn  tau(   2) = (  -0.0000000   0.5773503   0.0010374  )
         3           O   tau(   3) = (   0.5000000   0.2886751   1.4200984  )
         4           O   tau(   4) = (  -0.0000000   0.5773503   0.6129192  )

   Crystallographic axes

     site n.     atom                  positions (cryst. coord.)
         1           Zn  tau(   1) = (  0.6666667  0.3333333  0.5006426  )
         2           Zn  tau(   2) = (  0.3333333  0.6666667  0.0006426  )
         3           O   tau(   3) = (  0.6666667  0.3333333  0.8796674  )
         4           O   tau(   4) = (  0.3333333  0.6666667  0.3796674  )

     number of k points=    84
                       cart. coord. in units 2pi/alat
        k(    1) = (   0.0000000   0.0000000   0.0000000), wk =   0.0020000
        k(    2) = (   0.0000000   0.0000000   0.0619441), wk =   0.0040000
        k(    3) = (   0.0000000   0.0000000   0.1238882), wk =   0.0040000
        k(    4) = (   0.0000000   0.0000000   0.1858323), wk =   0.0040000
        k(    5) = (   0.0000000   0.0000000   0.2477765), wk =   0.0040000
        k(    6) = (   0.0000000   0.0000000  -0.3097206), wk =   0.0020000
        k(    7) = (   0.0000000   0.1154701   0.0000000), wk =   0.0120000
        k(    8) = (   0.0000000   0.1154701   0.0619441), wk =   0.0240000
        k(    9) = (   0.0000000   0.1154701   0.1238882), wk =   0.0240000
        k(   10) = (   0.0000000   0.1154701   0.1858323), wk =   0.0240000
        k(   11) = (   0.0000000   0.1154701   0.2477765), wk =   0.0240000
        k(   12) = (   0.0000000   0.1154701  -0.3097206), wk =   0.0120000
        k(   13) = (   0.0000000   0.2309401   0.0000000), wk =   0.0120000
        k(   14) = (   0.0000000   0.2309401   0.0619441), wk =   0.0240000
        k(   15) = (   0.0000000   0.2309401   0.1238882), wk =   0.0240000
        k(   16) = (   0.0000000   0.2309401   0.1858323), wk =   0.0240000
        k(   17) = (   0.0000000   0.2309401   0.2477765), wk =   0.0240000
        k(   18) = (   0.0000000   0.2309401  -0.3097206), wk =   0.0120000
        k(   19) = (   0.0000000   0.3464102   0.0000000), wk =   0.0120000
        k(   20) = (   0.0000000   0.3464102   0.0619441), wk =   0.0240000
        k(   21) = (   0.0000000   0.3464102   0.1238882), wk =   0.0240000
        k(   22) = (   0.0000000   0.3464102   0.1858323), wk =   0.0240000
        k(   23) = (   0.0000000   0.3464102   0.2477765), wk =   0.0240000
        k(   24) = (   0.0000000   0.3464102  -0.3097206), wk =   0.0120000
        k(   25) = (   0.0000000   0.4618802   0.0000000), wk =   0.0120000
        k(   26) = (   0.0000000   0.4618802   0.0619441), wk =   0.0240000
        k(   27) = (   0.0000000   0.4618802   0.1238882), wk =   0.0240000
        k(   28) = (   0.0000000   0.4618802   0.1858323), wk =   0.0240000
        k(   29) = (   0.0000000   0.4618802   0.2477765), wk =   0.0240000
        k(   30) = (   0.0000000   0.4618802  -0.3097206), wk =   0.0120000
        k(   31) = (   0.0000000  -0.5773503   0.0000000), wk =   0.0060000
        k(   32) = (   0.0000000  -0.5773503   0.0619441), wk =   0.0120000
        k(   33) = (   0.0000000  -0.5773503   0.1238882), wk =   0.0120000
        k(   34) = (   0.0000000  -0.5773503   0.1858323), wk =   0.0120000
        k(   35) = (   0.0000000  -0.5773503   0.2477765), wk =   0.0120000
        k(   36) = (   0.0000000  -0.5773503  -0.3097206), wk =   0.0060000
        k(   37) = (   0.1000000   0.1732051   0.0000000), wk =   0.0120000
        k(   38) = (   0.1000000   0.1732051   0.0619441), wk =   0.0240000
        k(   39) = (   0.1000000   0.1732051   0.1238882), wk =   0.0240000
        k(   40) = (   0.1000000   0.1732051   0.1858323), wk =   0.0240000
        k(   41) = (   0.1000000   0.1732051   0.2477765), wk =   0.0240000
        k(   42) = (   0.1000000   0.1732051  -0.3097206), wk =   0.0120000
        k(   43) = (   0.1000000   0.2886751   0.0000000), wk =   0.0240000
        k(   44) = (   0.1000000   0.2886751   0.0619441), wk =   0.0480000
        k(   45) = (   0.1000000   0.2886751   0.1238882), wk =   0.0480000
        k(   46) = (   0.1000000   0.2886751   0.1858323), wk =   0.0480000
        k(   47) = (   0.1000000   0.2886751   0.2477765), wk =   0.0480000
        k(   48) = (   0.1000000   0.2886751  -0.3097206), wk =   0.0240000
        k(   49) = (   0.1000000   0.4041452   0.0000000), wk =   0.0240000
        k(   50) = (   0.1000000   0.4041452   0.0619441), wk =   0.0480000
        k(   51) = (   0.1000000   0.4041452   0.1238882), wk =   0.0480000
        k(   52) = (   0.1000000   0.4041452   0.1858323), wk =   0.0480000
        k(   53) = (   0.1000000   0.4041452   0.2477765), wk =   0.0480000
        k(   54) = (   0.1000000   0.4041452  -0.3097206), wk =   0.0240000
        k(   55) = (   0.1000000   0.5196152   0.0000000), wk =   0.0240000
        k(   56) = (   0.1000000   0.5196152   0.0619441), wk =   0.0480000
        k(   57) = (   0.1000000   0.5196152   0.1238882), wk =   0.0480000
        k(   58) = (   0.1000000   0.5196152   0.1858323), wk =   0.0480000
        k(   59) = (   0.1000000   0.5196152   0.2477765), wk =   0.0480000
        k(   60) = (   0.1000000   0.5196152  -0.3097206), wk =   0.0240000
        k(   61) = (   0.2000000   0.3464102   0.0000000), wk =   0.0120000
        k(   62) = (   0.2000000   0.3464102   0.0619441), wk =   0.0240000
        k(   63) = (   0.2000000   0.3464102   0.1238882), wk =   0.0240000
        k(   64) = (   0.2000000   0.3464102   0.1858323), wk =   0.0240000
        k(   65) = (   0.2000000   0.3464102   0.2477765), wk =   0.0240000
        k(   66) = (   0.2000000   0.3464102  -0.3097206), wk =   0.0120000
        k(   67) = (   0.2000000   0.4618802   0.0000000), wk =   0.0240000
        k(   68) = (   0.2000000   0.4618802   0.0619441), wk =   0.0480000
        k(   69) = (   0.2000000   0.4618802   0.1238882), wk =   0.0480000
        k(   70) = (   0.2000000   0.4618802   0.1858323), wk =   0.0480000
        k(   71) = (   0.2000000   0.4618802   0.2477765), wk =   0.0480000
        k(   72) = (   0.2000000   0.4618802  -0.3097206), wk =   0.0240000
        k(   73) = (   0.2000000   0.5773503   0.0000000), wk =   0.0120000
        k(   74) = (   0.2000000   0.5773503   0.0619441), wk =   0.0240000
        k(   75) = (   0.2000000   0.5773503   0.1238882), wk =   0.0240000
        k(   76) = (   0.2000000   0.5773503   0.1858323), wk =   0.0240000
        k(   77) = (   0.2000000   0.5773503   0.2477765), wk =   0.0240000
        k(   78) = (   0.2000000   0.5773503  -0.3097206), wk =   0.0120000
        k(   79) = (   0.3000000   0.5196152   0.0000000), wk =   0.0120000
        k(   80) = (   0.3000000   0.5196152   0.0619441), wk =   0.0240000
        k(   81) = (   0.3000000   0.5196152   0.1238882), wk =   0.0240000
        k(   82) = (   0.3000000   0.5196152   0.1858323), wk =   0.0240000
        k(   83) = (   0.3000000   0.5196152   0.2477765), wk =   0.0240000
        k(   84) = (   0.3000000   0.5196152  -0.3097206), wk =   0.0120000

                       cryst. coord.
        k(    1) = (   0.0000000   0.0000000   0.0000000), wk =   0.0020000
        k(    2) = (   0.0000000   0.0000000   0.1000000), wk =   0.0040000
        k(    3) = (   0.0000000   0.0000000   0.2000000), wk =   0.0040000
        k(    4) = (   0.0000000   0.0000000   0.3000000), wk =   0.0040000
        k(    5) = (   0.0000000   0.0000000   0.4000000), wk =   0.0040000
        k(    6) = (   0.0000000   0.0000000  -0.5000000), wk =   0.0020000
        k(    7) = (   0.0000000   0.1000000   0.0000000), wk =   0.0120000
        k(    8) = (   0.0000000   0.1000000   0.1000000), wk =   0.0240000
        k(    9) = (   0.0000000   0.1000000   0.2000000), wk =   0.0240000
        k(   10) = (   0.0000000   0.1000000   0.3000000), wk =   0.0240000
        k(   11) = (   0.0000000   0.1000000   0.4000000), wk =   0.0240000
        k(   12) = (   0.0000000   0.1000000  -0.5000000), wk =   0.0120000
        k(   13) = (   0.0000000   0.2000000   0.0000000), wk =   0.0120000
        k(   14) = (   0.0000000   0.2000000   0.1000000), wk =   0.0240000
        k(   15) = (   0.0000000   0.2000000   0.2000000), wk =   0.0240000
        k(   16) = (   0.0000000   0.2000000   0.3000000), wk =   0.0240000
        k(   17) = (   0.0000000   0.2000000   0.4000000), wk =   0.0240000
        k(   18) = (   0.0000000   0.2000000  -0.5000000), wk =   0.0120000
        k(   19) = (   0.0000000   0.3000000   0.0000000), wk =   0.0120000
        k(   20) = (   0.0000000   0.3000000   0.1000000), wk =   0.0240000
        k(   21) = (   0.0000000   0.3000000   0.2000000), wk =   0.0240000
        k(   22) = (   0.0000000   0.3000000   0.3000000), wk =   0.0240000
        k(   23) = (   0.0000000   0.3000000   0.4000000), wk =   0.0240000
        k(   24) = (   0.0000000   0.3000000  -0.5000000), wk =   0.0120000
        k(   25) = (   0.0000000   0.4000000   0.0000000), wk =   0.0120000
        k(   26) = (   0.0000000   0.4000000   0.1000000), wk =   0.0240000
        k(   27) = (   0.0000000   0.4000000   0.2000000), wk =   0.0240000
        k(   28) = (   0.0000000   0.4000000   0.3000000), wk =   0.0240000
        k(   29) = (   0.0000000   0.4000000   0.4000000), wk =   0.0240000
        k(   30) = (   0.0000000   0.4000000  -0.5000000), wk =   0.0120000
        k(   31) = (   0.0000000  -0.5000000   0.0000000), wk =   0.0060000
        k(   32) = (   0.0000000  -0.5000000   0.1000000), wk =   0.0120000
        k(   33) = (   0.0000000  -0.5000000   0.2000000), wk =   0.0120000
        k(   34) = (   0.0000000  -0.5000000   0.3000000), wk =   0.0120000
        k(   35) = (   0.0000000  -0.5000000   0.4000000), wk =   0.0120000
        k(   36) = (   0.0000000  -0.5000000  -0.5000000), wk =   0.0060000
        k(   37) = (   0.1000000   0.1000000   0.0000000), wk =   0.0120000
        k(   38) = (   0.1000000   0.1000000   0.1000000), wk =   0.0240000
        k(   39) = (   0.1000000   0.1000000   0.2000000), wk =   0.0240000
        k(   40) = (   0.1000000   0.1000000   0.3000000), wk =   0.0240000
        k(   41) = (   0.1000000   0.1000000   0.4000000), wk =   0.0240000
        k(   42) = (   0.1000000   0.1000000  -0.5000000), wk =   0.0120000
        k(   43) = (   0.1000000   0.2000000   0.0000000), wk =   0.0240000
        k(   44) = (   0.1000000   0.2000000   0.1000000), wk =   0.0480000
        k(   45) = (   0.1000000   0.2000000   0.2000000), wk =   0.0480000
        k(   46) = (   0.1000000   0.2000000   0.3000000), wk =   0.0480000
        k(   47) = (   0.1000000   0.2000000   0.4000000), wk =   0.0480000
        k(   48) = (   0.1000000   0.2000000  -0.5000000), wk =   0.0240000
        k(   49) = (   0.1000000   0.3000000   0.0000000), wk =   0.0240000
        k(   50) = (   0.1000000   0.3000000   0.1000000), wk =   0.0480000
        k(   51) = (   0.1000000   0.3000000   0.2000000), wk =   0.0480000
        k(   52) = (   0.1000000   0.3000000   0.3000000), wk =   0.0480000
        k(   53) = (   0.1000000   0.3000000   0.4000000), wk =   0.0480000
        k(   54) = (   0.1000000   0.3000000  -0.5000000), wk =   0.0240000
        k(   55) = (   0.1000000   0.4000000   0.0000000), wk =   0.0240000
        k(   56) = (   0.1000000   0.4000000   0.1000000), wk =   0.0480000
        k(   57) = (   0.1000000   0.4000000   0.2000000), wk =   0.0480000
        k(   58) = (   0.1000000   0.4000000   0.3000000), wk =   0.0480000
        k(   59) = (   0.1000000   0.4000000   0.4000000), wk =   0.0480000
        k(   60) = (   0.1000000   0.4000000  -0.5000000), wk =   0.0240000
        k(   61) = (   0.2000000   0.2000000   0.0000000), wk =   0.0120000
        k(   62) = (   0.2000000   0.2000000   0.1000000), wk =   0.0240000
        k(   63) = (   0.2000000   0.2000000   0.2000000), wk =   0.0240000
        k(   64) = (   0.2000000   0.2000000   0.3000000), wk =   0.0240000
        k(   65) = (   0.2000000   0.2000000   0.4000000), wk =   0.0240000
        k(   66) = (   0.2000000   0.2000000  -0.5000000), wk =   0.0120000
        k(   67) = (   0.2000000   0.3000000   0.0000000), wk =   0.0240000
        k(   68) = (   0.2000000   0.3000000   0.1000000), wk =   0.0480000
        k(   69) = (   0.2000000   0.3000000   0.2000000), wk =   0.0480000
        k(   70) = (   0.2000000   0.3000000   0.3000000), wk =   0.0480000
        k(   71) = (   0.2000000   0.3000000   0.4000000), wk =   0.0480000
        k(   72) = (   0.2000000   0.3000000  -0.5000000), wk =   0.0240000
        k(   73) = (   0.2000000   0.4000000   0.0000000), wk =   0.0120000
        k(   74) = (   0.2000000   0.4000000   0.1000000), wk =   0.0240000
        k(   75) = (   0.2000000   0.4000000   0.2000000), wk =   0.0240000
        k(   76) = (   0.2000000   0.4000000   0.3000000), wk =   0.0240000
        k(   77) = (   0.2000000   0.4000000   0.4000000), wk =   0.0240000
        k(   78) = (   0.2000000   0.4000000  -0.5000000), wk =   0.0120000
        k(   79) = (   0.3000000   0.3000000   0.0000000), wk =   0.0120000
        k(   80) = (   0.3000000   0.3000000   0.1000000), wk =   0.0240000
        k(   81) = (   0.3000000   0.3000000   0.2000000), wk =   0.0240000
        k(   82) = (   0.3000000   0.3000000   0.3000000), wk =   0.0240000
        k(   83) = (   0.3000000   0.3000000   0.4000000), wk =   0.0240000
        k(   84) = (   0.3000000   0.3000000  -0.5000000), wk =   0.0120000

     Dense  grid:    36755 G-vectors     FFT dimensions: (  40,  40,  60)

     Smooth grid:    26357 G-vectors     FFT dimensions: (  36,  36,  54)

     Dynamical RAM for                 wfc:       0.11 MB

     Dynamical RAM for     wfc (w. buffer):       0.11 MB

     Dynamical RAM for           str. fact:       0.07 MB

     Dynamical RAM for           local pot:       0.00 MB

     Dynamical RAM for          nlocal pot:       0.16 MB

     Dynamical RAM for                qrad:       3.00 MB

     Dynamical RAM for          rho,v,vnew:       0.25 MB

     Dynamical RAM for           G-vectors:       0.14 MB

     Dynamical RAM for          h,s,v(r/c):       0.24 MB

     Dynamical RAM for          <psi|beta>:       0.03 MB

     Dynamical RAM for                 psi:       0.23 MB

     Dynamical RAM for                hpsi:       0.23 MB

     Dynamical RAM for                spsi:       0.23 MB

     Dynamical RAM for      wfcinit/wfcrot:       0.26 MB

     Dynamical RAM for           addusdens:       1.67 MB

     Estimated static dynamical RAM per process >       4.09 MB

     Estimated max dynamical RAM per process >       5.77 MB

     Estimated total dynamical RAM >     369.02 MB

     Check: negative core charge=   -0.000003

     The potential is recalculated from file :
     ./ZnO_PBE_bulk.save/charge-density

     Starting wfcs are   26 randomized atomic wfcs +   10 random wfcs

     Band Structure Calculation
     Davidson diagonalization with overlap

     Computing kpt #:     1  of    21 on this pool
     total cpu time spent up to now is      132.5 secs

     Computing kpt #:     2  of    21 on this pool
     total cpu time spent up to now is      248.7 secs

     Computing kpt #:     3  of    21 on this pool
     total cpu time spent up to now is      373.0 secs

     Computing kpt #:     4  of    21 on this pool
     total cpu time spent up to now is      491.3 secs

     Computing kpt #:     5  of    21 on this pool
     total cpu time spent up to now is      618.1 secs

     Computing kpt #:     6  of    21 on this pool
     total cpu time spent up to now is      738.5 secs

     Computing kpt #:     7  of    21 on this pool
     total cpu time spent up to now is      856.8 secs

     Computing kpt #:     8  of    21 on this pool
     total cpu time spent up to now is      969.0 secs

     Computing kpt #:     9  of    21 on this pool
     total cpu time spent up to now is     1077.0 secs

     Computing kpt #:    10  of    21 on this pool
     total cpu time spent up to now is     1193.9 secs

     Computing kpt #:    11  of    21 on this pool
     total cpu time spent up to now is     1317.7 secs

     Computing kpt #:    12  of    21 on this pool
     total cpu time spent up to now is     1450.0 secs

     Computing kpt #:    13  of    21 on this pool
     total cpu time spent up to now is     1574.3 secs

     Computing kpt #:    14  of    21 on this pool
     total cpu time spent up to now is     1697.9 secs

     Computing kpt #:    15  of    21 on this pool
     total cpu time spent up to now is     1811.3 secs

     Computing kpt #:    16  of    21 on this pool
     total cpu time spent up to now is     1942.8 secs

     Computing kpt #:    17  of    21 on this pool
     total cpu time spent up to now is     2067.5 secs

     Computing kpt #:    18  of    21 on this pool
     total cpu time spent up to now is     2188.4 secs

     Computing kpt #:    19  of    21 on this pool
     total cpu time spent up to now is     2313.1 secs

     Computing kpt #:    20  of    21 on this pool
     total cpu time spent up to now is     2437.4 secs

     Computing kpt #:    21  of    21 on this pool
     total cpu time spent up to now is     2555.4 secs

     ethr =  2.78E-12,  avg # of iterations = 52.1

     total cpu time spent up to now is     2555.5 secs

     End of band structure calculation

          k = 0.0000 0.0000 0.0000 (  3297 PWs)   bands (ev):

   -11.0511 -10.3819   1.2307   1.2307   1.2703   1.3821   1.4135   1.4135
     2.3183   2.3183   2.5125   2.5125   2.7779   6.0166   6.0166   6.6910
     6.7701   6.7701   7.5097  11.8845  14.8442  19.5311  19.5311  20.5448
    20.7317  20.7317  23.1645  24.7706  24.7706  26.3998  26.4567  26.4567
    27.4698  29.5370  31.2120  31.2120

     occupation numbers 
     1.0000   1.0000   1.0000   1.0000   1.0000   1.0000   1.0000   1.0000
     1.0000   1.0000   1.0000   1.0000   1.0000   1.0000   1.0000   1.0000
     1.0000   1.0000   0.0000   0.0000   0.0000   0.0000   0.0000   0.0000
     0.0000   0.0000   0.0000   0.0000   0.0000   0.0000   0.0000   0.0000
     0.0000   0.0000   0.0000   0.0000

          k = 0.0000 0.0000 0.0619 (  3315 PWs)   bands (ev):

   -11.0355 -10.3992   1.2330   1.2330   1.2534   1.3277   1.4066   1.4066
     2.3249   2.3249   2.5098   2.5098   2.8992   6.0354   6.0354   6.4249
     6.7521   6.7521   7.8070  11.7979  14.9218  19.5322  19.5322  20.1772
    20.6623  20.6623  23.3030  24.8739  24.8739  26.3347  26.5732  26.5732
    27.8748  29.5039  31.0895  31.0895

     occupation numbers 
     1.0000   1.0000   1.0000   1.0000   1.0000   1.0000   1.0000   1.0000
     1.0000   1.0000   1.0000   1.0000   1.0000   1.0000   1.0000   1.0000
     1.0000   1.0000   0.0000   0.0000   0.0000   0.0000   0.0000   0.0000
     0.0000   0.0000   0.0000   0.0000   0.0000   0.0000   0.0000   0.0000
     0.0000   0.0000   0.0000   0.0000

          k = 0.0000 0.0000 0.1239 (  3303 PWs)   bands (ev):

   -10.9902 -10.4489   1.2076   1.2157   1.2404   1.2404   1.3875   1.3875
     2.3433   2.3433   2.5013   2.5013   3.2070   5.9726   6.0900   6.0900
     6.6998   6.6998   8.3462  11.5507  15.1505  19.3502  19.5435  19.5435
    20.4810  20.4810  23.5861  25.1699  25.1699  26.1152  26.8574  26.8574
    28.9249  29.5299  30.8074  30.8074

     occupation numbers 
     1.0000   1.0000   1.0000   1.0000   1.0000   1.0000   1.0000   1.0000
     1.0000   1.0000   1.0000   1.0000   1.0000   1.0000   1.0000   1.0000
     1.0000   1.0000   0.0000   0.0000   0.0000   0.0000   0.0000   0.0000
     0.0000   0.0000   0.0000   0.0000   0.0000   0.0000   0.0000   0.0000
     0.0000   0.0000   0.0000   0.0000

          k = 0.0000 0.0000 0.1858 (  3273 PWs)   bands (ev):

   -10.9188 -10.5257   1.1163   1.1465   1.2536   1.2536   1.3599   1.3599
     2.3707   2.3707   2.4860   2.4860   3.6161   5.5004   6.1748   6.1748
     6.6180   6.6180   8.9412  11.1712  15.5240  18.4037  19.5832  19.5832
    20.2456  20.2456  23.9231  25.6195  25.6195  25.7346  27.1130  27.1130
    29.7780  30.2509  30.6042  30.6042

     occupation numbers 
     1.0000   1.0000   1.0000   1.0000   1.0000   1.0000   1.0000   1.0000
     1.0000   1.0000   1.0000   1.0000   1.0000   1.0000   1.0000   1.0000
     1.0000   1.0000   0.0000   0.0000   0.0000   0.0000   0.0000   0.0000
     0.0000   0.0000   0.0000   0.0000   0.0000   0.0000   0.0000   0.0000
     0.0000   0.0000   0.0000   0.0000

          k = 0.0000 0.0000 0.2478 (  3272 PWs)   bands (ev):

   -10.8278 -10.6211   1.0612   1.0891   1.2732   1.2732   1.3289   1.3289
     2.4028   2.4028   2.4636   2.4636   4.0729   5.0252   6.2810   6.2810
     6.5140   6.5140   9.5487  10.6913  16.0410  17.4982  19.6696  19.6696
    20.0108  20.0108  24.3168  25.2589  26.1614  26.1614  27.0776  27.0776
    30.2537  30.7786  30.7786  31.1071

     occupation numbers 
     1.0000   1.0000   1.0000   1.0000   1.0000   1.0000   1.0000   1.0000
     1.0000   1.0000   1.0000   1.0000   1.0000   1.0000   1.0000   1.0000
     1.0000   1.0000   0.0000   0.0000   0.0000   0.0000   0.0000   0.0000
     0.0000   0.0000   0.0000   0.0000   0.0000   0.0000   0.0000   0.0000
     0.0000   0.0000   0.0000   0.0000

          k = 0.0000 0.0000-0.3097 (  3266 PWs)   bands (ev):

   -10.7253 -10.7253   1.0551   1.0551   1.2989   1.2989   1.2989   1.2989
     2.4350   2.4350   2.4350   2.4350   4.5477   4.5477   6.3980   6.3980
     6.3980   6.3980  10.1411  10.1411  16.7016  16.7016  19.8129  19.8129
    19.8129  19.8129  24.7691  24.7691  26.7004  26.7004  26.7004  26.7004
    30.8333  30.8333  31.3975  31.3975

     occupation numbers 
     1.0000   1.0000   1.0000   1.0000   1.0000   1.0000   1.0000   1.0000
     1.0000   1.0000   1.0000   1.0000   1.0000   1.0000   1.0000   1.0000
     1.0000   1.0000   0.0000   0.0000   0.0000   0.0000   0.0000   0.0000
     0.0000   0.0000   0.0000   0.0000   0.0000   0.0000   0.0000   0.0000
     0.0000   0.0000   0.0000   0.0000

          k = 0.0000 0.1155 0.0000 (  3307 PWs)   bands (ev):

   -10.9997 -10.3589   1.1749   1.2608   1.3030   1.4023   1.4563   1.4651
     2.2971   2.3155   2.5169   2.5578   2.7659   5.6611   5.8890   6.1565
     6.6283   6.7019   8.2517  12.2870  14.8471  18.5406  19.6164  19.9972
    20.6924  20.8439  22.6597  24.1829  24.9675  26.5125  27.5719  27.6399
    28.2036  30.1392  31.0770  31.3095

     occupation numbers 
     1.0000   1.0000   1.0000   1.0000   1.0000   1.0000   1.0000   1.0000
     1.0000   1.0000   1.0000   1.0000   1.0000   1.0000   1.0000   1.0000
     1.0000   1.0000   0.0000   0.0000   0.0000   0.0000   0.0000   0.0000
     0.0000   0.0000   0.0000   0.0000   0.0000   0.0000   0.0000   0.0000
     0.0000   0.0000   0.0000   0.0000

          k = 0.0000 0.1155 0.0619 (  3308 PWs)   bands (ev):

   -10.9847 -10.3753   1.1660   1.2635   1.2946   1.3563   1.4452   1.4491
     2.3051   2.3220   2.5138   2.5408   2.9056   5.6794   5.9094   6.0420
     6.6063   6.6826   8.4031  12.1885  14.9282  18.5566  19.6179  19.9170
    20.2939  20.7655  22.9521  24.3309  25.0407  26.5041  27.5267  27.7026
    28.5071  30.1493  31.0981  31.1830

     occupation numbers 
     1.0000   1.0000   1.0000   1.0000   1.0000   1.0000   1.0000   1.0000
     1.0000   1.0000   1.0000   1.0000   1.0000   1.0000   1.0000   1.0000
     1.0000   1.0000   0.0000   0.0000   0.0000   0.0000   0.0000   0.0000
     0.0000   0.0000   0.0000   0.0000   0.0000   0.0000   0.0000   0.0000
     0.0000   0.0000   0.0000   0.0000

          k = 0.0000 0.1155 0.1239 (  3290 PWs)   bands (ev):

   -10.9410 -10.4226   1.1367   1.2250   1.2719   1.2974   1.4193   1.4291
     2.3273   2.3404   2.5041   2.5199   3.2307   5.6843   5.8156   5.9686
     6.5368   6.6263   8.7871  11.9132  15.1617  18.5810  19.3744  19.6296
    19.8619  20.5681  23.4670  24.7366  25.2382  26.4187  27.4909  27.8208
    29.2722  30.1760  30.9144  31.1516

     occupation numbers 
     1.0000   1.0000   1.0000   1.0000   1.0000   1.0000   1.0000   1.0000
     1.0000   1.0000   1.0000   1.0000   1.0000   1.0000   1.0000   1.0000
     1.0000   1.0000   0.0000   0.0000   0.0000   0.0000   0.0000   0.0000
     0.0000   0.0000   0.0000   0.0000   0.0000   0.0000   0.0000   0.0000
     0.0000   0.0000   0.0000   0.0000

          k = 0.0000 0.1155 0.1858 (  3290 PWs)   bands (ev):

   -10.8724 -10.4958   1.0892   1.1158   1.2866   1.2955   1.3901   1.4001
     2.3597   2.3679   2.4872   2.4974   3.6442   5.3723   5.8642   6.0603
     6.4250   6.5381   9.2967  11.5035  15.5335  18.2482  18.8990  19.6345
    19.6686  20.3234  23.9598  25.3238  25.4189  26.3169  27.5478  27.7808
    29.8212  30.3093  30.8002  31.4288

     occupation numbers 
     1.0000   1.0000   1.0000   1.0000   1.0000   1.0000   1.0000   1.0000
     1.0000   1.0000   1.0000   1.0000   1.0000   1.0000   1.0000   1.0000
     1.0000   1.0000   0.0000   0.0000   0.0000   0.0000   0.0000   0.0000
     0.0000   0.0000   0.0000   0.0000   0.0000   0.0000   0.0000   0.0000
     0.0000   0.0000   0.0000   0.0000

          k = 0.0000 0.1155 0.2478 (  3277 PWs)   bands (ev):

   -10.7849 -10.5869   1.0407   1.0502   1.3079   1.3081   1.3590   1.3674
     2.3972   2.4003   2.4632   2.4692   4.0920   4.9724   5.9888   6.1750
     6.2854   6.4262   9.8636  11.0016  16.0388  17.4371  18.9890  19.3999
    19.7526  20.0874  24.4125  25.2430  26.0194  26.5968  27.3928  27.4875
    29.7787  30.3627  31.0940  31.9902

     occupation numbers 
     1.0000   1.0000   1.0000   1.0000   1.0000   1.0000   1.0000   1.0000
     1.0000   1.0000   1.0000   1.0000   1.0000   1.0000   1.0000   1.0000
     1.0000   1.0000   0.0000   0.0000   0.0000   0.0000   0.0000   0.0000
     0.0000   0.0000   0.0000   0.0000   0.0000   0.0000   0.0000   0.0000
     0.0000   0.0000   0.0000   0.0000

          k = 0.0000 0.1155-0.3097 (  3282 PWs)   bands (ev):

   -10.6866 -10.6866   1.0249   1.0249   1.3304   1.3304   1.3355   1.3355
     2.4333   2.4333   2.4351   2.4351   4.5412   4.5412   6.1345   6.1345
     6.3011   6.3011  10.4436  10.4436  16.6770  16.6770  19.1762  19.1762
    19.8924  19.8924  24.8466  24.8466  26.7469  26.7469  27.1082  27.1082
    30.0024  30.0024  31.7297  31.7297

     occupation numbers 
     1.0000   1.0000   1.0000   1.0000   1.0000   1.0000   1.0000   1.0000
     1.0000   1.0000   1.0000   1.0000   1.0000   1.0000   1.0000   1.0000
     1.0000   1.0000   0.0000   0.0000   0.0000   0.0000   0.0000   0.0000
     0.0000   0.0000   0.0000   0.0000   0.0000   0.0000   0.0000   0.0000
     0.0000   0.0000   0.0000   0.0000

          k = 0.0000 0.2309 0.0000 (  3278 PWs)   bands (ev):

   -10.8595 -10.3013   1.0590   1.3327   1.3351   1.4392   1.5769   1.6825
     2.2434   2.3225   2.5266   2.6901   2.7412   4.8142   5.4251   5.5564
     6.4338   6.5155   9.3625  13.1900  14.8474  16.9948  18.7306  19.8397
    20.3502  20.8636  21.8620  24.0783  24.9022  27.5151  29.0185  29.6101
    29.7610  30.1572  31.6299  33.1402

     occupation numbers 
     1.0000   1.0000   1.0000   1.0000   1.0000   1.0000   1.0000   1.0000
     1.0000   1.0000   1.0000   1.0000   1.0000   1.0000   1.0000   1.0000
     1.0000   1.0000   0.0000   0.0000   0.0000   0.0000   0.0000   0.0000
     0.0000   0.0000   0.0000   0.0000   0.0000   0.0000   0.0000   0.0000
     0.0000   0.0000   0.0000   0.0000

          k = 0.0000 0.2309 0.0619 (  3284 PWs)   bands (ev):

   -10.8462 -10.3152   1.0486   1.3064   1.3390   1.4257   1.5686   1.6282
     2.2571   2.3284   2.5225   2.6111   2.9507   4.8375   5.3778   5.5809
     6.4120   6.4929   9.4456  13.0528  14.9393  17.0187  18.6887  19.8403
    20.1087  20.7959  21.9575  24.2389  25.0289  27.5911  28.6946  29.7281
    29.8887  30.2977  31.5099  32.9261

     occupation numbers 
     1.0000   1.0000   1.0000   1.0000   1.0000   1.0000   1.0000   1.0000
     1.0000   1.0000   1.0000   1.0000   1.0000   1.0000   1.0000   1.0000
     1.0000   1.0000   0.0000   0.0000   0.0000   0.0000   0.0000   0.0000
     0.0000   0.0000   0.0000   0.0000   0.0000   0.0000   0.0000   0.0000
     0.0000   0.0000   0.0000   0.0000

          k = 0.0000 0.2309 0.1239 (  3294 PWs)   bands (ev):

   -10.8074 -10.3556   1.0200   1.2166   1.3509   1.4026   1.5452   1.5467
     2.2911   2.3452   2.5104   2.5657   3.3021   4.8914   5.2717   5.6518
     6.3293   6.4269   9.6890  12.6984  15.1765  17.0723  18.5414  19.5801
    19.8484  20.6272  22.2316  24.6828  25.1774  27.7631  28.4699  29.4824
    30.1067  30.4489  31.3727  32.7732

     occupation numbers 
     1.0000   1.0000   1.0000   1.0000   1.0000   1.0000   1.0000   1.0000
     1.0000   1.0000   1.0000   1.0000   1.0000   1.0000   1.0000   1.0000
     1.0000   1.0000   0.0000   0.0000   0.0000   0.0000   0.0000   0.0000
     0.0000   0.0000   0.0000   0.0000   0.0000   0.0000   0.0000   0.0000
     0.0000   0.0000   0.0000   0.0000

          k = 0.0000 0.2309 0.1858 (  3291 PWs)   bands (ev):

   -10.7467 -10.4183   0.9831   1.0972   1.3709   1.3930   1.4910   1.5113
     2.3371   2.3705   2.4907   2.5285   3.7000   4.8714   5.2460   5.7610
     6.1651   6.3236  10.0714  12.2165  15.5127  17.0735  18.3060  19.0587
    19.8787  20.4208  22.6771  25.0155  25.3371  27.9456  28.6820  28.8463
    30.0872  30.2237  31.5416  33.2324

     occupation numbers 
     1.0000   1.0000   1.0000   1.0000   1.0000   1.0000   1.0000   1.0000
     1.0000   1.0000   1.0000   1.0000   1.0000   1.0000   1.0000   1.0000
     1.0000   1.0000   0.0000   0.0000   0.0000   0.0000   0.0000   0.0000
     0.0000   0.0000   0.0000   0.0000   0.0000   0.0000   0.0000   0.0000
     0.0000   0.0000   0.0000   0.0000

          k = 0.0000 0.2309 0.2478 (  3286 PWs)   bands (ev):

   -10.6696 -10.4970   0.9557   1.0045   1.3988   1.3993   1.4502   1.4722
     2.3885   2.4012   2.4644   2.4872   4.0834   4.6863   5.4073   5.8969
     5.9284   6.1924  10.5566  11.6696  15.9303  16.8477  18.2036  18.6561
    19.9467  20.2236  23.2605  24.5394  26.1389  27.9707  28.2324  28.9360
    29.6919  30.1577  31.9650  33.0366

     occupation numbers 
     1.0000   1.0000   1.0000   1.0000   1.0000   1.0000   1.0000   1.0000
     1.0000   1.0000   1.0000   1.0000   1.0000   1.0000   1.0000   1.0000
     1.0000   1.0000   0.0000   0.0000   0.0000   0.0000   0.0000   0.0000
     0.0000   0.0000   0.0000   0.0000   0.0000   0.0000   0.0000   0.0000
     0.0000   0.0000   0.0000   0.0000

          k = 0.0000 0.2309-0.3097 (  3278 PWs)   bands (ev):

   -10.5836 -10.5836   0.9582   0.9582   1.4192   1.4192   1.4334   1.4334
     2.4337   2.4337   2.4399   2.4399   4.4162   4.4162   5.6577   5.6577
     6.0456   6.0456  11.1030  11.1030  16.4046  16.4046  18.3568  18.3568
    20.0617  20.0617  23.9121  23.9121  27.0363  27.0363  28.6346  28.6346
    29.8891  29.8891  32.4952  32.4952

     occupation numbers 
     1.0000   1.0000   1.0000   1.0000   1.0000   1.0000   1.0000   1.0000
     1.0000   1.0000   1.0000   1.0000   1.0000   1.0000   1.0000   1.0000
     1.0000   1.0000   0.0000   0.0000   0.0000   0.0000   0.0000   0.0000
     0.0000   0.0000   0.0000   0.0000   0.0000   0.0000   0.0000   0.0000
     0.0000   0.0000   0.0000   0.0000

          k = 0.0000 0.3464 0.0000 (  3282 PWs)   bands (ev):

   -10.6706 -10.2391   0.9758   1.3085   1.4121   1.5765   1.7486   1.9174
     2.2153   2.3654   2.5379   2.6985   2.9218   3.9288   4.7459   5.1358
     6.1127   6.2707  10.5482  13.9954  14.7660  15.7436  17.7761  19.3245
    20.0203  20.6553  22.1747  24.7343  25.0005  26.5544  29.7941  30.9605
    31.6041  32.1682  32.2127  33.8807

     occupation numbers 
     1.0000   1.0000   1.0000   1.0000   1.0000   1.0000   1.0000   1.0000
     1.0000   1.0000   1.0000   1.0000   1.0000   1.0000   1.0000   1.0000
     1.0000   1.0000   0.0000   0.0000   0.0000   0.0000   0.0000   0.0000
     0.0000   0.0000   0.0000   0.0000   0.0000   0.0000   0.0000   0.0000
     0.0000   0.0000   0.0000   0.0000

          k = 0.0000 0.3464 0.0619 (  3281 PWs)   bands (ev):

   -10.6599 -10.2495   0.9651   1.2776   1.4183   1.5668   1.7378   1.8457
     2.2340   2.3695   2.5331   2.6607   3.0754   3.9700   4.7187   5.1659
     6.1143   6.2443  10.5869  13.7928  14.8902  15.7701  17.7698  19.3345
    20.0216  20.6248  21.9417  24.8746  25.1290  26.7522  29.2918  31.0945
    31.7377  32.0824  32.3567  33.6552

     occupation numbers 
     1.0000   1.0000   1.0000   1.0000   1.0000   1.0000   1.0000   1.0000
     1.0000   1.0000   1.0000   1.0000   1.0000   1.0000   1.0000   1.0000
     1.0000   1.0000   0.0000   0.0000   0.0000   0.0000   0.0000   0.0000
     0.0000   0.0000   0.0000   0.0000   0.0000   0.0000   0.0000   0.0000
     0.0000   0.0000   0.0000   0.0000

          k = 0.0000 0.3464 0.1239 (  3274 PWs)   bands (ev):

   -10.6289 -10.2795   0.9371   1.1878   1.4368   1.5457   1.7074   1.7277
     2.2779   2.3813   2.5197   2.6161   3.3532   4.0821   4.6775   5.2522
     6.0897   6.1675  10.7145  13.3600  15.1124  15.8373  17.7339  19.2991
    20.0302  20.5421  21.6104  24.9411  25.5017  27.2921  28.6491  30.8819
    31.1968  32.5088  32.5814  33.7217

     occupation numbers 
     1.0000   1.0000   1.0000   1.0000   1.0000   1.0000   1.0000   1.0000
     1.0000   1.0000   1.0000   1.0000   1.0000   1.0000   1.0000   1.0000
     1.0000   1.0000   0.0000   0.0000   0.0000   0.0000   0.0000   0.0000
     0.0000   0.0000   0.0000   0.0000   0.0000   0.0000   0.0000   0.0000
     0.0000   0.0000   0.0000   0.0000

          k = 0.0000 0.3464 0.1858 (  3286 PWs)   bands (ev):

   -10.5806 -10.3266   0.9046   1.0678   1.4670   1.5305   1.6424   1.6625
     2.3352   2.3997   2.4996   2.5706   3.6047   4.1620   4.7668   5.3839
     5.9831   6.0471  10.9537  12.8412  15.3404  15.8997  17.7041  19.0325
    20.0569  20.4282  21.6894  24.5812  26.0877  27.9284  28.3672  29.8364
    31.3032  32.3300  32.7063  33.5966

     occupation numbers 
     1.0000   1.0000   1.0000   1.0000   1.0000   1.0000   1.0000   1.0000
     1.0000   1.0000   1.0000   1.0000   1.0000   1.0000   1.0000   1.0000
     1.0000   1.0000   0.0000   0.0000   0.0000   0.0000   0.0000   0.0000
     0.0000   0.0000   0.0000   0.0000   0.0000   0.0000   0.0000   0.0000
     0.0000   0.0000   0.0000   0.0000

          k = 0.0000 0.3464 0.2478 (  3284 PWs)   bands (ev):

   -10.5200 -10.3864   0.8869   0.9642   1.5077   1.5317   1.5868   1.6101
     2.3981   2.4229   2.4752   2.5188   3.8015   4.0982   5.0706   5.5459
     5.7623   5.8938  11.3126  12.2969  15.5616  15.8837  17.8043  18.5651
    20.1113  20.3064  22.2306  23.8616  26.8510  28.3427  28.4119  28.7673
    31.4706  32.0339  32.9333  33.3894

     occupation numbers 
     1.0000   1.0000   1.0000   1.0000   1.0000   1.0000   1.0000   1.0000
     1.0000   1.0000   1.0000   1.0000   1.0000   1.0000   1.0000   1.0000
     1.0000   1.0000   0.0000   0.0000   0.0000   0.0000   0.0000   0.0000
     0.0000   0.0000   0.0000   0.0000   0.0000   0.0000   0.0000   0.0000
     0.0000   0.0000   0.0000   0.0000

          k = 0.0000 0.3464-0.3097 (  3294 PWs)   bands (ev):

   -10.4530 -10.4530   0.9029   0.9029   1.5507   1.5507   1.5567   1.5567
     2.4488   2.4488   2.4605   2.4605   3.9644   3.9644   5.4398   5.4398
     5.7215   5.7215  11.7729  11.7729  15.7574  15.7574  18.1084  18.1084
    20.1963  20.1963  23.0154  23.0154  27.7563  27.7563  28.4718  28.4718
    31.7371  31.7371  33.1668  33.1668

     occupation numbers 
     1.0000   1.0000   1.0000   1.0000   1.0000   1.0000   1.0000   1.0000
     1.0000   1.0000   1.0000   1.0000   1.0000   1.0000   1.0000   1.0000
     1.0000   1.0000   0.0000   0.0000   0.0000   0.0000   0.0000   0.0000
     0.0000   0.0000   0.0000   0.0000   0.0000   0.0000   0.0000   0.0000
     0.0000   0.0000   0.0000   0.0000

          k = 0.0000 0.4619 0.0000 (  3286 PWs)   bands (ev):

   -10.4939 -10.2070   0.9906   1.2786   1.4584   1.7516   1.9111   1.9136
     2.3197   2.4378   2.5503   2.7465   2.9730   3.4566   4.2089   4.7721
     5.7355   6.0601  11.6954  14.2015  14.2939  15.1618  17.3236  18.9776
    19.9049  20.6921  22.3442  24.8513  25.7280  26.3029  29.6056  30.7966
    32.0776  32.6787  33.7031  34.1080

     occupation numbers 
     1.0000   1.0000   1.0000   1.0000   1.0000   1.0000   1.0000   1.0000
     1.0000   1.0000   1.0000   1.0000   1.0000   1.0000   1.0000   1.0000
     1.0000   1.0000   0.0000   0.0000   0.0000   0.0000   0.0000   0.0000
     0.0000   0.0000   0.0000   0.0000   0.0000   0.0000   0.0000   0.0000
     0.0000   0.0000   0.0000   0.0000

          k = 0.0000 0.4619 0.0619 (  3280 PWs)   bands (ev):

   -10.4864 -10.2134   0.9769   1.2443   1.4669   1.7395   1.8828   1.8969
     2.3291   2.4396   2.5455   2.7204   3.0098   3.5160   4.2406   4.8079
     5.7612   6.0308  11.6869  13.9052  14.5453  15.1749  17.3095  19.0484
    19.9194  20.6686  22.0021  24.9519  26.0956  26.4093  28.8840  31.1952
    32.3723  32.5441  33.3681  34.0256

     occupation numbers 
     1.0000   1.0000   1.0000   1.0000   1.0000   1.0000   1.0000   1.0000
     1.0000   1.0000   1.0000   1.0000   1.0000   1.0000   1.0000   1.0000
     1.0000   1.0000   0.0000   0.0000   0.0000   0.0000   0.0000   0.0000
     0.0000   0.0000   0.0000   0.0000   0.0000   0.0000   0.0000   0.0000
     0.0000   0.0000   0.0000   0.0000

          k = 0.0000 0.4619 0.1239 (  3281 PWs)   bands (ev):

   -10.4646 -10.2322   0.9414   1.1524   1.4923   1.7127   1.8209   1.8565
     2.3601   2.4451   2.5327   2.6716   3.0872   3.5894   4.3978   4.9097
     5.8058   5.9454  11.6869  13.5210  14.7906  15.2091  17.2931  19.1749
    19.9629  20.6014  21.4378  24.9629  26.7242  26.9328  28.0012  31.2893
    31.8533  32.9421  33.0711  33.8597

     occupation numbers 
     1.0000   1.0000   1.0000   1.0000   1.0000   1.0000   1.0000   1.0000
     1.0000   1.0000   1.0000   1.0000   1.0000   1.0000   1.0000   1.0000
     1.0000   1.0000   0.0000   0.0000   0.0000   0.0000   0.0000   0.0000
     0.0000   0.0000   0.0000   0.0000   0.0000   0.0000   0.0000   0.0000
     0.0000   0.0000   0.0000   0.0000

          k = 0.0000 0.4619 0.1858 (  3288 PWs)   bands (ev):

   -10.4310 -10.2620   0.9001   1.0376   1.5336   1.6905   1.7650   1.7968
     2.4071   2.4541   2.5158   2.6205   3.1802   3.5683   4.7143   5.0629
     5.7989   5.8115  11.7539  13.0949  14.9812  15.2455  17.3553  19.0413
    20.0351  20.5001  21.3198  24.5204  27.2354  27.6498  27.7744  30.8061
    31.2605  32.9296  33.0528  33.6561

     occupation numbers 
     1.0000   1.0000   1.0000   1.0000   1.0000   1.0000   1.0000   1.0000
     1.0000   1.0000   1.0000   1.0000   1.0000   1.0000   1.0000   1.0000
     1.0000   1.0000   0.0000   0.0000   0.0000   0.0000   0.0000   0.0000
     0.0000   0.0000   0.0000   0.0000   0.0000   0.0000   0.0000   0.0000
     0.0000   0.0000   0.0000   0.0000

          k = 0.0000 0.4619 0.2478 (  3290 PWs)   bands (ev):

   -10.3895 -10.3005   0.8747   0.9405   1.5888   1.6843   1.7231   1.7266
     2.4608   2.4663   2.4980   2.5687   3.2817   3.4874   5.0920   5.2485
     5.6406   5.6809  11.9389  12.6550  15.1166  15.2510  17.5852  18.5501
    20.1336  20.3784  21.8368  23.6552  27.8403  27.9252  28.1956  29.7458
    31.4616  32.5282  33.1304  33.4499

     occupation numbers 
     1.0000   1.0000   1.0000   1.0000   1.0000   1.0000   1.0000   1.0000
     1.0000   1.0000   1.0000   1.0000   1.0000   1.0000   1.0000   1.0000
     1.0000   1.0000   0.0000   0.0000   0.0000   0.0000   0.0000   0.0000
     0.0000   0.0000   0.0000   0.0000   0.0000   0.0000   0.0000   0.0000
     0.0000   0.0000   0.0000   0.0000

          k = 0.0000 0.4619-0.3097 (  3302 PWs)   bands (ev):

   -10.3444 -10.3444   0.8847   0.8847   1.6549   1.6549   1.6957   1.6957
     2.4811   2.4811   2.5154   2.5154   3.3865   3.3865   5.4354   5.4354
     5.4473   5.4473  12.2510  12.2510  15.2065  15.2065  18.0048  18.0048
    20.2516  20.2516  22.6889  22.6889  28.1348  28.1348  28.7713  28.7713
    31.9640  31.9640  33.2681  33.2681

     occupation numbers 
     1.0000   1.0000   1.0000   1.0000   1.0000   1.0000   1.0000   1.0000
     1.0000   1.0000   1.0000   1.0000   1.0000   1.0000   1.0000   1.0000
     1.0000   1.0000   0.0000   0.0000   0.0000   0.0000   0.0000   0.0000
     0.0000   0.0000   0.0000   0.0000   0.0000   0.0000   0.0000   0.0000
     0.0000   0.0000   0.0000   0.0000

          k = 0.0000-0.5774 0.0000 (  3298 PWs)   bands (ev):

   -10.4125 -10.2073   1.0392   1.2554   1.4718   1.8470   1.8698   1.9793
     2.3561   2.4785   2.5567   2.6266   3.0929   3.3351   4.0466   4.6227
     5.5359   5.9761  12.4098  13.6007  14.3050  15.0600  17.1763  19.0502
    19.8096  20.7591  22.3355  24.9010  25.4959  26.9985  29.4464  31.2483
    31.2623  32.5516  33.8281  34.1880

     occupation numbers 
     1.0000   1.0000   1.0000   1.0000   1.0000   1.0000   1.0000   1.0000
     1.0000   1.0000   1.0000   1.0000   1.0000   1.0000   1.0000   1.0000
     1.0000   1.0000   0.0000   0.0000   0.0000   0.0000   0.0000   0.0000
     0.0000   0.0000   0.0000   0.0000   0.0000   0.0000   0.0000   0.0000
     0.0000   0.0000   0.0000   0.0000

          k = 0.0000-0.5774 0.0619 (  3290 PWs)   bands (ev):

   -10.4068 -10.2116   1.0229   1.2177   1.4813   1.8390   1.8519   1.9633
     2.3815   2.4794   2.5518   2.6266   3.0752   3.3143   4.1560   4.6614
     5.5718   5.9457  12.3469  13.5384  14.3760  15.0786  17.1501  19.1224
    19.8307  20.7337  21.9764  24.9661  25.9501  27.0986  28.7031  31.1810
    31.9870  32.5415  33.4439  34.1039

     occupation numbers 
     1.0000   1.0000   1.0000   1.0000   1.0000   1.0000   1.0000   1.0000
     1.0000   1.0000   1.0000   1.0000   1.0000   1.0000   1.0000   1.0000
     1.0000   1.0000   0.0000   0.0000   0.0000   0.0000   0.0000   0.0000
     0.0000   0.0000   0.0000   0.0000   0.0000   0.0000   0.0000   0.0000
     0.0000   0.0000   0.0000   0.0000

          k = 0.0000-0.5774 0.1239 (  3294 PWs)   bands (ev):

   -10.3904 -10.2242   0.9801   1.1230   1.5096   1.8178   1.8193   1.9178
     2.4376   2.4819   2.5394   2.6254   3.0468   3.2619   4.4338   4.7706
     5.6483   5.8570  12.2225  13.3557  14.5403  15.1164  17.1226  19.2400
    19.8926  20.6606  21.3881  25.0094  26.8779  27.3961  27.7152  31.0232
    32.2955  32.7591  32.8033  33.8858

     occupation numbers 
     1.0000   1.0000   1.0000   1.0000   1.0000   1.0000   1.0000   1.0000
     1.0000   1.0000   1.0000   1.0000   1.0000   1.0000   1.0000   1.0000
     1.0000   1.0000   0.0000   0.0000   0.0000   0.0000   0.0000   0.0000
     0.0000   0.0000   0.0000   0.0000   0.0000   0.0000   0.0000   0.0000
     0.0000   0.0000   0.0000   0.0000

          k = 0.0000-0.5774 0.1858 (  3286 PWs)   bands (ev):

   -10.3654 -10.2444   0.9280   1.0134   1.5555   1.7900   1.7968   1.8504
     2.4862   2.4972   2.5249   2.6203   3.0356   3.1971   4.7916   4.9337
     5.6933   5.7178  12.1521  13.0724  14.7218  15.1318  17.2044  19.0630
    19.9907  20.5486  21.2746  24.5911  27.3415  27.7455  27.8822  30.9288
    31.3392  32.7663  32.7826  33.6040

     occupation numbers 
     1.0000   1.0000   1.0000   1.0000   1.0000   1.0000   1.0000   1.0000
     1.0000   1.0000   1.0000   1.0000   1.0000   1.0000   1.0000   1.0000
     1.0000   1.0000   0.0000   0.0000   0.0000   0.0000   0.0000   0.0000
     0.0000   0.0000   0.0000   0.0000   0.0000   0.0000   0.0000   0.0000
     0.0000   0.0000   0.0000   0.0000

          k = 0.0000-0.5774 0.2478 (  3302 PWs)   bands (ev):

   -10.3348 -10.2712   0.8895   0.9274   1.6171   1.7713   1.7743   1.7792
     2.4924   2.5115   2.5476   2.6078   3.0484   3.1346   5.1297   5.1525
     5.5399   5.6376  12.2147  12.7369  14.8812  15.0949  17.4755  18.5216
    20.1174  20.4106  21.8086  23.6821  27.5923  28.1421  28.5431  30.3074
    31.1620  32.3567  32.8833  33.3197

     occupation numbers 
     1.0000   1.0000   1.0000   1.0000   1.0000   1.0000   1.0000   1.0000
     1.0000   1.0000   1.0000   1.0000   1.0000   1.0000   1.0000   1.0000
     1.0000   1.0000   0.0000   0.0000   0.0000   0.0000   0.0000   0.0000
     0.0000   0.0000   0.0000   0.0000   0.0000   0.0000   0.0000   0.0000
     0.0000   0.0000   0.0000   0.0000

          k = 0.0000-0.5774-0.3097 (  3300 PWs)   bands (ev):

   -10.3023 -10.3023   0.8854   0.8854   1.6909   1.6909   1.7710   1.7710
     2.5007   2.5007   2.5844   2.5844   3.0830   3.0830   5.3381   5.3381
     5.4513   5.4513  12.4249  12.4249  15.0076  15.0076  17.9364  17.9364
    20.2619  20.2619  22.6801  22.6801  27.9843  27.9843  29.3602  29.3602
    31.7409  31.7409  33.0723  33.0723

     occupation numbers 
     1.0000   1.0000   1.0000   1.0000   1.0000   1.0000   1.0000   1.0000
     1.0000   1.0000   1.0000   1.0000   1.0000   1.0000   1.0000   1.0000
     1.0000   1.0000   0.0000   0.0000   0.0000   0.0000   0.0000   0.0000
     0.0000   0.0000   0.0000   0.0000   0.0000   0.0000   0.0000   0.0000
     0.0000   0.0000   0.0000   0.0000

          k = 0.1000 0.1732 0.0000 (  3281 PWs)   bands (ev):

   -10.9038 -10.3186   1.1120   1.2760   1.3507   1.4057   1.5438   1.6172
     2.2651   2.3126   2.5228   2.6516   2.7453   5.1630   5.3889   5.7945
     6.5024   6.5426   9.0654  12.9430  14.8573  17.4734  18.9134  19.8379
    20.1992  21.2990  22.4664  22.7152  26.6568  26.8890  28.1101  28.5127
    29.8010  29.9322  31.6094  32.9123

     occupation numbers 
     1.0000   1.0000   1.0000   1.0000   1.0000   1.0000   1.0000   1.0000
     1.0000   1.0000   1.0000   1.0000   1.0000   1.0000   1.0000   1.0000
     1.0000   1.0000   0.0000   0.0000   0.0000   0.0000   0.0000   0.0000
     0.0000   0.0000   0.0000   0.0000   0.0000   0.0000   0.0000   0.0000
     0.0000   0.0000   0.0000   0.0000

          k = 0.1000 0.1732 0.0619 (  3288 PWs)   bands (ev):

   -10.8900 -10.3334   1.1012   1.2664   1.3471   1.3824   1.5360   1.5706
     2.2753   2.3202   2.5190   2.5938   2.9319   5.1897   5.3683   5.7741
     6.4792   6.5205   9.1625  12.8189  14.9450  17.4925  18.9225  19.7980
    19.9143  21.1026  22.7799  22.8562  26.7444  26.7739  28.2911  28.5978
    29.7879  29.8563  31.5445  32.9341

     occupation numbers 
     1.0000   1.0000   1.0000   1.0000   1.0000   1.0000   1.0000   1.0000
     1.0000   1.0000   1.0000   1.0000   1.0000   1.0000   1.0000   1.0000
     1.0000   1.0000   0.0000   0.0000   0.0000   0.0000   0.0000   0.0000
     0.0000   0.0000   0.0000   0.0000   0.0000   0.0000   0.0000   0.0000
     0.0000   0.0000   0.0000   0.0000

          k = 0.1000 0.1732 0.1239 (  3292 PWs)   bands (ev):

   -10.8496 -10.3760   1.0702   1.2047   1.3412   1.3471   1.5039   1.5144
     2.3037   2.3395   2.5075   2.5536   3.2798   5.2695   5.2721   5.7682
     6.3962   6.4561   9.4389  12.4892  15.1822  17.5309  18.9220  19.2654
    19.7215  20.7867  23.2479  23.3333  26.4205  27.0486  28.6785  28.7798
    29.4008  29.9644  31.4931  32.9451

     occupation numbers 
     1.0000   1.0000   1.0000   1.0000   1.0000   1.0000   1.0000   1.0000
     1.0000   1.0000   1.0000   1.0000   1.0000   1.0000   1.0000   1.0000
     1.0000   1.0000   0.0000   0.0000   0.0000   0.0000   0.0000   0.0000
     0.0000   0.0000   0.0000   0.0000   0.0000   0.0000   0.0000   0.0000
     0.0000   0.0000   0.0000   0.0000

          k = 0.1000 0.1732 0.1858 (  3283 PWs)   bands (ev):

   -10.7862 -10.4421   1.0277   1.0973   1.3414   1.3471   1.4590   1.4836
     2.3446   2.3667   2.4885   2.5202   3.6887   5.0765   5.4009   5.8305
     6.2438   6.3557   9.8560  12.0275  15.5355  17.4855  18.6381  18.8498
    19.7007  20.4733  23.8114  23.8595  26.0788  27.3348  28.3022  29.0042
    29.7135  29.9395  31.4116  32.8114

     occupation numbers 
     1.0000   1.0000   1.0000   1.0000   1.0000   1.0000   1.0000   1.0000
     1.0000   1.0000   1.0000   1.0000   1.0000   1.0000   1.0000   1.0000
     1.0000   1.0000   0.0000   0.0000   0.0000   0.0000   0.0000   0.0000
     0.0000   0.0000   0.0000   0.0000   0.0000   0.0000   0.0000   0.0000
     0.0000   0.0000   0.0000   0.0000

          k = 0.1000 0.1732 0.2478 (  3289 PWs)   bands (ev):

   -10.7058 -10.5248   0.9914   1.0158   1.3506   1.3604   1.4286   1.4503
     2.3916   2.3986   2.4627   2.4826   4.1013   4.8078   5.5798   5.9299
     6.0495   6.2297  10.3662  11.4915  15.9928  17.1176  18.4092  18.6909
    19.7839  20.1888  24.2894  24.3765  25.8963  26.9775  28.2636  29.1593
    29.7431  30.0667  31.4462  32.4041

     occupation numbers 
     1.0000   1.0000   1.0000   1.0000   1.0000   1.0000   1.0000   1.0000
     1.0000   1.0000   1.0000   1.0000   1.0000   1.0000   1.0000   1.0000
     1.0000   1.0000   0.0000   0.0000   0.0000   0.0000   0.0000   0.0000
     0.0000   0.0000   0.0000   0.0000   0.0000   0.0000   0.0000   0.0000
     0.0000   0.0000   0.0000   0.0000

          k = 0.1000 0.1732-0.3097 (  3278 PWs)   bands (ev):

   -10.6157 -10.6157   0.9821   0.9821   1.3632   1.3632   1.4249   1.4249
     2.4312   2.4312   2.4396   2.4396   4.4805   4.4805   5.7931   5.7931
     6.0932   6.0932  10.9247  10.9247  16.5416  16.5416  18.5078  18.5078
    19.9537  19.9537  24.5462  24.5462  26.2257  26.2257  28.7885  28.7885
    29.9001  29.9001  31.8823  31.8823

     occupation numbers 
     1.0000   1.0000   1.0000   1.0000   1.0000   1.0000   1.0000   1.0000
     1.0000   1.0000   1.0000   1.0000   1.0000   1.0000   1.0000   1.0000
     1.0000   1.0000   0.0000   0.0000   0.0000   0.0000   0.0000   0.0000
     0.0000   0.0000   0.0000   0.0000   0.0000   0.0000   0.0000   0.0000
     0.0000   0.0000   0.0000   0.0000

          k = 0.1000 0.2887 0.0000 (  3289 PWs)   bands (ev):

   -10.7388 -10.2589   1.0401   1.2904   1.3938   1.4949   1.6960   1.8439
     2.2200   2.3337   2.5324   2.7083   2.8518   4.3654   4.8231   5.2817
     6.2515   6.2760  10.1758  13.8090  14.9031  16.2677  17.9939  19.1959
    19.6968  21.3207  22.1138  23.3118  26.4026  27.6148  28.7369  29.9509
    31.2276  31.2892  32.4372  32.8137

     occupation numbers 
     1.0000   1.0000   1.0000   1.0000   1.0000   1.0000   1.0000   1.0000
     1.0000   1.0000   1.0000   1.0000   1.0000   1.0000   1.0000   1.0000
     1.0000   1.0000   0.0000   0.0000   0.0000   0.0000   0.0000   0.0000
     0.0000   0.0000   0.0000   0.0000   0.0000   0.0000   0.0000   0.0000
     0.0000   0.0000   0.0000   0.0000

          k = 0.1000 0.2887 0.0619 (  3290 PWs)   bands (ev):

   -10.7271 -10.2706   1.0285   1.2701   1.3918   1.4853   1.6862   1.7717
     2.2361   2.3439   2.5279   2.6528   3.0337   4.3983   4.8126   5.2853
     6.2374   6.2569  10.2314  13.6391  14.9964  16.2919  18.0349  19.1103
    19.6090  21.2950  22.0831  23.4709  26.3540  27.7994  28.7556  29.9238
    30.6648  31.3862  32.6207  33.1358

     occupation numbers 
     1.0000   1.0000   1.0000   1.0000   1.0000   1.0000   1.0000   1.0000
     1.0000   1.0000   1.0000   1.0000   1.0000   1.0000   1.0000   1.0000
     1.0000   1.0000   0.0000   0.0000   0.0000   0.0000   0.0000   0.0000
     0.0000   0.0000   0.0000   0.0000   0.0000   0.0000   0.0000   0.0000
     0.0000   0.0000   0.0000   0.0000

          k = 0.1000 0.2887 0.1239 (  3288 PWs)   bands (ev):

   -10.6931 -10.3045   0.9974   1.1968   1.3945   1.4653   1.6517   1.6650
     2.2763   2.3635   2.5151   2.6043   3.3601   4.4804   4.7908   5.3217
     6.1625   6.2089  10.4041  13.2334  15.2050  16.3495  18.0743  18.8816
    19.4749  21.0934  22.2201  23.8413  26.1582  28.2964  28.8264  29.1916
    30.6533  31.4882  32.5617  33.4971

     occupation numbers 
     1.0000   1.0000   1.0000   1.0000   1.0000   1.0000   1.0000   1.0000
     1.0000   1.0000   1.0000   1.0000   1.0000   1.0000   1.0000   1.0000
     1.0000   1.0000   0.0000   0.0000   0.0000   0.0000   0.0000   0.0000
     0.0000   0.0000   0.0000   0.0000   0.0000   0.0000   0.0000   0.0000
     0.0000   0.0000   0.0000   0.0000

          k = 0.1000 0.2887 0.1858 (  3289 PWs)   bands (ev):

   -10.6400 -10.3575   0.9591   1.0866   1.4074   1.4531   1.5815   1.6231
     2.3310   2.3869   2.4955   2.5602   3.6932   4.4926   4.8833   5.4155
     6.0331   6.0885  10.7010  12.7176  15.4699  16.3891  17.9908  18.5675
    19.5205  20.7441  22.6236  24.2171  25.9048  28.0536  28.8788  29.1098
    30.9593  31.7016  32.3116  33.0419

     occupation numbers 
     1.0000   1.0000   1.0000   1.0000   1.0000   1.0000   1.0000   1.0000
     1.0000   1.0000   1.0000   1.0000   1.0000   1.0000   1.0000   1.0000
     1.0000   1.0000   0.0000   0.0000   0.0000   0.0000   0.0000   0.0000
     0.0000   0.0000   0.0000   0.0000   0.0000   0.0000   0.0000   0.0000
     0.0000   0.0000   0.0000   0.0000

          k = 0.1000 0.2887 0.2478 (  3281 PWs)   bands (ev):

   -10.5730 -10.4245   0.9333   0.9914   1.4254   1.4512   1.5461   1.5820
     2.3915   2.4133   2.4711   2.5107   3.9725   4.3711   5.1594   5.5493
     5.8307   5.9145  11.1132  12.1616  15.7748  16.3167  17.9065  18.2466
    19.7438  20.3801  23.1905  24.2526  25.9225  27.1416  29.1659  29.4068
    31.2477  31.8292  32.1072  32.6871

     occupation numbers 
     1.0000   1.0000   1.0000   1.0000   1.0000   1.0000   1.0000   1.0000
     1.0000   1.0000   1.0000   1.0000   1.0000   1.0000   1.0000   1.0000
     1.0000   1.0000   0.0000   0.0000   0.0000   0.0000   0.0000   0.0000
     0.0000   0.0000   0.0000   0.0000   0.0000   0.0000   0.0000   0.0000
     0.0000   0.0000   0.0000   0.0000

          k = 0.1000 0.2887-0.3097 (  3276 PWs)   bands (ev):

   -10.4987 -10.4987   0.9397   0.9397   1.4428   1.4428   1.5498   1.5498
     2.4377   2.4377   2.4581   2.4581   4.1937   4.1937   5.4884   5.4884
     5.7502   5.7502  11.6129  11.6129  16.0852  16.0852  17.9980  17.9980
    20.0431  20.0431  23.8051  23.8051  26.3986  26.3986  29.3927  29.3927
    31.5334  31.5334  32.3798  32.3798

     occupation numbers 
     1.0000   1.0000   1.0000   1.0000   1.0000   1.0000   1.0000   1.0000
     1.0000   1.0000   1.0000   1.0000   1.0000   1.0000   1.0000   1.0000
     1.0000   1.0000   0.0000   0.0000   0.0000   0.0000   0.0000   0.0000
     0.0000   0.0000   0.0000   0.0000   0.0000   0.0000   0.0000   0.0000
     0.0000   0.0000   0.0000   0.0000

          k = 0.1000 0.4041 0.0000 (  3285 PWs)   bands (ev):

   -10.5538 -10.2132   1.0264   1.3090   1.4325   1.6503   1.8627   1.9631
     2.2502   2.3824   2.5474   2.7411   3.0074   3.6750   4.3815   4.7160
     5.8830   6.0118  11.3640  14.2686  14.8196  15.3429  17.5083  18.6300
    19.3549  20.8823  22.3965  24.4127  26.3456  26.8534  29.5504  31.0708
    31.3927  32.4596  33.0565  33.7817

     occupation numbers 
     1.0000   1.0000   1.0000   1.0000   1.0000   1.0000   1.0000   1.0000
     1.0000   1.0000   1.0000   1.0000   1.0000   1.0000   1.0000   1.0000
     1.0000   1.0000   0.0000   0.0000   0.0000   0.0000   0.0000   0.0000
     0.0000   0.0000   0.0000   0.0000   0.0000   0.0000   0.0000   0.0000
     0.0000   0.0000   0.0000   0.0000

          k = 0.1000 0.4041 0.0619 (  3285 PWs)   bands (ev):

   -10.5450 -10.2211   1.0136   1.2810   1.4370   1.6408   1.8492   1.9017
     2.2571   2.3991   2.5432   2.7134   3.0965   3.7337   4.3815   4.7475
     5.8938   5.9870  11.3820  14.0755  14.9294  15.3646  17.5022  18.6746
    19.2873  20.9168  22.2815  24.4562  26.2280  27.2608  29.1106  30.9291
    31.5339  32.3837  33.2328  33.7075

     occupation numbers 
     1.0000   1.0000   1.0000   1.0000   1.0000   1.0000   1.0000   1.0000
     1.0000   1.0000   1.0000   1.0000   1.0000   1.0000   1.0000   1.0000
     1.0000   1.0000   0.0000   0.0000   0.0000   0.0000   0.0000   0.0000
     0.0000   0.0000   0.0000   0.0000   0.0000   0.0000   0.0000   0.0000
     0.0000   0.0000   0.0000   0.0000

          k = 0.1000 0.4041 0.1239 (  3286 PWs)   bands (ev):

   -10.5198 -10.2440   0.9801   1.1984   1.4536   1.6189   1.7898   1.8136
     2.2934   2.4213   2.5320   2.6670   3.2543   3.8480   4.4435   4.8437
     5.8588   5.9527  11.4509  13.6776  15.1001  15.4253  17.4529  18.7270
    19.2176  20.9612  22.0827  24.5337  26.1573  27.9680  28.4851  30.2823
    31.7982  32.4028  33.1504  33.8816

     occupation numbers 
     1.0000   1.0000   1.0000   1.0000   1.0000   1.0000   1.0000   1.0000
     1.0000   1.0000   1.0000   1.0000   1.0000   1.0000   1.0000   1.0000
     1.0000   1.0000   0.0000   0.0000   0.0000   0.0000   0.0000   0.0000
     0.0000   0.0000   0.0000   0.0000   0.0000   0.0000   0.0000   0.0000
     0.0000   0.0000   0.0000   0.0000

          k = 0.1000 0.4041 0.1858 (  3283 PWs)   bands (ev):

   -10.4807 -10.2802   0.9407   1.0859   1.4838   1.5991   1.7082   1.7604
     2.3501   2.4388   2.5173   2.6157   3.4003   3.8611   4.6863   4.9993
     5.7272   5.9054  11.6055  13.2044  15.2510  15.4983  17.3976  18.4647
    19.4910  20.8652  22.1118  24.3813  26.2525  27.9938  28.7090  29.6327
    31.9057  32.4149  32.9952  33.7795

     occupation numbers 
     1.0000   1.0000   1.0000   1.0000   1.0000   1.0000   1.0000   1.0000
     1.0000   1.0000   1.0000   1.0000   1.0000   1.0000   1.0000   1.0000
     1.0000   1.0000   0.0000   0.0000   0.0000   0.0000   0.0000   0.0000
     0.0000   0.0000   0.0000   0.0000   0.0000   0.0000   0.0000   0.0000
     0.0000   0.0000   0.0000   0.0000

          k = 0.1000 0.4041 0.2478 (  3286 PWs)   bands (ev):

   -10.4320 -10.3265   0.9168   0.9867   1.5236   1.5867   1.6633   1.7045
     2.4114   2.4534   2.5040   2.5607   3.5341   3.7777   5.0211   5.2048
     5.5540   5.7614  11.8736  12.7130  15.3807  15.5284  17.4560  18.0599
    19.9009  20.6102  22.4869  23.8224  26.6431  27.7148  28.9269  29.2950
    32.1180  32.4618  32.9272  33.4076

     occupation numbers 
     1.0000   1.0000   1.0000   1.0000   1.0000   1.0000   1.0000   1.0000
     1.0000   1.0000   1.0000   1.0000   1.0000   1.0000   1.0000   1.0000
     1.0000   1.0000   0.0000   0.0000   0.0000   0.0000   0.0000   0.0000
     0.0000   0.0000   0.0000   0.0000   0.0000   0.0000   0.0000   0.0000
     0.0000   0.0000   0.0000   0.0000

          k = 0.1000 0.4041-0.3097 (  3282 PWs)   bands (ev):

   -10.3788 -10.3788   0.9286   0.9286   1.5632   1.5632   1.6638   1.6638
     2.4541   2.4541   2.5121   2.5121   3.6613   3.6613   5.2831   5.2831
     5.5314   5.5314  12.2535  12.2535  15.4826  15.4826  17.6902  17.6902
    20.2830  20.2830  23.1076  23.1076  27.2070  27.2070  29.0876  29.0876
    32.4170  32.4170  33.0242  33.0242

     occupation numbers 
     1.0000   1.0000   1.0000   1.0000   1.0000   1.0000   1.0000   1.0000
     1.0000   1.0000   1.0000   1.0000   1.0000   1.0000   1.0000   1.0000
     1.0000   1.0000   0.0000   0.0000   0.0000   0.0000   0.0000   0.0000
     0.0000   0.0000   0.0000   0.0000   0.0000   0.0000   0.0000   0.0000
     0.0000   0.0000   0.0000   0.0000

          k = 0.1000 0.5196 0.0000 (  3286 PWs)   bands (ev):

   -10.4159 -10.2055   1.0707   1.3460   1.4561   1.7873   1.8934   1.9960
     2.3376   2.4285   2.5661   2.6849   3.0301   3.4474   4.0386   4.4947
     5.5188   5.8453  12.4292  14.0595  14.3386  15.1028  17.2351  18.9460
    19.1814  20.4659  22.4219  25.2522  26.2343  26.8324  29.3567  31.1885
    31.8715  32.1084  33.7870  34.0155

     occupation numbers 
     1.0000   1.0000   1.0000   1.0000   1.0000   1.0000   1.0000   1.0000
     1.0000   1.0000   1.0000   1.0000   1.0000   1.0000   1.0000   1.0000
     1.0000   1.0000   0.0000   0.0000   0.0000   0.0000   0.0000   0.0000
     0.0000   0.0000   0.0000   0.0000   0.0000   0.0000   0.0000   0.0000
     0.0000   0.0000   0.0000   0.0000

          k = 0.1000 0.5196 0.0619 (  3287 PWs)   bands (ev):

   -10.4100 -10.2099   1.0566   1.3055   1.4625   1.7773   1.8788   1.9733
     2.3524   2.4372   2.5636   2.6861   3.0192   3.4477   4.1170   4.5449
     5.5496   5.8171  12.3959  13.9250  14.4571  15.1217  17.1726  18.9441
    19.2056  20.5096  22.3037  25.2367  26.1964  27.2212  28.7920  31.2648
    31.8363  32.4297  33.4027  33.9647

     occupation numbers 
     1.0000   1.0000   1.0000   1.0000   1.0000   1.0000   1.0000   1.0000
     1.0000   1.0000   1.0000   1.0000   1.0000   1.0000   1.0000   1.0000
     1.0000   1.0000   0.0000   0.0000   0.0000   0.0000   0.0000   0.0000
     0.0000   0.0000   0.0000   0.0000   0.0000   0.0000   0.0000   0.0000
     0.0000   0.0000   0.0000   0.0000

          k = 0.1000 0.5196 0.1239 (  3288 PWs)   bands (ev):

   -10.3933 -10.2229   1.0185   1.2036   1.4832   1.7562   1.8458   1.9163
     2.3872   2.4537   2.5597   2.6827   3.0164   3.4167   4.3295   4.6959
     5.5902   5.7566  12.3337  13.6697  14.6445  15.1632  17.0519  18.7380
    19.4604  20.6023  22.0776  25.0751  26.3430  27.9286  28.0492  30.8464
    31.7342  32.5867  33.4434  33.9543

     occupation numbers 
     1.0000   1.0000   1.0000   1.0000   1.0000   1.0000   1.0000   1.0000
     1.0000   1.0000   1.0000   1.0000   1.0000   1.0000   1.0000   1.0000
     1.0000   1.0000   0.0000   0.0000   0.0000   0.0000   0.0000   0.0000
     0.0000   0.0000   0.0000   0.0000   0.0000   0.0000   0.0000   0.0000
     0.0000   0.0000   0.0000   0.0000

          k = 0.1000 0.5196 0.1858 (  3288 PWs)   bands (ev):

   -10.3677 -10.2438   0.9714   1.0850   1.5209   1.7343   1.8113   1.8448
     2.4242   2.4667   2.5626   2.6661   3.0481   3.3494   4.5929   4.9435
     5.5039   5.7402  12.3215  13.3471  14.8200  15.1884  17.0112  18.3540
    19.8724  20.6696  21.9841  24.5211  26.7328  27.7933  28.5198  30.0572
    31.7556  32.5816  33.3028  33.8735

     occupation numbers 
     1.0000   1.0000   1.0000   1.0000   1.0000   1.0000   1.0000   1.0000
     1.0000   1.0000   1.0000   1.0000   1.0000   1.0000   1.0000   1.0000
     1.0000   1.0000   0.0000   0.0000   0.0000   0.0000   0.0000   0.0000
     0.0000   0.0000   0.0000   0.0000   0.0000   0.0000   0.0000   0.0000
     0.0000   0.0000   0.0000   0.0000

          k = 0.1000 0.5196 0.2478 (  3290 PWs)   bands (ev):

   -10.3365 -10.2712   0.9381   0.9902   1.5753   1.7021   1.7849   1.7870
     2.4513   2.4713   2.5794   2.6390   3.1081   3.2674   4.8480   5.2254
     5.3374   5.6844  12.4245  12.9894  14.9674  15.1622  17.1485  17.8963
    20.2698  20.6528  22.2171  23.6707  27.3113  27.9811  28.6439  29.2145
    32.1191  32.6760  33.1035  33.5420

     occupation numbers 
     1.0000   1.0000   1.0000   1.0000   1.0000   1.0000   1.0000   1.0000
     1.0000   1.0000   1.0000   1.0000   1.0000   1.0000   1.0000   1.0000
     1.0000   1.0000   0.0000   0.0000   0.0000   0.0000   0.0000   0.0000
     0.0000   0.0000   0.0000   0.0000   0.0000   0.0000   0.0000   0.0000
     0.0000   0.0000   0.0000   0.0000

          k = 0.1000 0.5196-0.3097 (  3300 PWs)   bands (ev):

   -10.3031 -10.3031   0.9404   0.9404   1.6412   1.6412   1.7725   1.7725
     2.4662   2.4662   2.6076   2.6076   3.1842   3.1842   5.0879   5.0879
     5.5179   5.5179  12.6593  12.6593  15.0836  15.0836  17.4649  17.4649
    20.5287  20.5287  22.8264  22.8264  27.9345  27.9345  28.6448  28.6448
    32.5792  32.5792  33.1575  33.1575

     occupation numbers 
     1.0000   1.0000   1.0000   1.0000   1.0000   1.0000   1.0000   1.0000
     1.0000   1.0000   1.0000   1.0000   1.0000   1.0000   1.0000   1.0000
     1.0000   1.0000   0.0000   0.0000   0.0000   0.0000   0.0000   0.0000
     0.0000   0.0000   0.0000   0.0000   0.0000   0.0000   0.0000   0.0000
     0.0000   0.0000   0.0000   0.0000

          k = 0.2000 0.3464 0.0000 (  3298 PWs)   bands (ev):

   -10.5762 -10.2164   1.1232   1.2314   1.4869   1.5727   1.8517   1.9761
     2.2039   2.3569   2.5466   2.7445   3.0142   4.0745   4.1469   4.6938
     5.8955   5.9625  11.2966  14.2639  15.1912  15.6379  17.4731  18.4758
    18.6231  21.5924  21.9652  23.8289  27.8536  28.3639  28.3667  29.8846
    31.0667  32.2549  32.7217  33.8820

     occupation numbers 
     1.0000   1.0000   1.0000   1.0000   1.0000   1.0000   1.0000   1.0000
     1.0000   1.0000   1.0000   1.0000   1.0000   1.0000   1.0000   1.0000
     1.0000   1.0000   0.0000   0.0000   0.0000   0.0000   0.0000   0.0000
     0.0000   0.0000   0.0000   0.0000   0.0000   0.0000   0.0000   0.0000
     0.0000   0.0000   0.0000   0.0000

          k = 0.2000 0.3464 0.0619 (  3288 PWs)   bands (ev):

   -10.5670 -10.2248   1.1062   1.2214   1.4838   1.5612   1.8386   1.8894
     2.2219   2.3826   2.5427   2.7168   3.1233   4.1462   4.1464   4.6945
     5.8623   5.9764  11.3265  14.1289  15.2109  15.6569  17.5746  18.3512
    18.5981  21.7185  21.9568  23.7778  27.4609  28.5446  28.8142  29.5431
    30.6605  32.6919  32.8676  33.5693

     occupation numbers 
     1.0000   1.0000   1.0000   1.0000   1.0000   1.0000   1.0000   1.0000
     1.0000   1.0000   1.0000   1.0000   1.0000   1.0000   1.0000   1.0000
     1.0000   1.0000   0.0000   0.0000   0.0000   0.0000   0.0000   0.0000
     0.0000   0.0000   0.0000   0.0000   0.0000   0.0000   0.0000   0.0000
     0.0000   0.0000   0.0000   0.0000

          k = 0.2000 0.3464 0.1239 (  3281 PWs)   bands (ev):

   -10.5405 -10.2492   1.0622   1.1816   1.4790   1.5307   1.7547   1.8023
     2.2696   2.4139   2.5326   2.6714   3.3287   4.1237   4.3643   4.7268
     5.7668   5.9886  11.4268  13.7764  15.2828  15.7072  17.6953  18.0444
    18.6824  21.8047  22.0600  23.7808  26.9872  28.3791  29.0366  29.4204
    30.7540  32.4561  33.2778  33.3463

     occupation numbers 
     1.0000   1.0000   1.0000   1.0000   1.0000   1.0000   1.0000   1.0000
     1.0000   1.0000   1.0000   1.0000   1.0000   1.0000   1.0000   1.0000
     1.0000   1.0000   0.0000   0.0000   0.0000   0.0000   0.0000   0.0000
     0.0000   0.0000   0.0000   0.0000   0.0000   0.0000   0.0000   0.0000
     0.0000   0.0000   0.0000   0.0000

          k = 0.2000 0.3464 0.1858 (  3280 PWs)   bands (ev):

   -10.4995 -10.2876   1.0102   1.1046   1.4792   1.5044   1.6746   1.7510
     2.3336   2.4348   2.5197   2.6203   3.5185   4.0540   4.7005   4.8286
     5.6226   5.9388  11.6205  13.3083  15.4100  15.7657  17.5982  17.6908
    19.0820  21.4082  22.5502  23.9317  26.6119  27.3281  29.3016  29.8769
    31.1881  32.0090  33.3372  33.6266

     occupation numbers 
     1.0000   1.0000   1.0000   1.0000   1.0000   1.0000   1.0000   1.0000
     1.0000   1.0000   1.0000   1.0000   1.0000   1.0000   1.0000   1.0000
     1.0000   1.0000   0.0000   0.0000   0.0000   0.0000   0.0000   0.0000
     0.0000   0.0000   0.0000   0.0000   0.0000   0.0000   0.0000   0.0000
     0.0000   0.0000   0.0000   0.0000

          k = 0.2000 0.3464 0.2478 (  3281 PWs)   bands (ev):

   -10.4483 -10.3368   0.9747   1.0232   1.4855   1.4975   1.6451   1.6971
     2.4003   2.4490   2.5088   2.5644   3.6781   3.9465   4.9885   5.0645
     5.4645   5.7830  11.9238  12.8065  15.5711  15.7859  17.4218  17.4235
    19.6543  20.8663  23.1287  23.9894  26.3483  26.5424  29.5406  29.9941
    31.5457  31.7329  33.5526  33.8601

     occupation numbers 
     1.0000   1.0000   1.0000   1.0000   1.0000   1.0000   1.0000   1.0000
     1.0000   1.0000   1.0000   1.0000   1.0000   1.0000   1.0000   1.0000
     1.0000   1.0000   0.0000   0.0000   0.0000   0.0000   0.0000   0.0000
     0.0000   0.0000   0.0000   0.0000   0.0000   0.0000   0.0000   0.0000
     0.0000   0.0000   0.0000   0.0000

          k = 0.2000 0.3464-0.3097 (  3282 PWs)   bands (ev):

   -10.3922 -10.3922   0.9761   0.9761   1.4936   1.4936   1.6561   1.6561
     2.4470   2.4470   2.5167   2.5167   3.8191   3.8191   5.1571   5.1571
     5.5335   5.5335  12.3296  12.3296  15.7174  15.7174  17.3330  17.3330
    20.2672  20.2672  23.6871  23.6871  26.2558  26.2558  29.8002  29.8002
    31.6698  31.6698  33.7929  33.7929

     occupation numbers 
     1.0000   1.0000   1.0000   1.0000   1.0000   1.0000   1.0000   1.0000
     1.0000   1.0000   1.0000   1.0000   1.0000   1.0000   1.0000   1.0000
     1.0000   1.0000   0.0000   0.0000   0.0000   0.0000   0.0000   0.0000
     0.0000   0.0000   0.0000   0.0000   0.0000   0.0000   0.0000   0.0000
     0.0000   0.0000   0.0000   0.0000

          k = 0.2000 0.4619 0.0000 (  3294 PWs)   bands (ev):

   -10.4212 -10.2026   1.1713   1.3501   1.5456   1.6741   1.9704   2.0524
     2.2584   2.3454   2.5708   2.7902   2.9590   3.6300   4.0047   4.2505
     5.5126   5.6303  12.4966  14.3592  14.9555  15.1847  17.4707  18.1401
    18.3772  20.7643  21.8862  25.1500  27.7079  28.2592  29.2107  29.9654
    31.6992  32.3980  32.9594  33.4882

     occupation numbers 
     1.0000   1.0000   1.0000   1.0000   1.0000   1.0000   1.0000   1.0000
     1.0000   1.0000   1.0000   1.0000   1.0000   1.0000   1.0000   1.0000
     1.0000   1.0000   0.0000   0.0000   0.0000   0.0000   0.0000   0.0000
     0.0000   0.0000   0.0000   0.0000   0.0000   0.0000   0.0000   0.0000
     0.0000   0.0000   0.0000   0.0000

          k = 0.2000 0.4619 0.0619 (  3292 PWs)   bands (ev):

   -10.4151 -10.2072   1.1638   1.3261   1.5341   1.6636   1.9486   1.9909
     2.2581   2.3914   2.5694   2.7884   2.9850   3.6468   4.0198   4.3322
     5.4971   5.6429  12.5015  14.2775  14.9894  15.2053  17.2939  17.9963
    18.5828  20.8933  21.9856  24.9649  27.4120  28.5579  29.0454  29.7599
    31.6857  32.5020  32.9474  33.7497

     occupation numbers 
     1.0000   1.0000   1.0000   1.0000   1.0000   1.0000   1.0000   1.0000
     1.0000   1.0000   1.0000   1.0000   1.0000   1.0000   1.0000   1.0000
     1.0000   1.0000   0.0000   0.0000   0.0000   0.0000   0.0000   0.0000
     0.0000   0.0000   0.0000   0.0000   0.0000   0.0000   0.0000   0.0000
     0.0000   0.0000   0.0000   0.0000

          k = 0.2000 0.4619 0.1239 (  3277 PWs)   bands (ev):

   -10.3979 -10.2208   1.1361   1.2634   1.5054   1.6398   1.8755   1.9081
     2.2976   2.4346   2.5687   2.7657   3.0629   3.6425   4.1037   4.5587
     5.4071   5.7013  12.5292  14.0618  15.0653  15.2602  16.9599  17.6744
    19.0150  21.2043  22.1881  24.5687  26.9366  28.2023  29.3770  29.5231
    31.8721  32.0482  33.2276  34.0947

     occupation numbers 
     1.0000   1.0000   1.0000   1.0000   1.0000   1.0000   1.0000   1.0000
     1.0000   1.0000   1.0000   1.0000   1.0000   1.0000   1.0000   1.0000
     1.0000   1.0000   0.0000   0.0000   0.0000   0.0000   0.0000   0.0000
     0.0000   0.0000   0.0000   0.0000   0.0000   0.0000   0.0000   0.0000
     0.0000   0.0000   0.0000   0.0000

          k = 0.2000 0.4619 0.1858 (  3278 PWs)   bands (ev):

   -10.3715 -10.2427   1.0899   1.1770   1.4890   1.6158   1.8091   1.8408
     2.3534   2.4514   2.5757   2.7240   3.1667   3.5797   4.2741   4.8528
     5.2676   5.7452  12.6126  13.7541  15.1554  15.3262  16.6763  17.2859
    19.5776  21.4853  22.3585  24.1664  26.4781  27.6762  29.2431  29.8483
    31.6975  32.1044  33.4867  34.2772

     occupation numbers 
     1.0000   1.0000   1.0000   1.0000   1.0000   1.0000   1.0000   1.0000
     1.0000   1.0000   1.0000   1.0000   1.0000   1.0000   1.0000   1.0000
     1.0000   1.0000   0.0000   0.0000   0.0000   0.0000   0.0000   0.0000
     0.0000   0.0000   0.0000   0.0000   0.0000   0.0000   0.0000   0.0000
     0.0000   0.0000   0.0000   0.0000

          k = 0.2000 0.4619 0.2478 (  3284 PWs)   bands (ev):

   -10.3391 -10.2714   1.0518   1.0951   1.5073   1.5875   1.7738   1.7875
     2.4029   2.4509   2.5957   2.6761   3.2757   3.4870   4.4935   4.9314
     5.3082   5.7032  12.7854  13.3992  15.2477  15.3593  16.5600  16.9220
    20.2206  21.3689  22.6688  23.7178  26.3740  27.1609  29.2764  29.7587
    31.7546  32.1163  33.8223  34.2267

     occupation numbers 
     1.0000   1.0000   1.0000   1.0000   1.0000   1.0000   1.0000   1.0000
     1.0000   1.0000   1.0000   1.0000   1.0000   1.0000   1.0000   1.0000
     1.0000   1.0000   0.0000   0.0000   0.0000   0.0000   0.0000   0.0000
     0.0000   0.0000   0.0000   0.0000   0.0000   0.0000   0.0000   0.0000
     0.0000   0.0000   0.0000   0.0000

          k = 0.2000 0.4619-0.3097 (  3282 PWs)   bands (ev):

   -10.3046 -10.3046   1.0499   1.0499   1.5474   1.5474   1.7651   1.7651
     2.4355   2.4355   2.6307   2.6307   3.3835   3.3835   4.7284   4.7284
     5.5455   5.5455  13.0571  13.0571  15.3264  15.3264  16.6560  16.6560
    20.8642  20.8642  23.1764  23.1764  26.6757  26.6757  29.4831  29.4831
    31.9632  31.9632  34.0755  34.0755

     occupation numbers 
     1.0000   1.0000   1.0000   1.0000   1.0000   1.0000   1.0000   1.0000
     1.0000   1.0000   1.0000   1.0000   1.0000   1.0000   1.0000   1.0000
     1.0000   1.0000   0.0000   0.0000   0.0000   0.0000   0.0000   0.0000
     0.0000   0.0000   0.0000   0.0000   0.0000   0.0000   0.0000   0.0000
     0.0000   0.0000   0.0000   0.0000

          k = 0.2000 0.5774 0.0000 (  3296 PWs)   bands (ev):

   -10.3437 -10.2149   1.1641   1.4650   1.6341   1.7143   1.9684   2.0576
     2.3137   2.3826   2.5750   2.5931   3.1543   3.4335   3.5773   4.5315
     5.2154   5.5052  13.3060  14.2896  14.3968  15.0929  17.2368  18.0708
    19.3315  19.8092  21.7779  26.3446  26.8903  28.3043  29.0359  30.1098
    32.0563  32.6888  33.4406  33.4913

     occupation numbers 
     1.0000   1.0000   1.0000   1.0000   1.0000   1.0000   1.0000   1.0000
     1.0000   1.0000   1.0000   1.0000   1.0000   1.0000   1.0000   1.0000
     1.0000   1.0000   0.0000   0.0000   0.0000   0.0000   0.0000   0.0000
     0.0000   0.0000   0.0000   0.0000   0.0000   0.0000   0.0000   0.0000
     0.0000   0.0000   0.0000   0.0000

          k = 0.2000 0.5774 0.0619 (  3300 PWs)   bands (ev):

   -10.3398 -10.2172   1.1605   1.4559   1.5470   1.7417   1.9512   2.0299
     2.3331   2.3913   2.5865   2.6043   3.1311   3.4105   3.6509   4.6097
     5.2297   5.4978  13.2713  14.2544  14.4516  15.1178  17.0432  17.9242
    19.4477  20.0059  21.9063  26.1208  26.5835  28.6846  28.7515  29.9864
    32.1709  32.6271  33.3540  33.5272

     occupation numbers 
     1.0000   1.0000   1.0000   1.0000   1.0000   1.0000   1.0000   1.0000
     1.0000   1.0000   1.0000   1.0000   1.0000   1.0000   1.0000   1.0000
     1.0000   1.0000   0.0000   0.0000   0.0000   0.0000   0.0000   0.0000
     0.0000   0.0000   0.0000   0.0000   0.0000   0.0000   0.0000   0.0000
     0.0000   0.0000   0.0000   0.0000

          k = 0.2000 0.5774 0.1239 (  3296 PWs)   bands (ev):

   -10.3286 -10.2242   1.1448   1.3975   1.4419   1.7445   1.9157   1.9650
     2.3654   2.4056   2.6182   2.6421   3.0933   3.3521   3.8262   4.8189
     5.1901   5.5325  13.2070  14.1448  14.5840  15.1812  16.6386  17.5698
    19.7701  20.4385  22.2002  25.4491  26.1621  28.3859  29.2642  29.5680
    32.0745  32.5357  33.3109  34.6059

     occupation numbers 
     1.0000   1.0000   1.0000   1.0000   1.0000   1.0000   1.0000   1.0000
     1.0000   1.0000   1.0000   1.0000   1.0000   1.0000   1.0000   1.0000
     1.0000   1.0000   0.0000   0.0000   0.0000   0.0000   0.0000   0.0000
     0.0000   0.0000   0.0000   0.0000   0.0000   0.0000   0.0000   0.0000
     0.0000   0.0000   0.0000   0.0000

          k = 0.2000 0.5774 0.1858 (  3292 PWs)   bands (ev):

   -10.3117 -10.2357   1.1135   1.2522   1.4496   1.7067   1.8841   1.9027
     2.3869   2.4129   2.6601   2.6927   3.0735   3.2777   4.0516   5.0366
     5.0957   5.6138  13.1853  13.9543  14.7441  15.2364  16.2955  17.1409
    20.2582  20.8936  22.4761  24.5057  26.0059  28.0580  29.1345  29.5508
    32.0679  32.5650  33.5147  34.5059

     occupation numbers 
     1.0000   1.0000   1.0000   1.0000   1.0000   1.0000   1.0000   1.0000
     1.0000   1.0000   1.0000   1.0000   1.0000   1.0000   1.0000   1.0000
     1.0000   1.0000   0.0000   0.0000   0.0000   0.0000   0.0000   0.0000
     0.0000   0.0000   0.0000   0.0000   0.0000   0.0000   0.0000   0.0000
     0.0000   0.0000   0.0000   0.0000

          k = 0.2000 0.5774 0.2478 (  3287 PWs)   bands (ev):

   -10.2916 -10.2516   1.0853   1.1444   1.4901   1.6355   1.8648   1.8693
     2.3997   2.4129   2.6995   2.7253   3.0865   3.2013   4.3033   4.8164
     5.3648   5.6421  13.2594  13.6998  14.9066  15.1976  16.2103  16.7275
    20.8320  21.2280  22.6386  23.5640  26.2327  27.4655  29.0822  29.4890
    32.2025  32.5517  33.8566  34.2668

     occupation numbers 
     1.0000   1.0000   1.0000   1.0000   1.0000   1.0000   1.0000   1.0000
     1.0000   1.0000   1.0000   1.0000   1.0000   1.0000   1.0000   1.0000
     1.0000   1.0000   0.0000   0.0000   0.0000   0.0000   0.0000   0.0000
     0.0000   0.0000   0.0000   0.0000   0.0000   0.0000   0.0000   0.0000
     0.0000   0.0000   0.0000   0.0000

          k = 0.2000 0.5774-0.3097 (  3276 PWs)   bands (ev):

   -10.2708 -10.2708   1.0894   1.0894   1.5563   1.5563   1.8593   1.8593
     2.4080   2.4080   2.7252   2.7252   3.1334   3.1334   4.5643   4.5643
     5.5602   5.5602  13.4433  13.4433  15.0646  15.0646  16.3921  16.3921
    21.2519  21.2519  22.8938  22.8938  26.7767  26.7767  29.2720  29.2720
    32.3998  32.3998  34.0677  34.0677

     occupation numbers 
     1.0000   1.0000   1.0000   1.0000   1.0000   1.0000   1.0000   1.0000
     1.0000   1.0000   1.0000   1.0000   1.0000   1.0000   1.0000   1.0000
     1.0000   1.0000   0.0000   0.0000   0.0000   0.0000   0.0000   0.0000
     0.0000   0.0000   0.0000   0.0000   0.0000   0.0000   0.0000   0.0000
     0.0000   0.0000   0.0000   0.0000

          k = 0.3000 0.5196 0.0000 (  3284 PWs)   bands (ev):

   -10.3088 -10.2262   1.1984   1.5144   1.6349   1.8277   2.0545   2.2379
     2.2481   2.2988   2.5249   2.5368   3.1524   3.2586   3.4929   4.6353
     5.1875   5.2100  13.6713  14.4081  14.7022  14.9180  17.3693  17.5033
    19.1712  20.3339  20.8149  26.5942  28.1117  28.2976  29.0491  30.5800
    31.6801  32.5779  32.9983  33.1262

     occupation numbers 
     1.0000   1.0000   1.0000   1.0000   1.0000   1.0000   1.0000   1.0000
     1.0000   1.0000   1.0000   1.0000   1.0000   1.0000   1.0000   1.0000
     1.0000   1.0000   0.0000   0.0000   0.0000   0.0000   0.0000   0.0000
     0.0000   0.0000   0.0000   0.0000   0.0000   0.0000   0.0000   0.0000
     0.0000   0.0000   0.0000   0.0000

          k = 0.3000 0.5196 0.0619 (  3281 PWs)   bands (ev):

   -10.3060 -10.2274   1.2060   1.4808   1.6020   1.8036   2.0294   2.1335
     2.2574   2.3677   2.5511   2.5761   3.1407   3.3107   3.4803   4.7082
     5.1689   5.2416  13.6782  14.3878  14.7485  14.9218  17.0959  17.3181
    19.3765  20.5207  21.0202  26.2698  27.7709  27.9518  29.2975  30.5947
    31.8486  32.2780  33.1525  33.6465

     occupation numbers 
     1.0000   1.0000   1.0000   1.0000   1.0000   1.0000   1.0000   1.0000
     1.0000   1.0000   1.0000   1.0000   1.0000   1.0000   1.0000   1.0000
     1.0000   1.0000   0.0000   0.0000   0.0000   0.0000   0.0000   0.0000
     0.0000   0.0000   0.0000   0.0000   0.0000   0.0000   0.0000   0.0000
     0.0000   0.0000   0.0000   0.0000

          k = 0.3000 0.5196 0.1239 (  3290 PWs)   bands (ev):

   -10.2979 -10.2310   1.2265   1.3957   1.5139   1.7454   1.9764   2.0262
     2.2921   2.3886   2.5947   2.6819   3.1163   3.3689   3.5303   4.8673
     5.0802   5.3744  13.7042  14.3427  14.8632  14.9346  16.5382  16.8892
    19.8122  21.0049  21.4921  25.4528  26.9774  27.5429  29.5208  30.5682
    31.9081  32.1301  33.5889  34.2725

     occupation numbers 
     1.0000   1.0000   1.0000   1.0000   1.0000   1.0000   1.0000   1.0000
     1.0000   1.0000   1.0000   1.0000   1.0000   1.0000   1.0000   1.0000
     1.0000   1.0000   0.0000   0.0000   0.0000   0.0000   0.0000   0.0000
     0.0000   0.0000   0.0000   0.0000   0.0000   0.0000   0.0000   0.0000
     0.0000   0.0000   0.0000   0.0000

          k = 0.3000 0.5196 0.1858 (  3293 PWs)   bands (ev):

   -10.2861 -10.2374   1.2443   1.2979   1.4237   1.6630   1.9332   1.9630
     2.3205   2.3859   2.6570   2.7643   3.1039   3.3180   3.7399   4.7902
     5.2119   5.5179  13.7637  14.2774  14.9619  15.0171  15.9800  16.4045
    20.3775  21.6199  21.9727  24.4309  26.3383  27.0129  29.6579  30.4029
    31.8086  32.2933  33.8376  34.3149

     occupation numbers 
     1.0000   1.0000   1.0000   1.0000   1.0000   1.0000   1.0000   1.0000
     1.0000   1.0000   1.0000   1.0000   1.0000   1.0000   1.0000   1.0000
     1.0000   1.0000   0.0000   0.0000   0.0000   0.0000   0.0000   0.0000
     0.0000   0.0000   0.0000   0.0000   0.0000   0.0000   0.0000   0.0000
     0.0000   0.0000   0.0000   0.0000

          k = 0.3000 0.5196 0.2478 (  3280 PWs)   bands (ev):

   -10.2723 -10.2467   1.2227   1.2254   1.4161   1.5681   1.9136   1.9290
     2.3422   2.3752   2.7200   2.7919   3.1260   3.2484   4.0018   4.5532
     5.4318   5.6009  13.8720  14.1725  15.0173  15.1650  15.5982  15.9706
    21.0654  22.1699  22.2319  23.4667  26.0052  26.4783  29.7843  30.1615
    31.9410  32.3048  33.7731  34.0413

     occupation numbers 
     1.0000   1.0000   1.0000   1.0000   1.0000   1.0000   1.0000   1.0000
     1.0000   1.0000   1.0000   1.0000   1.0000   1.0000   1.0000   1.0000
     1.0000   1.0000   0.0000   0.0000   0.0000   0.0000   0.0000   0.0000
     0.0000   0.0000   0.0000   0.0000   0.0000   0.0000   0.0000   0.0000
     0.0000   0.0000   0.0000   0.0000

          k = 0.3000 0.5196-0.3097 (  3288 PWs)   bands (ev):

   -10.2587 -10.2587   1.2006   1.2006   1.4792   1.4792   1.9133   1.9133
     2.3603   2.3603   2.7700   2.7700   3.1803   3.1803   4.2807   4.2807
     5.5748   5.5748  14.0232  14.0232  15.1205  15.1205  15.6452  15.6452
    21.7857  21.7857  22.7867  22.7867  26.0799  26.0799  29.9461  29.9461
    32.1556  32.1556  33.8206  33.8206

     occupation numbers 
     1.0000   1.0000   1.0000   1.0000   1.0000   1.0000   1.0000   1.0000
     1.0000   1.0000   1.0000   1.0000   1.0000   1.0000   1.0000   1.0000
     1.0000   1.0000   0.0000   0.0000   0.0000   0.0000   0.0000   0.0000
     0.0000   0.0000   0.0000   0.0000   0.0000   0.0000   0.0000   0.0000
     0.0000   0.0000   0.0000   0.0000

     highest occupied, lowest unoccupied level (ev):     6.7701    7.5097

     Writing all to output data dir ./ZnO_PBE_bulk.save/

     init_run     :      2.60s CPU      2.71s WALL (       1 calls)
     electrons    :   1663.84s CPU   2542.20s WALL (       1 calls)

     Called by init_run:
     wfcinit      :      0.00s CPU      0.00s WALL (       1 calls)
     wfcinit:atom :      0.01s CPU      0.01s WALL (      21 calls)
     wfcinit:wfcr :     28.87s CPU     43.74s WALL (      21 calls)
     potinit      :      0.34s CPU      0.34s WALL (       1 calls)
     hinit0       :      0.56s CPU      0.57s WALL (       1 calls)

     Called by electrons:
     c_bands      :   1663.75s CPU   2542.08s WALL (       1 calls)
     v_of_rho     :      0.01s CPU      0.02s WALL (       1 calls)
     v_h          :      0.00s CPU      0.00s WALL (       1 calls)
     v_xc         :      0.01s CPU      0.01s WALL (       1 calls)
     newd         :      1.62s CPU      1.70s WALL (       1 calls)

     Called by c_bands:
     init_us_2    :      0.01s CPU      0.01s WALL (      21 calls)
     init_us_2:cp :      0.01s CPU      0.01s WALL (      21 calls)
     cegterg      :   1562.85s CPU   2371.87s WALL (      68 calls)

     Called by sum_band:

     Called by *egterg:
     cdiaghg      :     76.25s CPU    136.85s WALL (    1176 calls)
     cegterg:over :    477.77s CPU    658.22s WALL (    1155 calls)
     cegterg:upda :      5.40s CPU     15.11s WALL (    1155 calls)
     cegterg:last :     16.21s CPU     45.41s WALL (     668 calls)
     h_psi        :    723.56s CPU   1179.25s WALL (    1244 calls)
     s_psi        :      6.20s CPU     16.10s WALL (    1244 calls)
     g_psi        :      0.10s CPU      0.05s WALL (    1155 calls)

     Called by h_psi:
     h_psi:calbec :    258.84s CPU    366.25s WALL (    1244 calls)
     vloc_psi     :    450.94s CPU    766.50s WALL (    1244 calls)
     add_vuspsi   :     13.72s CPU     46.43s WALL (    1244 calls)

     General routines
     calbec       :    258.83s CPU    366.24s WALL (    1244 calls)
     fft          :      0.31s CPU      0.31s WALL (      13 calls)
     ffts         :      0.19s CPU      0.19s WALL (       1 calls)
     fftw         :    450.08s CPU    765.31s WALL (   50260 calls)
     interpolate  :      0.19s CPU      0.19s WALL (       1 calls)
     davcio       :      0.01s CPU      0.01s WALL (      42 calls)

     Parallel routines

     PWSCF        :  27m57.47s CPU  42m36.05s WALL


   This run was terminated on:   7:26:22   8May2025            

=------------------------------------------------------------------------------=
   JOB DONE.
=------------------------------------------------------------------------------=
