Authorization required, but no authorization protocol specified

Authorization required, but no authorization protocol specified

Authorization required, but no authorization protocol specified

Authorization required, but no authorization protocol specified

Authorization required, but no authorization protocol specified

Authorization required, but no authorization protocol specified

Authorization required, but no authorization protocol specified

Authorization required, but no authorization protocol specified

Authorization required, but no authorization protocol specified

Authorization required, but no authorization protocol specified

Authorization required, but no authorization protocol specified

Authorization required, but no authorization protocol specified

Authorization required, but no authorization protocol specified

Authorization required, but no authorization protocol specified

Authorization required, but no authorization protocol specified

Authorization required, but no authorization protocol specified

Authorization required, but no authorization protocol specified

Authorization required, but no authorization protocol specified

Authorization required, but no authorization protocol specified

Authorization required, but no authorization protocol specified

Authorization required, but no authorization protocol specified

Authorization required, but no authorization protocol specified

Authorization required, but no authorization protocol specified

Authorization required, but no authorization protocol specified

Authorization required, but no authorization protocol specified

Authorization required, but no authorization protocol specified

Authorization required, but no authorization protocol specified

Authorization required, but no authorization protocol specified

Authorization required, but no authorization protocol specified

Authorization required, but no authorization protocol specified

Authorization required, but no authorization protocol specified

Authorization required, but no authorization protocol specified

Authorization required, but no authorization protocol specified

Authorization required, but no authorization protocol specified


     Program PWSCF v.7.2 starts on 25Jul2025 at  0:18:58 

     This program is part of the open-source Quantum ESPRESSO suite
     for quantum simulation of materials; please cite
         "P. Giannozzi et al., J. Phys.:Condens. Matter 21 395502 (2009);
         "P. Giannozzi et al., J. Phys.:Condens. Matter 29 465901 (2017);
         "P. Giannozzi et al., J. Chem. Phys. 152 154105 (2020);
          URL http://www.quantum-espresso.org", 
     in publications or presentations arising from this work. More details at
     http://www.quantum-espresso.org/quote

     Parallel version (MPI), running on    32 processors

     MPI processes distributed on     1 nodes
     80196 MiB available memory on the printing compute node when the environment starts

     Reading input from cell222.in/ZnO-2.94-1.55-222.in
Warning: card &CELL ignored
Warning: card / ignored
Warning: card &FCP ignored
Warning: card / ignored
Warning: card &RISM ignored
Warning: card / ignored

     Current dimensions of program PWSCF are:
     Max number of different atomic species (ntypx) = 10
     Max number of k-points (npk) =  40000
     Max angular momentum in pseudopotentials (lmaxx) =  4
     file Zn.upf: wavefunction(s)  3D renormalized
     Found identity + (  0.0000  0.0000 -0.5000) symmetry
     This is a supercell, fractional translations are disabled
     Message from routine setup:
     using ibrav=0 with symmetry is DISCOURAGED, use correct ibrav instead

     K-points division:     npool     =       8
     R & G space division:  proc/nbgrp/npool/nimage =       4
     Subspace diagonalization in iterative solution of the eigenvalue problem:
     a serial algorithm will be used

     Message from routine divide_et_impera:
     suboptimal parallelization: some nodes have no k-points

     Parallelization info
     --------------------
     sticks:   dense  smooth     PW     G-vecs:    dense   smooth      PW
     Min        1054     526    145                89106    31470    4573
     Max        1055     527    146                89111    31475    4578
     Sum        4219    2107    583               356437   125891   18305

     Using Slab Decomposition



     bravais-lattice index     =            0
     lattice parameter (alat)  =      12.3576  a.u.
     unit-cell volume          =    2638.3815 (a.u.)^3
     number of atoms/cell      =           32
     number of atomic types    =            2
     number of electrons       =       288.00
     number of Kohn-Sham states=          144
     kinetic-energy cutoff     =      50.0000  Ry
     charge density cutoff     =     400.0000  Ry
     scf convergence threshold =      1.0E-08
     mixing beta               =       0.3000
     number of iterations used =            8  plain     mixing
     Exchange-correlation= PBE
                           (   1   4   3   4   0   0   0)

     celldm(1)=  12.357644  celldm(2)=   0.000000  celldm(3)=   0.000000
     celldm(4)=   0.000000  celldm(5)=   0.000000  celldm(6)=   0.000000

     crystal axes: (cart. coord. in units of alat)
               a(1) = (   1.000000   0.000000   0.000000 )  
               a(2) = (  -0.500000   0.866025   0.000000 )  
               a(3) = (   0.000000   0.000000   1.614358 )  

     reciprocal axes: (cart. coord. in units 2 pi/alat)
               b(1) = (  1.000000  0.577350 -0.000000 )  
               b(2) = (  0.000000  1.154701  0.000000 )  
               b(3) = (  0.000000 -0.000000  0.619441 )  


     PseudoPot. # 1 for Zn read from file:
     /home/jvc/QEspresso7.2/ZnO_database/pseudos/Zn.upf
     MD5 check sum: 7f56cabf9682ed8c977c2f7d0c5985c5
     Pseudo is Ultrasoft + core correction, Zval = 12.0
     Generated using &quot;atomic&quot; code by A. Dal Corso  v.6.2.2
     Using radial grid of 1201 points,  6 beta functions with: 
                l(1) =   0
                l(2) =   0
                l(3) =   1
                l(4) =   1
                l(5) =   2
                l(6) =   2
     Q(r) pseudized with 0 coefficients 


     PseudoPot. # 2 for O  read from file:
     /home/jvc/QEspresso7.2/ZnO_database/pseudos/O.upf
     MD5 check sum: 91400c9766925bcf19f520983a725ff0
     Pseudo is Ultrasoft + core correction, Zval =  6.0
     Generated using &quot;atomic&quot; code by A. Dal Corso  v.6.3MaX
     Using radial grid of 1095 points,  4 beta functions with: 
                l(1) =   0
                l(2) =   0
                l(3) =   1
                l(4) =   1
     Q(r) pseudized with 0 coefficients 


     atomic species   valence    mass     pseudopotential
        Zn            12.00    65.38000     Zn( 1.00)
        O              6.00    15.99900     O ( 1.00)

      6 Sym. Ops. (no inversion) found


                                    s                        frac. trans.

      isym =  1     identity                                     

 cryst.   s( 1) = (     1          0          0      )
                  (     0          1          0      )
                  (     0          0          1      )

 cart.    s( 1) = (  1.0000000 -0.0000000  0.0000000 )
                  (  0.0000000  1.0000000  0.0000000 )
                  (  0.0000000  0.0000000  1.0000000 )


      isym =  2     120 deg rotation - cryst. axis [0,0,1]       

 cryst.   s( 2) = (     0          1          0      )
                  (    -1         -1          0      )
                  (     0          0          1      )

 cart.    s( 2) = ( -0.5000000 -0.8660254  0.0000000 )
                  (  0.8660254 -0.5000000  0.0000000 )
                  (  0.0000000  0.0000000  1.0000000 )


      isym =  3     120 deg rotation - cryst. axis [0,0,-1]      

 cryst.   s( 3) = (    -1         -1          0      )
                  (     1          0          0      )
                  (     0          0          1      )

 cart.    s( 3) = ( -0.5000000  0.8660254  0.0000000 )
                  ( -0.8660254 -0.5000000  0.0000000 )
                  (  0.0000000  0.0000000  1.0000000 )


      isym =  4     inv. 180 deg rotation - cart. axis [1,0,0]   

 cryst.   s( 4) = (    -1          0          0      )
                  (     1          1          0      )
                  (     0          0          1      )

 cart.    s( 4) = ( -1.0000000  0.0000000  0.0000000 )
                  (  0.0000000  1.0000000  0.0000000 )
                  (  0.0000000  0.0000000  1.0000000 )


      isym =  5     inv. 180 deg rotation - cryst. axis [0,1,0]  

 cryst.   s( 5) = (     1          1          0      )
                  (     0         -1          0      )
                  (     0          0          1      )

 cart.    s( 5) = (  0.5000000  0.8660254  0.0000000 )
                  (  0.8660254 -0.5000000  0.0000000 )
                  (  0.0000000  0.0000000  1.0000000 )


      isym =  6     inv. 180 deg rotation - cryst. axis [1,1,0]  

 cryst.   s( 6) = (     0         -1          0      )
                  (    -1          0          0      )
                  (     0          0          1      )

 cart.    s( 6) = (  0.5000000 -0.8660254  0.0000000 )
                  ( -0.8660254 -0.5000000  0.0000000 )
                  (  0.0000000  0.0000000  1.0000000 )


   Cartesian axes

     site n.     atom                  positions (alat units)
         1           Zn  tau(   1) = (   0.2500000   0.1443376   0.4041010  )
         2           Zn  tau(   2) = (   0.0000000   0.2886751   0.0005114  )
         3           O   tau(   3) = (   0.2500000   0.1443376   0.7100565  )
         4           O   tau(   4) = (   0.0000000   0.2886751   0.3064669  )
         5           Zn  tau(   5) = (   0.2500000   0.1443376   1.2112802  )
         6           Zn  tau(   6) = (   0.0000000   0.2886751   0.8076906  )
         7           O   tau(   7) = (   0.2500000   0.1443376   1.5172357  )
         8           O   tau(   8) = (   0.0000000   0.2886751   1.1136461  )
         9           Zn  tau(   9) = (   0.0000000   0.5773503   0.4041010  )
        10           Zn  tau(  10) = (  -0.2500000   0.7216878   0.0005114  )
        11           O   tau(  11) = (   0.0000000   0.5773503   0.7100565  )
        12           O   tau(  12) = (  -0.2500000   0.7216878   0.3064669  )
        13           Zn  tau(  13) = (   0.0000000   0.5773503   1.2112802  )
        14           Zn  tau(  14) = (  -0.2500000   0.7216878   0.8076906  )
        15           O   tau(  15) = (   0.0000000   0.5773503   1.5172357  )
        16           O   tau(  16) = (  -0.2500000   0.7216878   1.1136461  )
        17           Zn  tau(  17) = (   0.7500000   0.1443376   0.4041010  )
        18           Zn  tau(  18) = (   0.5000000   0.2886751   0.0005114  )
        19           O   tau(  19) = (   0.7500000   0.1443376   0.7100565  )
        20           O   tau(  20) = (   0.5000000   0.2886751   0.3064669  )
        21           Zn  tau(  21) = (   0.7500000   0.1443376   1.2112802  )
        22           Zn  tau(  22) = (   0.5000000   0.2886751   0.8076906  )
        23           O   tau(  23) = (   0.7500000   0.1443376   1.5172357  )
        24           O   tau(  24) = (   0.5000000   0.2886751   1.1136461  )
        25           Zn  tau(  25) = (   0.5000000   0.5773503   0.4041010  )
        26           Zn  tau(  26) = (   0.2500000   0.7216878   0.0005114  )
        27           O   tau(  27) = (   0.5000000   0.5773503   0.7100565  )
        28           O   tau(  28) = (   0.2500000   0.7216878   0.3064669  )
        29           Zn  tau(  29) = (   0.5000000   0.5773503   1.2112802  )
        30           Zn  tau(  30) = (   0.2500000   0.7216878   0.8076906  )
        31           O   tau(  31) = (   0.5000000   0.5773503   1.5172357  )
        32           O   tau(  32) = (   0.2500000   0.7216878   1.1136461  )

   Crystallographic axes

     site n.     atom                  positions (cryst. coord.)
         1           Zn  tau(   1) = (  0.3333333  0.1666667  0.2503168  )
         2           Zn  tau(   2) = (  0.1666667  0.3333333  0.0003168  )
         3           O   tau(   3) = (  0.3333333  0.1666667  0.4398382  )
         4           O   tau(   4) = (  0.1666667  0.3333333  0.1898382  )
         5           Zn  tau(   5) = (  0.3333333  0.1666667  0.7503168  )
         6           Zn  tau(   6) = (  0.1666667  0.3333333  0.5003168  )
         7           O   tau(   7) = (  0.3333333  0.1666667  0.9398382  )
         8           O   tau(   8) = (  0.1666667  0.3333333  0.6898382  )
         9           Zn  tau(   9) = (  0.3333333  0.6666667  0.2503168  )
        10           Zn  tau(  10) = (  0.1666667  0.8333333  0.0003168  )
        11           O   tau(  11) = (  0.3333333  0.6666667  0.4398382  )
        12           O   tau(  12) = (  0.1666667  0.8333333  0.1898382  )
        13           Zn  tau(  13) = (  0.3333333  0.6666667  0.7503168  )
        14           Zn  tau(  14) = (  0.1666667  0.8333333  0.5003168  )
        15           O   tau(  15) = (  0.3333333  0.6666667  0.9398382  )
        16           O   tau(  16) = (  0.1666667  0.8333333  0.6898382  )
        17           Zn  tau(  17) = (  0.8333333  0.1666667  0.2503168  )
        18           Zn  tau(  18) = (  0.6666667  0.3333333  0.0003168  )
        19           O   tau(  19) = (  0.8333333  0.1666667  0.4398382  )
        20           O   tau(  20) = (  0.6666667  0.3333333  0.1898382  )
        21           Zn  tau(  21) = (  0.8333333  0.1666667  0.7503168  )
        22           Zn  tau(  22) = (  0.6666667  0.3333333  0.5003168  )
        23           O   tau(  23) = (  0.8333333  0.1666667  0.9398382  )
        24           O   tau(  24) = (  0.6666667  0.3333333  0.6898382  )
        25           Zn  tau(  25) = (  0.8333333  0.6666667  0.2503168  )
        26           Zn  tau(  26) = (  0.6666667  0.8333333  0.0003168  )
        27           O   tau(  27) = (  0.8333333  0.6666667  0.4398382  )
        28           O   tau(  28) = (  0.6666667  0.8333333  0.1898382  )
        29           Zn  tau(  29) = (  0.8333333  0.6666667  0.7503168  )
        30           Zn  tau(  30) = (  0.6666667  0.8333333  0.5003168  )
        31           O   tau(  31) = (  0.8333333  0.6666667  0.9398382  )
        32           O   tau(  32) = (  0.6666667  0.8333333  0.6898382  )

     number of k points=     7
                       cart. coord. in units 2pi/alat
        k(    1) = (   0.0000000   0.0000000   0.0000000), wk =   0.0740741
        k(    2) = (   0.0000000   0.0000000   0.2064804), wk =   0.1481481
        k(    3) = (   0.0000000   0.3849002   0.0000000), wk =   0.4444444
        k(    4) = (   0.0000000   0.3849002   0.2064804), wk =   0.4444444
        k(    5) = (   0.3333333   0.5773503   0.0000000), wk =   0.1481481
        k(    6) = (   0.3333333   0.5773503   0.2064804), wk =   0.2962963
        k(    7) = (   0.0000000  -0.3849002   0.2064804), wk =   0.4444444

                       cryst. coord.
        k(    1) = (   0.0000000   0.0000000   0.0000000), wk =   0.0740741
        k(    2) = (   0.0000000   0.0000000   0.3333333), wk =   0.1481481
        k(    3) = (   0.0000000   0.3333333   0.0000000), wk =   0.4444444
        k(    4) = (   0.0000000   0.3333333   0.3333333), wk =   0.4444444
        k(    5) = (   0.3333333   0.3333333   0.0000000), wk =   0.1481481
        k(    6) = (   0.3333333   0.3333333   0.3333333), wk =   0.2962963
        k(    7) = (   0.0000000  -0.3333333   0.3333333), wk =   0.4444444

     Dense  grid:   356437 G-vectors     FFT dimensions: (  80,  80, 128)

     Smooth grid:   125891 G-vectors     FFT dimensions: (  60,  60,  90)

     Dynamical RAM for                 wfc:       8.65 MB

     Dynamical RAM for     wfc (w. buffer):       8.65 MB

     Dynamical RAM for           str. fact:       2.72 MB

     Dynamical RAM for           local pot:       0.00 MB

     Dynamical RAM for          nlocal pot:      25.00 MB

     Dynamical RAM for                qrad:       3.21 MB

     Dynamical RAM for          rho,v,vnew:       8.77 MB

     Dynamical RAM for               rhoin:       2.92 MB

     Dynamical RAM for            rho*nmix:      21.76 MB

     Dynamical RAM for           G-vectors:       5.34 MB

     Dynamical RAM for          h,s,v(r/c):       3.80 MB

     Dynamical RAM for          <psi|beta>:       0.91 MB

     Dynamical RAM for                 psi:      17.31 MB

     Dynamical RAM for                hpsi:      17.31 MB

     Dynamical RAM for                spsi:      17.31 MB

     Dynamical RAM for      wfcinit/wfcrot:      25.99 MB

     Dynamical RAM for           addusdens:      35.52 MB

     Dynamical RAM for          addusforce:      40.17 MB

     Estimated static dynamical RAM per process >      68.50 MB

     Estimated max dynamical RAM per process >     146.88 MB

     Estimated total dynamical RAM >       4.00 GB

     Check: negative core charge=   -0.000002

     Initial potential from superposition of free atoms

     starting charge     287.9404, renormalised to     288.0000
     Starting wfcs are  208 randomized atomic wfcs

     total cpu time spent up to now is       11.8 secs

     Self-consistent Calculation

     iteration #  1     ecut=    50.00 Ry     beta= 0.30
     Davidson diagonalization with overlap

---- Real-time Memory Report at c_bands before calling an iterative solver
           135 MiB given to the printing process from OS
             0 MiB allocation reported by mallinfo(arena+hblkhd)
         76414 MiB available memory on the node where the printing process lives
------------------
     ethr =  1.00E-02,  avg # of iterations =  2.0

     total cpu time spent up to now is       19.3 secs

     total energy              =   -2891.84128276 Ry
     estimated scf accuracy    <       5.52290879 Ry

     iteration #  2     ecut=    50.00 Ry     beta= 0.30
     Davidson diagonalization with overlap

---- Real-time Memory Report at c_bands before calling an iterative solver
           167 MiB given to the printing process from OS
             0 MiB allocation reported by mallinfo(arena+hblkhd)
         75774 MiB available memory on the node where the printing process lives
------------------
     ethr =  1.92E-03,  avg # of iterations =  2.0

     total cpu time spent up to now is       27.8 secs

     total energy              =   -2892.62805128 Ry
     estimated scf accuracy    <       0.71169564 Ry

     iteration #  3     ecut=    50.00 Ry     beta= 0.30
     Davidson diagonalization with overlap

---- Real-time Memory Report at c_bands before calling an iterative solver
           171 MiB given to the printing process from OS
             0 MiB allocation reported by mallinfo(arena+hblkhd)
         75832 MiB available memory on the node where the printing process lives
------------------
     ethr =  2.47E-04,  avg # of iterations =  7.1

     total cpu time spent up to now is       42.1 secs

     total energy              =   -2892.87146178 Ry
     estimated scf accuracy    <       0.48327463 Ry

     iteration #  4     ecut=    50.00 Ry     beta= 0.30
     Davidson diagonalization with overlap

---- Real-time Memory Report at c_bands before calling an iterative solver
           172 MiB given to the printing process from OS
             0 MiB allocation reported by mallinfo(arena+hblkhd)
         75884 MiB available memory on the node where the printing process lives
------------------
     ethr =  1.68E-04,  avg # of iterations =  9.6

     total cpu time spent up to now is       61.4 secs

     total energy              =   -2893.21080288 Ry
     estimated scf accuracy    <       2.00151970 Ry

     iteration #  5     ecut=    50.00 Ry     beta= 0.30
     Davidson diagonalization with overlap

---- Real-time Memory Report at c_bands before calling an iterative solver
           173 MiB given to the printing process from OS
             0 MiB allocation reported by mallinfo(arena+hblkhd)
         75882 MiB available memory on the node where the printing process lives
------------------
     ethr =  1.68E-04,  avg # of iterations =  2.0

     total cpu time spent up to now is       69.0 secs

     total energy              =   -2892.27819215 Ry
     estimated scf accuracy    <       1.15855224 Ry

     iteration #  6     ecut=    50.00 Ry     beta= 0.30
     Davidson diagonalization with overlap

---- Real-time Memory Report at c_bands before calling an iterative solver
           174 MiB given to the printing process from OS
             0 MiB allocation reported by mallinfo(arena+hblkhd)
         75880 MiB available memory on the node where the printing process lives
------------------
     ethr =  1.68E-04,  avg # of iterations = 11.7

     total cpu time spent up to now is       90.2 secs

     total energy              =   -2892.60735875 Ry
     estimated scf accuracy    <       6.20806766 Ry

     iteration #  7     ecut=    50.00 Ry     beta= 0.30
     Davidson diagonalization with overlap

---- Real-time Memory Report at c_bands before calling an iterative solver
           175 MiB given to the printing process from OS
             0 MiB allocation reported by mallinfo(arena+hblkhd)
         75877 MiB available memory on the node where the printing process lives
------------------
     ethr =  1.68E-04,  avg # of iterations =  8.9

     total cpu time spent up to now is      106.6 secs

     total energy              =   -2893.08599965 Ry
     estimated scf accuracy    <       0.52773346 Ry

     iteration #  8     ecut=    50.00 Ry     beta= 0.30
     Davidson diagonalization with overlap

---- Real-time Memory Report at c_bands before calling an iterative solver
           176 MiB given to the printing process from OS
             0 MiB allocation reported by mallinfo(arena+hblkhd)
         75876 MiB available memory on the node where the printing process lives
------------------
     ethr =  1.68E-04,  avg # of iterations =  2.0

     total cpu time spent up to now is      113.9 secs

     total energy              =   -2893.09932316 Ry
     estimated scf accuracy    <       0.29341077 Ry

     iteration #  9     ecut=    50.00 Ry     beta= 0.30
     Davidson diagonalization with overlap

---- Real-time Memory Report at c_bands before calling an iterative solver
           177 MiB given to the printing process from OS
             0 MiB allocation reported by mallinfo(arena+hblkhd)
         75873 MiB available memory on the node where the printing process lives
------------------
     ethr =  1.02E-04,  avg # of iterations =  1.6

     total cpu time spent up to now is      121.0 secs

     total energy              =   -2892.97734743 Ry
     estimated scf accuracy    <       0.25553367 Ry

     iteration # 10     ecut=    50.00 Ry     beta= 0.30
     Davidson diagonalization with overlap

---- Real-time Memory Report at c_bands before calling an iterative solver
           178 MiB given to the printing process from OS
             0 MiB allocation reported by mallinfo(arena+hblkhd)
         75870 MiB available memory on the node where the printing process lives
------------------
     ethr =  8.87E-05,  avg # of iterations =  7.0

     total cpu time spent up to now is      134.3 secs

     total energy              =   -2893.09274712 Ry
     estimated scf accuracy    <       0.04305109 Ry

     iteration # 11     ecut=    50.00 Ry     beta= 0.30
     Davidson diagonalization with overlap

---- Real-time Memory Report at c_bands before calling an iterative solver
           179 MiB given to the printing process from OS
             0 MiB allocation reported by mallinfo(arena+hblkhd)
         75867 MiB available memory on the node where the printing process lives
------------------
     ethr =  1.49E-05,  avg # of iterations =  4.3

     total cpu time spent up to now is      142.4 secs

     total energy              =   -2893.09569813 Ry
     estimated scf accuracy    <       0.02170360 Ry

     iteration # 12     ecut=    50.00 Ry     beta= 0.30
     Davidson diagonalization with overlap

---- Real-time Memory Report at c_bands before calling an iterative solver
           179 MiB given to the printing process from OS
             0 MiB allocation reported by mallinfo(arena+hblkhd)
         75867 MiB available memory on the node where the printing process lives
------------------
     ethr =  7.54E-06,  avg # of iterations =  1.9
[perseu][[42357,1],29][../../../../../../opal/mca/btl/tcp/btl_tcp.c:559:mca_btl_tcp_recv_blocking] recv(18) failed: Connection reset by peer (104)

     total cpu time spent up to now is      150.5 secs

     total energy              =   -2893.09292591 Ry
     estimated scf accuracy    <       0.01780556 Ry

     iteration # 13     ecut=    50.00 Ry     beta= 0.30
     Davidson diagonalization with overlap

---- Real-time Memory Report at c_bands before calling an iterative solver
           179 MiB given to the printing process from OS
             0 MiB allocation reported by mallinfo(arena+hblkhd)
         75868 MiB available memory on the node where the printing process lives
------------------
     ethr =  6.18E-06,  avg # of iterations =  2.0

     total cpu time spent up to now is      158.3 secs

     total energy              =   -2893.09633556 Ry
     estimated scf accuracy    <       0.00792088 Ry

     iteration # 14     ecut=    50.00 Ry     beta= 0.30
     Davidson diagonalization with overlap

---- Real-time Memory Report at c_bands before calling an iterative solver
           179 MiB given to the printing process from OS
             0 MiB allocation reported by mallinfo(arena+hblkhd)
         75868 MiB available memory on the node where the printing process lives
------------------
     ethr =  2.75E-06,  avg # of iterations =  2.3

     total cpu time spent up to now is      165.9 secs

     total energy              =   -2893.09838451 Ry
     estimated scf accuracy    <       0.01035126 Ry

     iteration # 15     ecut=    50.00 Ry     beta= 0.30
     Davidson diagonalization with overlap

---- Real-time Memory Report at c_bands before calling an iterative solver
           179 MiB given to the printing process from OS
             0 MiB allocation reported by mallinfo(arena+hblkhd)
         75868 MiB available memory on the node where the printing process lives
------------------
     ethr =  2.75E-06,  avg # of iterations =  1.4

     total cpu time spent up to now is      172.8 secs

     total energy              =   -2893.09840528 Ry
     estimated scf accuracy    <       0.01380111 Ry

     iteration # 16     ecut=    50.00 Ry     beta= 0.30
     Davidson diagonalization with overlap

---- Real-time Memory Report at c_bands before calling an iterative solver
           179 MiB given to the printing process from OS
             0 MiB allocation reported by mallinfo(arena+hblkhd)
         75869 MiB available memory on the node where the printing process lives
------------------
     ethr =  2.75E-06,  avg # of iterations =  1.0

     total cpu time spent up to now is      179.3 secs

     total energy              =   -2893.09468651 Ry
     estimated scf accuracy    <       0.01345121 Ry

     iteration # 17     ecut=    50.00 Ry     beta= 0.30
     Davidson diagonalization with overlap

---- Real-time Memory Report at c_bands before calling an iterative solver
           179 MiB given to the printing process from OS
             0 MiB allocation reported by mallinfo(arena+hblkhd)
         75869 MiB available memory on the node where the printing process lives
------------------
     ethr =  2.75E-06,  avg # of iterations =  2.1

     total cpu time spent up to now is      186.7 secs

     total energy              =   -2893.09247337 Ry
     estimated scf accuracy    <       0.00600028 Ry

     iteration # 18     ecut=    50.00 Ry     beta= 0.30
     Davidson diagonalization with overlap

---- Real-time Memory Report at c_bands before calling an iterative solver
           179 MiB given to the printing process from OS
             0 MiB allocation reported by mallinfo(arena+hblkhd)
         75869 MiB available memory on the node where the printing process lives
------------------
     ethr =  2.08E-06,  avg # of iterations =  5.9

     total cpu time spent up to now is      199.0 secs

     total energy              =   -2893.09488632 Ry
     estimated scf accuracy    <       0.00027058 Ry

     iteration # 19     ecut=    50.00 Ry     beta= 0.30
     Davidson diagonalization with overlap

---- Real-time Memory Report at c_bands before calling an iterative solver
           179 MiB given to the printing process from OS
             0 MiB allocation reported by mallinfo(arena+hblkhd)
         75869 MiB available memory on the node where the printing process lives
------------------
     ethr =  9.40E-08,  avg # of iterations =  7.9

     total cpu time spent up to now is      212.5 secs

     total energy              =   -2893.09530329 Ry
     estimated scf accuracy    <       0.00003232 Ry

     iteration # 20     ecut=    50.00 Ry     beta= 0.30
     Davidson diagonalization with overlap

---- Real-time Memory Report at c_bands before calling an iterative solver
           179 MiB given to the printing process from OS
             0 MiB allocation reported by mallinfo(arena+hblkhd)
         75869 MiB available memory on the node where the printing process lives
------------------
     ethr =  1.12E-08,  avg # of iterations = 14.7

     total cpu time spent up to now is      237.2 secs

     total energy              =   -2893.09609141 Ry
     estimated scf accuracy    <       0.00168016 Ry

     iteration # 21     ecut=    50.00 Ry     beta= 0.30
     Davidson diagonalization with overlap

---- Real-time Memory Report at c_bands before calling an iterative solver
           179 MiB given to the printing process from OS
             0 MiB allocation reported by mallinfo(arena+hblkhd)
         75869 MiB available memory on the node where the printing process lives
------------------
     ethr =  1.12E-08,  avg # of iterations = 12.9

     total cpu time spent up to now is      259.2 secs

     total energy              =   -2893.09573986 Ry
     estimated scf accuracy    <       0.00429436 Ry

     iteration # 22     ecut=    50.00 Ry     beta= 0.30
     Davidson diagonalization with overlap

---- Real-time Memory Report at c_bands before calling an iterative solver
           179 MiB given to the printing process from OS
             0 MiB allocation reported by mallinfo(arena+hblkhd)
         75869 MiB available memory on the node where the printing process lives
------------------
     ethr =  1.12E-08,  avg # of iterations =  8.6

     total cpu time spent up to now is      276.2 secs

     total energy              =   -2893.09599827 Ry
     estimated scf accuracy    <       0.00272759 Ry

     iteration # 23     ecut=    50.00 Ry     beta= 0.30
     Davidson diagonalization with overlap

---- Real-time Memory Report at c_bands before calling an iterative solver
           179 MiB given to the printing process from OS
             0 MiB allocation reported by mallinfo(arena+hblkhd)
         75869 MiB available memory on the node where the printing process lives
------------------
     ethr =  1.12E-08,  avg # of iterations =  4.3

     total cpu time spent up to now is      285.3 secs

     total energy              =   -2893.09579120 Ry
     estimated scf accuracy    <       0.00318877 Ry

     iteration # 24     ecut=    50.00 Ry     beta= 0.30
     Davidson diagonalization with overlap

---- Real-time Memory Report at c_bands before calling an iterative solver
           179 MiB given to the printing process from OS
             0 MiB allocation reported by mallinfo(arena+hblkhd)
         75869 MiB available memory on the node where the printing process lives
------------------
     ethr =  1.12E-08,  avg # of iterations =  2.0

     total cpu time spent up to now is      292.7 secs

     total energy              =   -2893.09579891 Ry
     estimated scf accuracy    <       0.00284227 Ry

     iteration # 25     ecut=    50.00 Ry     beta= 0.30
     Davidson diagonalization with overlap

---- Real-time Memory Report at c_bands before calling an iterative solver
           179 MiB given to the printing process from OS
             0 MiB allocation reported by mallinfo(arena+hblkhd)
         75869 MiB available memory on the node where the printing process lives
------------------
     ethr =  1.12E-08,  avg # of iterations =  1.9

     total cpu time spent up to now is      299.9 secs

     total energy              =   -2893.09481383 Ry
     estimated scf accuracy    <       0.00282841 Ry

     iteration # 26     ecut=    50.00 Ry     beta= 0.30
     Davidson diagonalization with overlap

---- Real-time Memory Report at c_bands before calling an iterative solver
           179 MiB given to the printing process from OS
             0 MiB allocation reported by mallinfo(arena+hblkhd)
         75869 MiB available memory on the node where the printing process lives
------------------
     ethr =  1.12E-08,  avg # of iterations = 15.1

     total cpu time spent up to now is      325.3 secs

     total energy              =   -2893.09510579 Ry
     estimated scf accuracy    <       0.00013115 Ry

     iteration # 27     ecut=    50.00 Ry     beta= 0.30
     Davidson diagonalization with overlap

---- Real-time Memory Report at c_bands before calling an iterative solver
           179 MiB given to the printing process from OS
             0 MiB allocation reported by mallinfo(arena+hblkhd)
         75869 MiB available memory on the node where the printing process lives
------------------
     ethr =  1.12E-08,  avg # of iterations =  3.4

     total cpu time spent up to now is      333.9 secs

     total energy              =   -2893.09506143 Ry
     estimated scf accuracy    <       0.00007478 Ry

     iteration # 28     ecut=    50.00 Ry     beta= 0.30
     Davidson diagonalization with overlap

---- Real-time Memory Report at c_bands before calling an iterative solver
           179 MiB given to the printing process from OS
             0 MiB allocation reported by mallinfo(arena+hblkhd)
         75869 MiB available memory on the node where the printing process lives
------------------
     ethr =  1.12E-08,  avg # of iterations =  9.6

     total cpu time spent up to now is      351.7 secs

     total energy              =   -2893.09509330 Ry
     estimated scf accuracy    <       0.00006611 Ry

     iteration # 29     ecut=    50.00 Ry     beta= 0.30
     Davidson diagonalization with overlap

---- Real-time Memory Report at c_bands before calling an iterative solver
           179 MiB given to the printing process from OS
             0 MiB allocation reported by mallinfo(arena+hblkhd)
         75869 MiB available memory on the node where the printing process lives
------------------
     ethr =  1.12E-08,  avg # of iterations =  4.6

     total cpu time spent up to now is      361.0 secs

     total energy              =   -2893.09509444 Ry
     estimated scf accuracy    <       0.00001389 Ry

     iteration # 30     ecut=    50.00 Ry     beta= 0.30
     Davidson diagonalization with overlap

---- Real-time Memory Report at c_bands before calling an iterative solver
           179 MiB given to the printing process from OS
             0 MiB allocation reported by mallinfo(arena+hblkhd)
         75869 MiB available memory on the node where the printing process lives
------------------
     ethr =  4.82E-09,  avg # of iterations =  6.7

     total cpu time spent up to now is      374.4 secs

     total energy              =   -2893.09510446 Ry
     estimated scf accuracy    <       0.00000226 Ry

     iteration # 31     ecut=    50.00 Ry     beta= 0.30
     Davidson diagonalization with overlap

---- Real-time Memory Report at c_bands before calling an iterative solver
           179 MiB given to the printing process from OS
             0 MiB allocation reported by mallinfo(arena+hblkhd)
         75868 MiB available memory on the node where the printing process lives
------------------
     ethr =  7.86E-10,  avg # of iterations =  6.9

     total cpu time spent up to now is      387.2 secs

     total energy              =   -2893.09510254 Ry
     estimated scf accuracy    <       0.00000694 Ry

     iteration # 32     ecut=    50.00 Ry     beta= 0.30
     Davidson diagonalization with overlap

---- Real-time Memory Report at c_bands before calling an iterative solver
           179 MiB given to the printing process from OS
             0 MiB allocation reported by mallinfo(arena+hblkhd)
         75868 MiB available memory on the node where the printing process lives
------------------
     ethr =  7.86E-10,  avg # of iterations =  6.4

     total cpu time spent up to now is      398.1 secs

     total energy              =   -2893.09510286 Ry
     estimated scf accuracy    <       0.00000095 Ry

     iteration # 33     ecut=    50.00 Ry     beta= 0.30
     Davidson diagonalization with overlap

---- Real-time Memory Report at c_bands before calling an iterative solver
           179 MiB given to the printing process from OS
             0 MiB allocation reported by mallinfo(arena+hblkhd)
         75868 MiB available memory on the node where the printing process lives
------------------
     ethr =  3.30E-10,  avg # of iterations =  5.3

     total cpu time spent up to now is      409.1 secs

     total energy              =   -2893.09510315 Ry
     estimated scf accuracy    <       0.00000003 Ry

     iteration # 34     ecut=    50.00 Ry     beta= 0.30
     Davidson diagonalization with overlap

---- Real-time Memory Report at c_bands before calling an iterative solver
           179 MiB given to the printing process from OS
             0 MiB allocation reported by mallinfo(arena+hblkhd)
         75868 MiB available memory on the node where the printing process lives
------------------
     ethr =  9.76E-12,  avg # of iterations = 11.1

     total cpu time spent up to now is      428.7 secs

     total energy              =   -2893.09510319 Ry
     estimated scf accuracy    <       0.00000008 Ry

     iteration # 35     ecut=    50.00 Ry     beta= 0.30
     Davidson diagonalization with overlap

---- Real-time Memory Report at c_bands before calling an iterative solver
           179 MiB given to the printing process from OS
             0 MiB allocation reported by mallinfo(arena+hblkhd)
         75868 MiB available memory on the node where the printing process lives
------------------
     ethr =  9.76E-12,  avg # of iterations =  2.0

     total cpu time spent up to now is      436.6 secs

     total energy              =   -2893.09510318 Ry
     estimated scf accuracy    <       0.00000003 Ry

     iteration # 36     ecut=    50.00 Ry     beta= 0.30
     Davidson diagonalization with overlap

---- Real-time Memory Report at c_bands before calling an iterative solver
           179 MiB given to the printing process from OS
             0 MiB allocation reported by mallinfo(arena+hblkhd)
         75868 MiB available memory on the node where the printing process lives
------------------
     ethr =  9.76E-12,  avg # of iterations =  7.1

     total cpu time spent up to now is      452.1 secs

     total energy              =   -2893.09510320 Ry
     estimated scf accuracy    <       0.00000001 Ry

     iteration # 37     ecut=    50.00 Ry     beta= 0.30
     Davidson diagonalization with overlap

---- Real-time Memory Report at c_bands before calling an iterative solver
           179 MiB given to the printing process from OS
             0 MiB allocation reported by mallinfo(arena+hblkhd)
         75868 MiB available memory on the node where the printing process lives
------------------
     ethr =  4.95E-12,  avg # of iterations =  1.9

     total cpu time spent up to now is      459.3 secs

     End of self-consistent calculation

          k = 0.0000 0.0000 0.0000 ( 15657 PWs)   bands (ev):

   -10.9984 -10.6674 -10.6674 -10.3492 -10.3492 -10.3492 -10.3182 -10.2371
   -10.2371 -10.2371 -10.2371 -10.2371 -10.2371 -10.1407 -10.1407 -10.1407
     0.9527   0.9527   0.9527   0.9527   0.9527   0.9527   1.1141   1.1141
     1.1141   1.1297   1.1297   1.3159   1.3159   1.3230   1.3230   1.3230
     1.3565   1.3852   1.3852   1.3852   1.3852   1.4392   1.5014   1.5014
     1.5609   1.5609   1.5609   1.7821   1.7821   1.7821   1.7821   1.7821
     1.7821   1.8587   1.8587   1.8587   1.8587   1.8587   1.8587   1.9413
     1.9413   1.9413   1.9538   1.9538   1.9538   2.0753   2.0753   2.0753
     2.4282   2.4282   2.4642   2.4642   2.4642   2.5468   2.5468   2.5468
     2.5468   2.5909   2.5909   2.5909   2.6133   2.6133   2.6133   2.6133
     2.6133   2.6133   2.6248   2.6248   2.6705   2.6705   2.6705   2.6978
     2.6978   2.6978   2.6978   2.6978   2.6978   2.7417   2.7417   2.7417
     2.8918   3.1878   3.1878   3.1878   3.1878   3.1878   3.1878   3.2047
     3.2047   3.2047   3.4268   3.4268   3.4268   4.1406   4.1406   4.1406
     4.6601   4.6601   4.7140   4.7140   4.7140   5.4385   5.4385   5.4385
     5.4385   5.4385   5.4385   5.5539   5.5539   5.5539   5.5539   5.5539
     5.5539   5.6403   5.6403   5.6403   6.0830   6.0830   6.0830   6.1251
     6.1251   6.5109   6.5109   6.5109   6.5109   6.8050   6.8874   6.8874

     occupation numbers 
     1.0000   1.0000   1.0000   1.0000   1.0000   1.0000   1.0000   1.0000
     1.0000   1.0000   1.0000   1.0000   1.0000   1.0000   1.0000   1.0000
     1.0000   1.0000   1.0000   1.0000   1.0000   1.0000   1.0000   1.0000
     1.0000   1.0000   1.0000   1.0000   1.0000   1.0000   1.0000   1.0000
     1.0000   1.0000   1.0000   1.0000   1.0000   1.0000   1.0000   1.0000
     1.0000   1.0000   1.0000   1.0000   1.0000   1.0000   1.0000   1.0000
     1.0000   1.0000   1.0000   1.0000   1.0000   1.0000   1.0000   1.0000
     1.0000   1.0000   1.0000   1.0000   1.0000   1.0000   1.0000   1.0000
     1.0000   1.0000   1.0000   1.0000   1.0000   1.0000   1.0000   1.0000
     1.0000   1.0000   1.0000   1.0000   1.0000   1.0000   1.0000   1.0000
     1.0000   1.0000   1.0000   1.0000   1.0000   1.0000   1.0000   1.0000
     1.0000   1.0000   1.0000   1.0000   1.0000   1.0000   1.0000   1.0000
     1.0000   1.0000   1.0000   1.0000   1.0000   1.0000   1.0000   1.0000
     1.0000   1.0000   1.0000   1.0000   1.0000   1.0000   1.0000   1.0000
     1.0000   1.0000   1.0000   1.0000   1.0000   1.0000   1.0000   1.0000
     1.0000   1.0000   1.0000   1.0000   1.0000   1.0000   1.0000   1.0000
     1.0000   1.0000   1.0000   1.0000   1.0000   1.0000   1.0000   1.0000
     1.0000   1.0000   1.0000   1.0000   1.0000   1.0000   1.0000   1.0000

          k = 0.0000 0.0000 0.2065 ( 15741 PWs)   bands (ev):

   -10.9551 -10.8351 -10.4951 -10.3661 -10.3334 -10.3334 -10.3334 -10.2914
   -10.2914 -10.2914 -10.1868 -10.1868 -10.1868 -10.1526 -10.1526 -10.1526
     0.9826   0.9826   0.9826   1.0471   1.0471   1.0471   1.0698   1.0698
     1.0698   1.1614   1.2062   1.2255   1.2255   1.2255   1.3102   1.3169
     1.3225   1.3225   1.3451   1.3451   1.4366   1.4366   1.4826   1.4826
     1.5871   1.5871   1.5871   1.6641   1.6641   1.6641   1.8687   1.8687
     1.8687   1.8803   1.8803   1.8803   1.9133   1.9133   1.9133   1.9178
     1.9178   1.9178   1.9195   1.9195   1.9195   2.0308   2.0308   2.0308
     2.4460   2.4460   2.4918   2.4918   2.5266   2.5266   2.5266   2.5917
     2.5917   2.5930   2.5930   2.5930   2.6003   2.6003   2.6003   2.6172
     2.6172   2.6268   2.6268   2.6268   2.6329   2.6329   2.6329   2.6574
     2.6574   2.6574   2.7317   2.7317   2.7317   2.7411   2.7411   2.7411
     3.1456   3.1456   3.1456   3.1660   3.1660   3.1660   3.2007   3.2754
     3.2754   3.2754   3.3762   3.3762   3.3762   3.8753   4.4237   4.4237
     4.4237   4.8201   4.8201   4.8201   5.0141   5.0141   5.0141   5.0928
     5.0928   5.0928   5.4566   5.7267   5.7267   5.7267   5.7659   5.7659
     5.7659   5.7927   5.7927   5.7927   5.9987   5.9987   5.9987   6.1772
     6.1772   6.2430   6.3190   6.3190   6.7004   6.7004   6.8375   6.8375

     occupation numbers 
     1.0000   1.0000   1.0000   1.0000   1.0000   1.0000   1.0000   1.0000
     1.0000   1.0000   1.0000   1.0000   1.0000   1.0000   1.0000   1.0000
     1.0000   1.0000   1.0000   1.0000   1.0000   1.0000   1.0000   1.0000
     1.0000   1.0000   1.0000   1.0000   1.0000   1.0000   1.0000   1.0000
     1.0000   1.0000   1.0000   1.0000   1.0000   1.0000   1.0000   1.0000
     1.0000   1.0000   1.0000   1.0000   1.0000   1.0000   1.0000   1.0000
     1.0000   1.0000   1.0000   1.0000   1.0000   1.0000   1.0000   1.0000
     1.0000   1.0000   1.0000   1.0000   1.0000   1.0000   1.0000   1.0000
     1.0000   1.0000   1.0000   1.0000   1.0000   1.0000   1.0000   1.0000
     1.0000   1.0000   1.0000   1.0000   1.0000   1.0000   1.0000   1.0000
     1.0000   1.0000   1.0000   1.0000   1.0000   1.0000   1.0000   1.0000
     1.0000   1.0000   1.0000   1.0000   1.0000   1.0000   1.0000   1.0000
     1.0000   1.0000   1.0000   1.0000   1.0000   1.0000   1.0000   1.0000
     1.0000   1.0000   1.0000   1.0000   1.0000   1.0000   1.0000   1.0000
     1.0000   1.0000   1.0000   1.0000   1.0000   1.0000   1.0000   1.0000
     1.0000   1.0000   1.0000   1.0000   1.0000   1.0000   1.0000   1.0000
     1.0000   1.0000   1.0000   1.0000   1.0000   1.0000   1.0000   1.0000
     1.0000   1.0000   1.0000   1.0000   1.0000   1.0000   1.0000   1.0000

          k = 0.0000 0.3849 0.0000 ( 15776 PWs)   bands (ev):

   -10.8593 -10.5636 -10.5636 -10.5469 -10.3567 -10.3566 -10.3486 -10.3486
   -10.2581 -10.2391 -10.2391 -10.2391 -10.2391 -10.1574 -10.1367 -10.1367
     0.9620   0.9620   1.0420   1.0549   1.0549   1.0857   1.0857   1.0857
     1.0857   1.1787   1.2098   1.2098   1.3780   1.3939   1.4175   1.4530
     1.4530   1.4698   1.4698   1.4827   1.4827   1.4978   1.5196   1.5839
     1.5839   1.6182   1.6623   1.6623   1.6623   1.6623   1.6647   1.6841
     1.6841   1.6874   1.6874   1.7197   1.7926   1.7926   1.8597   1.8597
     1.8597   1.8597   1.9005   2.0312   2.0460   2.0460   2.1149   2.1149
     2.3484   2.3719   2.4055   2.4055   2.4269   2.4731   2.4731   2.4988
     2.5440   2.5440   2.5485   2.5485   2.5532   2.5532   2.5532   2.5532
     2.5702   2.5702   2.5851   2.5851   2.6358   2.6552   2.6836   2.6836
     2.7390   2.7390   2.7390   2.7390   2.7479   2.8131   2.8614   2.8732
     2.8732   3.0747   3.0747   3.0838   3.4275   3.4275   3.4275   3.4275
     3.6813   3.6813   3.7941   3.8758   3.8758   4.1031   4.1031   4.4221
     4.4221   4.6007   4.6008   4.6507   4.9299   4.9299   4.9299   4.9299
     5.0973   5.2257   5.5303   5.5303   5.6135   5.6135   5.6423   5.6423
     5.6423   5.6423   5.7224   5.7224   5.7794   5.7885   5.7976   5.7976
     5.9120   5.9120   6.0931   6.2537   6.2537   6.3016   6.6256   6.7030

     occupation numbers 
     1.0000   1.0000   1.0000   1.0000   1.0000   1.0000   1.0000   1.0000
     1.0000   1.0000   1.0000   1.0000   1.0000   1.0000   1.0000   1.0000
     1.0000   1.0000   1.0000   1.0000   1.0000   1.0000   1.0000   1.0000
     1.0000   1.0000   1.0000   1.0000   1.0000   1.0000   1.0000   1.0000
     1.0000   1.0000   1.0000   1.0000   1.0000   1.0000   1.0000   1.0000
     1.0000   1.0000   1.0000   1.0000   1.0000   1.0000   1.0000   1.0000
     1.0000   1.0000   1.0000   1.0000   1.0000   1.0000   1.0000   1.0000
     1.0000   1.0000   1.0000   1.0000   1.0000   1.0000   1.0000   1.0000
     1.0000   1.0000   1.0000   1.0000   1.0000   1.0000   1.0000   1.0000
     1.0000   1.0000   1.0000   1.0000   1.0000   1.0000   1.0000   1.0000
     1.0000   1.0000   1.0000   1.0000   1.0000   1.0000   1.0000   1.0000
     1.0000   1.0000   1.0000   1.0000   1.0000   1.0000   1.0000   1.0000
     1.0000   1.0000   1.0000   1.0000   1.0000   1.0000   1.0000   1.0000
     1.0000   1.0000   1.0000   1.0000   1.0000   1.0000   1.0000   1.0000
     1.0000   1.0000   1.0000   1.0000   1.0000   1.0000   1.0000   1.0000
     1.0000   1.0000   1.0000   1.0000   1.0000   1.0000   1.0000   1.0000
     1.0000   1.0000   1.0000   1.0000   1.0000   1.0000   1.0000   1.0000
     1.0000   1.0000   1.0000   1.0000   1.0000   1.0000   1.0000   1.0000

          k = 0.0000 0.3849 0.2065 ( 15754 PWs)   bands (ev):

   -10.8203 -10.7127 -10.5201 -10.4471 -10.4120 -10.3401 -10.3401 -10.2995
   -10.2961 -10.2961 -10.2519 -10.1858 -10.1858 -10.1825 -10.1494 -10.1494
     0.9559   1.0114   1.0820   1.0906   1.1038   1.1038   1.1443   1.1496
     1.1780   1.1780   1.1968   1.1968   1.2878   1.3367   1.3762   1.3762
     1.4035   1.4331   1.4425   1.4548   1.5221   1.5395   1.5437   1.5637
     1.5637   1.5839   1.5839   1.5905   1.5967   1.5969   1.6674   1.6945
     1.7338   1.7338   1.7583   1.7730   1.7730   1.7846   1.8679   1.8904
     1.8904   1.8969   1.9133   1.9133   1.9824   1.9824   2.0290   2.0290
     2.3853   2.4013   2.4172   2.4172   2.4440   2.4695   2.4787   2.4884
     2.4958   2.4958   2.5083   2.5339   2.5393   2.5393   2.5677   2.5677
     2.5935   2.6096   2.6172   2.6255   2.6425   2.6724   2.6804   2.6804
     2.6819   2.6913   2.6913   2.7606   2.8116   2.8116   2.8696   2.8696
     3.1154   3.1154   3.2560   3.2568   3.2568   3.3424   3.5916   3.5916
     3.6415   3.6971   3.6971   3.9343   3.9351   4.0473   4.2092   4.2092
     4.5350   4.5350   4.6168   4.6168   4.6229   4.9084   5.0817   5.0817
     5.1229   5.1856   5.2751   5.3814   5.3814   5.4186   5.5973   5.5973
     5.5974   5.6315   5.7986   5.7986   5.8448   5.8448   5.8520   5.9793
     6.0155   6.0235   6.1085   6.2255   6.2837   6.4801   6.5473   6.6436

     occupation numbers 
     1.0000   1.0000   1.0000   1.0000   1.0000   1.0000   1.0000   1.0000
     1.0000   1.0000   1.0000   1.0000   1.0000   1.0000   1.0000   1.0000
     1.0000   1.0000   1.0000   1.0000   1.0000   1.0000   1.0000   1.0000
     1.0000   1.0000   1.0000   1.0000   1.0000   1.0000   1.0000   1.0000
     1.0000   1.0000   1.0000   1.0000   1.0000   1.0000   1.0000   1.0000
     1.0000   1.0000   1.0000   1.0000   1.0000   1.0000   1.0000   1.0000
     1.0000   1.0000   1.0000   1.0000   1.0000   1.0000   1.0000   1.0000
     1.0000   1.0000   1.0000   1.0000   1.0000   1.0000   1.0000   1.0000
     1.0000   1.0000   1.0000   1.0000   1.0000   1.0000   1.0000   1.0000
     1.0000   1.0000   1.0000   1.0000   1.0000   1.0000   1.0000   1.0000
     1.0000   1.0000   1.0000   1.0000   1.0000   1.0000   1.0000   1.0000
     1.0000   1.0000   1.0000   1.0000   1.0000   1.0000   1.0000   1.0000
     1.0000   1.0000   1.0000   1.0000   1.0000   1.0000   1.0000   1.0000
     1.0000   1.0000   1.0000   1.0000   1.0000   1.0000   1.0000   1.0000
     1.0000   1.0000   1.0000   1.0000   1.0000   1.0000   1.0000   1.0000
     1.0000   1.0000   1.0000   1.0000   1.0000   1.0000   1.0000   1.0000
     1.0000   1.0000   1.0000   1.0000   1.0000   1.0000   1.0000   1.0000
     1.0000   1.0000   1.0000   1.0000   1.0000   1.0000   1.0000   1.0000

          k = 0.3333 0.5774 0.0000 ( 15750 PWs)   bands (ev):

   -10.6322 -10.6322 -10.6322 -10.4038 -10.4038 -10.4038 -10.4038 -10.4038
   -10.4038 -10.1942 -10.1942 -10.1848 -10.1848 -10.1781 -10.1781 -10.1781
     1.0209   1.0209   1.0209   1.0209   1.0209   1.0209   1.1448   1.1448
     1.1448   1.2800   1.3212   1.3212   1.3347   1.3347   1.3347   1.5272
     1.5272   1.5272   1.5305   1.5305   1.5328   1.5328   1.5328   1.5328
     1.5328   1.5328   1.5845   1.5845   1.5845   1.6688   1.6688   1.6781
     1.6781   1.6781   1.6781   1.6781   1.6781   1.8373   1.8373   1.8373
     1.9688   1.9688   1.9688   2.0258   2.0556   2.0556   2.2690   2.2690
     2.3226   2.3226   2.3226   2.3627   2.4346   2.4346   2.4472   2.4472
     2.4472   2.4858   2.5316   2.5316   2.5519   2.5519   2.5519   2.5519
     2.5519   2.5519   2.5835   2.5835   2.5835   2.5835   2.5835   2.5835
     2.6484   2.6485   2.6485   2.8198   2.8198   2.8199   2.9255   2.9255
     3.0203   3.0203   3.0203   3.2411   3.2429   3.2429   3.4120   3.4120
     4.2135   4.2135   4.2135   4.2135   4.2135   4.2135   4.2827   4.2827
     4.4227   4.4227   4.4227   4.6354   4.6354   4.6354   5.0283   5.0283
     5.2183   5.2290   5.2290   5.2290   5.5301   5.5301   5.5301   5.5301
     5.5301   5.5301   5.6818   5.6818   5.7237   5.7237   5.7237   5.7237
     5.7237   5.7237   6.2537   6.2537   6.2537   6.2864   6.2864   6.2864

     occupation numbers 
     1.0000   1.0000   1.0000   1.0000   1.0000   1.0000   1.0000   1.0000
     1.0000   1.0000   1.0000   1.0000   1.0000   1.0000   1.0000   1.0000
     1.0000   1.0000   1.0000   1.0000   1.0000   1.0000   1.0000   1.0000
     1.0000   1.0000   1.0000   1.0000   1.0000   1.0000   1.0000   1.0000
     1.0000   1.0000   1.0000   1.0000   1.0000   1.0000   1.0000   1.0000
     1.0000   1.0000   1.0000   1.0000   1.0000   1.0000   1.0000   1.0000
     1.0000   1.0000   1.0000   1.0000   1.0000   1.0000   1.0000   1.0000
     1.0000   1.0000   1.0000   1.0000   1.0000   1.0000   1.0000   1.0000
     1.0000   1.0000   1.0000   1.0000   1.0000   1.0000   1.0000   1.0000
     1.0000   1.0000   1.0000   1.0000   1.0000   1.0000   1.0000   1.0000
     1.0000   1.0000   1.0000   1.0000   1.0000   1.0000   1.0000   1.0000
     1.0000   1.0000   1.0000   1.0000   1.0000   1.0000   1.0000   1.0000
     1.0000   1.0000   1.0000   1.0000   1.0000   1.0000   1.0000   1.0000
     1.0000   1.0000   1.0000   1.0000   1.0000   1.0000   1.0000   1.0000
     1.0000   1.0000   1.0000   1.0000   1.0000   1.0000   1.0000   1.0000
     1.0000   1.0000   1.0000   1.0000   1.0000   1.0000   1.0000   1.0000
     1.0000   1.0000   1.0000   1.0000   1.0000   1.0000   1.0000   1.0000
     1.0000   1.0000   1.0000   1.0000   1.0000   1.0000   1.0000   1.0000

          k = 0.3333 0.5774 0.2065 ( 15738 PWs)   bands (ev):

   -10.6015 -10.6015 -10.6015 -10.5178 -10.5178 -10.5178 -10.2904 -10.2904
   -10.2904 -10.2081 -10.2081 -10.2081 -10.1919 -10.1919 -10.1872 -10.1872
     1.0368   1.0368   1.0368   1.1086   1.1086   1.1086   1.1268   1.1268
     1.1268   1.2850   1.2850   1.2850   1.3081   1.3917   1.4031   1.4031
     1.5169   1.5169   1.5169   1.5188   1.5188   1.5188   1.5381   1.5381
     1.5381   1.5573   1.5573   1.5573   1.5787   1.5787   1.6853   1.6853
     1.6853   1.7171   1.7417   1.7417   1.7417   1.8092   1.8092   1.8092
     1.8094   1.8094   1.8094   1.9187   2.0771   2.0771   2.1585   2.1585
     2.3642   2.3642   2.3642   2.3793   2.4064   2.4607   2.4609   2.4609
     2.4609   2.4789   2.4789   2.4789   2.4792   2.5183   2.5183   2.5183
     2.6056   2.6056   2.6056   2.6363   2.6363   2.6363   2.6725   2.6725
     2.6725   2.6812   2.6812   2.7501   2.7501   2.7501   2.8530   2.8530
     3.2873   3.2873   3.3685   3.3685   3.3752   3.3752   3.3752   3.4090
     3.8035   3.8659   3.8659   3.8659   4.4657   4.4657   4.4657   4.5551
     4.5551   4.5551   4.6101   4.6101   4.6101   4.7452   4.9825   4.9825
     4.9825   5.0893   5.1982   5.1982   5.2328   5.2328   5.2328   5.3664
     5.3664   5.3664   5.5234   5.5234   5.9570   5.9570   5.9570   6.0904
     6.0904   6.0904   6.1732   6.1732   6.1732   6.2739   6.2739   6.2739

     occupation numbers 
     1.0000   1.0000   1.0000   1.0000   1.0000   1.0000   1.0000   1.0000
     1.0000   1.0000   1.0000   1.0000   1.0000   1.0000   1.0000   1.0000
     1.0000   1.0000   1.0000   1.0000   1.0000   1.0000   1.0000   1.0000
     1.0000   1.0000   1.0000   1.0000   1.0000   1.0000   1.0000   1.0000
     1.0000   1.0000   1.0000   1.0000   1.0000   1.0000   1.0000   1.0000
     1.0000   1.0000   1.0000   1.0000   1.0000   1.0000   1.0000   1.0000
     1.0000   1.0000   1.0000   1.0000   1.0000   1.0000   1.0000   1.0000
     1.0000   1.0000   1.0000   1.0000   1.0000   1.0000   1.0000   1.0000
     1.0000   1.0000   1.0000   1.0000   1.0000   1.0000   1.0000   1.0000
     1.0000   1.0000   1.0000   1.0000   1.0000   1.0000   1.0000   1.0000
     1.0000   1.0000   1.0000   1.0000   1.0000   1.0000   1.0000   1.0000
     1.0000   1.0000   1.0000   1.0000   1.0000   1.0000   1.0000   1.0000
     1.0000   1.0000   1.0000   1.0000   1.0000   1.0000   1.0000   1.0000
     1.0000   1.0000   1.0000   1.0000   1.0000   1.0000   1.0000   1.0000
     1.0000   1.0000   1.0000   1.0000   1.0000   1.0000   1.0000   1.0000
     1.0000   1.0000   1.0000   1.0000   1.0000   1.0000   1.0000   1.0000
     1.0000   1.0000   1.0000   1.0000   1.0000   1.0000   1.0000   1.0000
     1.0000   1.0000   1.0000   1.0000   1.0000   1.0000   1.0000   1.0000

          k = 0.0000-0.3849 0.2065 ( 15754 PWs)   bands (ev):

   -10.8203 -10.7127 -10.5201 -10.4471 -10.4120 -10.3401 -10.3401 -10.2995
   -10.2961 -10.2961 -10.2519 -10.1858 -10.1858 -10.1825 -10.1494 -10.1494
     0.9559   1.0114   1.0820   1.0906   1.1038   1.1038   1.1443   1.1496
     1.1780   1.1780   1.1968   1.1968   1.2878   1.3367   1.3762   1.3762
     1.4035   1.4331   1.4425   1.4548   1.5221   1.5395   1.5437   1.5637
     1.5637   1.5839   1.5839   1.5905   1.5967   1.5969   1.6674   1.6945
     1.7338   1.7338   1.7583   1.7730   1.7730   1.7846   1.8679   1.8904
     1.8904   1.8969   1.9133   1.9133   1.9824   1.9824   2.0290   2.0290
     2.3853   2.4013   2.4172   2.4172   2.4440   2.4695   2.4787   2.4884
     2.4958   2.4958   2.5083   2.5339   2.5393   2.5393   2.5677   2.5677
     2.5935   2.6096   2.6172   2.6255   2.6425   2.6724   2.6804   2.6804
     2.6819   2.6913   2.6913   2.7606   2.8116   2.8116   2.8696   2.8696
     3.1154   3.1154   3.2560   3.2568   3.2568   3.3424   3.5916   3.5916
     3.6415   3.6971   3.6971   3.9343   3.9351   4.0473   4.2092   4.2092
     4.5350   4.5350   4.6168   4.6168   4.6229   4.9084   5.0817   5.0817
     5.1229   5.1856   5.2751   5.3814   5.3814   5.4186   5.5973   5.5973
     5.5974   5.6315   5.7986   5.7986   5.8448   5.8448   5.8520   5.9793
     6.0155   6.0235   6.1085   6.2255   6.2837   6.4801   6.5473   6.6436

     occupation numbers 
     1.0000   1.0000   1.0000   1.0000   1.0000   1.0000   1.0000   1.0000
     1.0000   1.0000   1.0000   1.0000   1.0000   1.0000   1.0000   1.0000
     1.0000   1.0000   1.0000   1.0000   1.0000   1.0000   1.0000   1.0000
     1.0000   1.0000   1.0000   1.0000   1.0000   1.0000   1.0000   1.0000
     1.0000   1.0000   1.0000   1.0000   1.0000   1.0000   1.0000   1.0000
     1.0000   1.0000   1.0000   1.0000   1.0000   1.0000   1.0000   1.0000
     1.0000   1.0000   1.0000   1.0000   1.0000   1.0000   1.0000   1.0000
     1.0000   1.0000   1.0000   1.0000   1.0000   1.0000   1.0000   1.0000
     1.0000   1.0000   1.0000   1.0000   1.0000   1.0000   1.0000   1.0000
     1.0000   1.0000   1.0000   1.0000   1.0000   1.0000   1.0000   1.0000
     1.0000   1.0000   1.0000   1.0000   1.0000   1.0000   1.0000   1.0000
     1.0000   1.0000   1.0000   1.0000   1.0000   1.0000   1.0000   1.0000
     1.0000   1.0000   1.0000   1.0000   1.0000   1.0000   1.0000   1.0000
     1.0000   1.0000   1.0000   1.0000   1.0000   1.0000   1.0000   1.0000
     1.0000   1.0000   1.0000   1.0000   1.0000   1.0000   1.0000   1.0000
     1.0000   1.0000   1.0000   1.0000   1.0000   1.0000   1.0000   1.0000
     1.0000   1.0000   1.0000   1.0000   1.0000   1.0000   1.0000   1.0000
     1.0000   1.0000   1.0000   1.0000   1.0000   1.0000   1.0000   1.0000

     highest occupied level (ev):     6.8874

!    total energy              =   -2893.09510319 Ry
     estimated scf accuracy    <          6.8E-09 Ry

     The total energy is the sum of the following terms:
     one-electron contribution =   -1236.20071092 Ry
     hartree contribution      =     946.31190708 Ry
     xc contribution           =    -876.36844346 Ry
     ewald contribution        =   -1726.83785589 Ry

     convergence has been achieved in  37 iterations

     Forces acting on atoms (cartesian axes, Ry/au):

     atom    1 type  1   force =    -0.00000018   -0.00000010    0.00006263
     atom    2 type  1   force =     0.00000000   -0.00000065    0.00006151
     atom    3 type  2   force =    -0.00000039   -0.00000023   -0.00006211
     atom    4 type  2   force =     0.00000000    0.00000064   -0.00006232
     atom    5 type  1   force =     0.00000057    0.00000033    0.00006043
     atom    6 type  1   force =     0.00000000   -0.00000048    0.00006295
     atom    7 type  2   force =    -0.00000029   -0.00000017   -0.00006146
     atom    8 type  2   force =    -0.00000000   -0.00000032   -0.00006129
     atom    9 type  1   force =     0.00000000   -0.00000000    0.00006302
     atom   10 type  1   force =    -0.00000056    0.00000032    0.00006151
     atom   11 type  2   force =     0.00000000    0.00000000   -0.00006186
     atom   12 type  2   force =     0.00000055   -0.00000032   -0.00006232
     atom   13 type  1   force =     0.00000000   -0.00000000    0.00006008
     atom   14 type  1   force =    -0.00000042    0.00000024    0.00006295
     atom   15 type  2   force =     0.00000000    0.00000000   -0.00006125
     atom   16 type  2   force =    -0.00000028    0.00000016   -0.00006129
     atom   17 type  1   force =     0.00000018   -0.00000010    0.00006263
     atom   18 type  1   force =     0.00000000    0.00000000    0.00006053
     atom   19 type  2   force =     0.00000039   -0.00000023   -0.00006211
     atom   20 type  2   force =     0.00000000   -0.00000000   -0.00006301
     atom   21 type  1   force =    -0.00000057    0.00000033    0.00006043
     atom   22 type  1   force =     0.00000000    0.00000000    0.00006276
     atom   23 type  2   force =     0.00000029   -0.00000017   -0.00006146
     atom   24 type  2   force =     0.00000000    0.00000000   -0.00006137
     atom   25 type  1   force =     0.00000000    0.00000021    0.00006263
     atom   26 type  1   force =     0.00000056    0.00000032    0.00006151
     atom   27 type  2   force =    -0.00000000    0.00000046   -0.00006211
     atom   28 type  2   force =    -0.00000055   -0.00000032   -0.00006232
     atom   29 type  1   force =     0.00000000   -0.00000066    0.00006043
     atom   30 type  1   force =     0.00000042    0.00000024    0.00006295
     atom   31 type  2   force =     0.00000000    0.00000034   -0.00006146
     atom   32 type  2   force =     0.00000028    0.00000016   -0.00006129
     The non-local contrib.  to forces
     atom    1 type  1   force =    -0.00000015   -0.00000009   -0.00483223
     atom    2 type  1   force =     0.00000000   -0.00000076   -0.00483404
     atom    3 type  2   force =    -0.00000075   -0.00000043    0.00575275
     atom    4 type  2   force =     0.00000000    0.00000089    0.00575239
     atom    5 type  1   force =     0.00000090    0.00000052   -0.00483540
     atom    6 type  1   force =     0.00000000    0.00000016   -0.00483231
     atom    7 type  2   force =    -0.00000073   -0.00000042    0.00575480
     atom    8 type  2   force =     0.00000000    0.00000039    0.00575399
     atom    9 type  1   force =     0.00000000    0.00000000   -0.00483102
     atom   10 type  1   force =    -0.00000066    0.00000038   -0.00483404
     atom   11 type  2   force =     0.00000000   -0.00000000    0.00575315
     atom   12 type  2   force =     0.00000077   -0.00000044    0.00575239
     atom   13 type  1   force =     0.00000000    0.00000000   -0.00483575
     atom   14 type  1   force =     0.00000014   -0.00000008   -0.00483231
     atom   15 type  2   force =     0.00000000   -0.00000000    0.00575424
     atom   16 type  2   force =     0.00000034   -0.00000020    0.00575399
     atom   17 type  1   force =     0.00000015   -0.00000009   -0.00483223
     atom   18 type  1   force =     0.00000000    0.00000000   -0.00483476
     atom   19 type  2   force =     0.00000075   -0.00000043    0.00575275
     atom   20 type  2   force =     0.00000000    0.00000000    0.00575228
     atom   21 type  1   force =    -0.00000090    0.00000052   -0.00483540
     atom   22 type  1   force =     0.00000000   -0.00000000   -0.00483178
     atom   23 type  2   force =     0.00000073   -0.00000042    0.00575480
     atom   24 type  2   force =     0.00000000    0.00000000    0.00575367
     atom   25 type  1   force =     0.00000000    0.00000018   -0.00483223
     atom   26 type  1   force =     0.00000066    0.00000038   -0.00483404
     atom   27 type  2   force =     0.00000000    0.00000087    0.00575275
     atom   28 type  2   force =    -0.00000077   -0.00000044    0.00575239
     atom   29 type  1   force =     0.00000000   -0.00000104   -0.00483540
     atom   30 type  1   force =    -0.00000014   -0.00000008   -0.00483231
     atom   31 type  2   force =     0.00000000    0.00000084    0.00575480
     atom   32 type  2   force =    -0.00000034   -0.00000020    0.00575399
     The ionic contribution  to forces
     atom    1 type  1   force =    -0.00000000    0.00000001    0.06271747
     atom    2 type  1   force =     0.00000000    0.00000001    0.06271747
     atom    3 type  2   force =    -0.00000000    0.00000001   -0.06271747
     atom    4 type  2   force =     0.00000000    0.00000000   -0.06271747
     atom    5 type  1   force =    -0.00000000    0.00000001    0.06271747
     atom    6 type  1   force =     0.00000000    0.00000001    0.06271747
     atom    7 type  2   force =    -0.00000000    0.00000001   -0.06271747
     atom    8 type  2   force =     0.00000000    0.00000000   -0.06271747
     atom    9 type  1   force =     0.00000000   -0.00000000    0.06271747
     atom   10 type  1   force =    -0.00000000   -0.00000002    0.06271747
     atom   11 type  2   force =     0.00000000   -0.00000000   -0.06271747
     atom   12 type  2   force =    -0.00000000   -0.00000001   -0.06271747
     atom   13 type  1   force =     0.00000000   -0.00000000    0.06271747
     atom   14 type  1   force =    -0.00000000   -0.00000002    0.06271747
     atom   15 type  2   force =     0.00000000   -0.00000000   -0.06271747
     atom   16 type  2   force =    -0.00000000   -0.00000001   -0.06271747
     atom   17 type  1   force =    -0.00000000    0.00000001    0.06271747
     atom   18 type  1   force =     0.00000000    0.00000001    0.06271747
     atom   19 type  2   force =    -0.00000000    0.00000001   -0.06271747
     atom   20 type  2   force =     0.00000000    0.00000000   -0.06271747
     atom   21 type  1   force =    -0.00000000    0.00000001    0.06271747
     atom   22 type  1   force =     0.00000000    0.00000001    0.06271747
     atom   23 type  2   force =    -0.00000000    0.00000001   -0.06271747
     atom   24 type  2   force =     0.00000000    0.00000000   -0.06271747
     atom   25 type  1   force =     0.00000000   -0.00000000    0.06271747
     atom   26 type  1   force =    -0.00000000   -0.00000002    0.06271747
     atom   27 type  2   force =     0.00000000   -0.00000000   -0.06271747
     atom   28 type  2   force =    -0.00000000   -0.00000001   -0.06271747
     atom   29 type  1   force =     0.00000000   -0.00000000    0.06271747
     atom   30 type  1   force =    -0.00000000   -0.00000002    0.06271747
     atom   31 type  2   force =     0.00000000   -0.00000000   -0.06271747
     atom   32 type  2   force =    -0.00000000   -0.00000001   -0.06271747
     The local contribution  to forces
     atom    1 type  1   force =     0.00000026    0.00000025   -0.05829029
     atom    2 type  1   force =     0.00000009    0.00000224   -0.05828701
     atom    3 type  2   force =     0.00000032    0.00000021    0.05696465
     atom    4 type  2   force =     0.00000002    0.00000074    0.05696481
     atom    5 type  1   force =    -0.00000279   -0.00000151   -0.05828320
     atom    6 type  1   force =     0.00000009    0.00000001   -0.05828987
     atom    7 type  2   force =     0.00000022    0.00000015    0.05696555
     atom    8 type  2   force =     0.00000002   -0.00000037    0.05696726
     atom    9 type  1   force =    -0.00000000    0.00000010   -0.05829189
     atom   10 type  1   force =     0.00000190   -0.00000120   -0.05828701
     atom   11 type  2   force =    -0.00000000    0.00000003    0.05696501
     atom   12 type  2   force =     0.00000064   -0.00000039    0.05696481
     atom   13 type  1   force =    -0.00000000    0.00000010   -0.05828209
     atom   14 type  1   force =    -0.00000003   -0.00000008   -0.05828987
     atom   15 type  2   force =    -0.00000000    0.00000003    0.05696602
     atom   16 type  2   force =    -0.00000033    0.00000016    0.05696726
     atom   17 type  1   force =    -0.00000026    0.00000025   -0.05829029
     atom   18 type  1   force =     0.00000009    0.00000005   -0.05828488
     atom   19 type  2   force =    -0.00000032    0.00000021    0.05696465
     atom   20 type  2   force =     0.00000002    0.00000001    0.05696327
     atom   21 type  1   force =     0.00000279   -0.00000151   -0.05828320
     atom   22 type  1   force =     0.00000009    0.00000005   -0.05829171
     atom   23 type  2   force =    -0.00000022    0.00000015    0.05696555
     atom   24 type  2   force =     0.00000002    0.00000001    0.05696666
     atom   25 type  1   force =    -0.00000000   -0.00000020   -0.05829029
     atom   26 type  1   force =    -0.00000190   -0.00000120   -0.05828701
     atom   27 type  2   force =    -0.00000000   -0.00000034    0.05696465
     atom   28 type  2   force =    -0.00000063   -0.00000039    0.05696481
     atom   29 type  1   force =    -0.00000000    0.00000332   -0.05828320
     atom   30 type  1   force =     0.00000004   -0.00000008   -0.05828987
     atom   31 type  2   force =    -0.00000000   -0.00000022    0.05696555
     atom   32 type  2   force =     0.00000033    0.00000016    0.05696726
     The core correction contribution to forces
     atom    1 type  1   force =    -0.00000000    0.00000001    0.00046408
     atom    2 type  1   force =     0.00000001   -0.00000006    0.00046408
     atom    3 type  2   force =     0.00000001    0.00000001   -0.00006502
     atom    4 type  2   force =    -0.00000000   -0.00000001   -0.00006501
     atom    5 type  1   force =     0.00000011    0.00000007    0.00046396
     atom    6 type  1   force =     0.00000001    0.00000000    0.00046402
     atom    7 type  2   force =     0.00000001    0.00000001   -0.00006504
     atom    8 type  2   force =    -0.00000000   -0.00000001   -0.00006503
     atom    9 type  1   force =    -0.00000000    0.00000001    0.00046406
     atom   10 type  1   force =    -0.00000006    0.00000002    0.00046408
     atom   11 type  2   force =    -0.00000000   -0.00000000   -0.00006502
     atom   12 type  2   force =    -0.00000001    0.00000000   -0.00006501
     atom   13 type  1   force =    -0.00000000    0.00000001    0.00046393
     atom   14 type  1   force =    -0.00000000   -0.00000001    0.00046402
     atom   15 type  2   force =    -0.00000000   -0.00000000   -0.00006503
     atom   16 type  2   force =    -0.00000000    0.00000000   -0.00006503
     atom   17 type  1   force =     0.00000000    0.00000001    0.00046408
     atom   18 type  1   force =     0.00000001    0.00000001    0.00046407
     atom   19 type  2   force =    -0.00000001    0.00000001   -0.00006502
     atom   20 type  2   force =    -0.00000000   -0.00000000   -0.00006502
     atom   21 type  1   force =    -0.00000011    0.00000007    0.00046396
     atom   22 type  1   force =     0.00000001    0.00000001    0.00046415
     atom   23 type  2   force =    -0.00000001    0.00000001   -0.00006504
     atom   24 type  2   force =    -0.00000000   -0.00000000   -0.00006503
     atom   25 type  1   force =    -0.00000000    0.00000002    0.00046408
     atom   26 type  1   force =     0.00000006    0.00000002    0.00046408
     atom   27 type  2   force =    -0.00000000   -0.00000001   -0.00006502
     atom   28 type  2   force =     0.00000001    0.00000000   -0.00006501
     atom   29 type  1   force =    -0.00000000   -0.00000011    0.00046396
     atom   30 type  1   force =     0.00000000   -0.00000001    0.00046402
     atom   31 type  2   force =    -0.00000000   -0.00000001   -0.00006504
     atom   32 type  2   force =     0.00000000    0.00000000   -0.00006503
     The Hubbard contrib.    to forces
     atom    1 type  1   force =     0.00000000    0.00000000    0.00000000
     atom    2 type  1   force =     0.00000000    0.00000000    0.00000000
     atom    3 type  2   force =     0.00000000    0.00000000    0.00000000
     atom    4 type  2   force =     0.00000000    0.00000000    0.00000000
     atom    5 type  1   force =     0.00000000    0.00000000    0.00000000
     atom    6 type  1   force =     0.00000000    0.00000000    0.00000000
     atom    7 type  2   force =     0.00000000    0.00000000    0.00000000
     atom    8 type  2   force =     0.00000000    0.00000000    0.00000000
     atom    9 type  1   force =     0.00000000    0.00000000    0.00000000
     atom   10 type  1   force =     0.00000000    0.00000000    0.00000000
     atom   11 type  2   force =     0.00000000    0.00000000    0.00000000
     atom   12 type  2   force =     0.00000000    0.00000000    0.00000000
     atom   13 type  1   force =     0.00000000    0.00000000    0.00000000
     atom   14 type  1   force =     0.00000000    0.00000000    0.00000000
     atom   15 type  2   force =     0.00000000    0.00000000    0.00000000
     atom   16 type  2   force =     0.00000000    0.00000000    0.00000000
     atom   17 type  1   force =     0.00000000    0.00000000    0.00000000
     atom   18 type  1   force =     0.00000000    0.00000000    0.00000000
     atom   19 type  2   force =     0.00000000    0.00000000    0.00000000
     atom   20 type  2   force =     0.00000000    0.00000000    0.00000000
     atom   21 type  1   force =     0.00000000    0.00000000    0.00000000
     atom   22 type  1   force =     0.00000000    0.00000000    0.00000000
     atom   23 type  2   force =     0.00000000    0.00000000    0.00000000
     atom   24 type  2   force =     0.00000000    0.00000000    0.00000000
     atom   25 type  1   force =     0.00000000    0.00000000    0.00000000
     atom   26 type  1   force =     0.00000000    0.00000000    0.00000000
     atom   27 type  2   force =     0.00000000    0.00000000    0.00000000
     atom   28 type  2   force =     0.00000000    0.00000000    0.00000000
     atom   29 type  1   force =     0.00000000    0.00000000    0.00000000
     atom   30 type  1   force =     0.00000000    0.00000000    0.00000000
     atom   31 type  2   force =     0.00000000    0.00000000    0.00000000
     atom   32 type  2   force =     0.00000000    0.00000000    0.00000000
     The SCF correction term to forces
     atom    1 type  1   force =    -0.00000029   -0.00000017    0.00000183
     atom    2 type  1   force =     0.00000000   -0.00000207   -0.00000076
     atom    3 type  2   force =     0.00000002    0.00000001    0.00000121
     atom    4 type  2   force =     0.00000000   -0.00000099    0.00000119
     atom    5 type  1   force =     0.00000235    0.00000136   -0.00000417
     atom    6 type  1   force =     0.00000000   -0.00000066    0.00000187
     atom    7 type  2   force =     0.00000021    0.00000012   -0.00000106
     atom    8 type  2   force =     0.00000000   -0.00000035   -0.00000181
     atom    9 type  1   force =     0.00000000    0.00000000    0.00000263
     atom   10 type  1   force =    -0.00000180    0.00000104   -0.00000076
     atom   11 type  2   force =     0.00000000    0.00000000    0.00000070
     atom   12 type  2   force =    -0.00000086    0.00000050    0.00000119
     atom   13 type  1   force =     0.00000000    0.00000000   -0.00000526
     atom   14 type  1   force =    -0.00000057    0.00000033    0.00000187
     atom   15 type  2   force =     0.00000000    0.00000000   -0.00000078
     atom   16 type  2   force =    -0.00000030    0.00000017   -0.00000181
     atom   17 type  1   force =     0.00000029   -0.00000017    0.00000183
     atom   18 type  1   force =     0.00000000    0.00000000   -0.00000315
     atom   19 type  2   force =    -0.00000002    0.00000001    0.00000121
     atom   20 type  2   force =     0.00000000    0.00000000    0.00000215
     atom   21 type  1   force =    -0.00000235    0.00000136   -0.00000417
     atom   22 type  1   force =     0.00000000    0.00000000    0.00000285
     atom   23 type  2   force =    -0.00000021    0.00000012   -0.00000106
     atom   24 type  2   force =     0.00000000    0.00000000   -0.00000097
     atom   25 type  1   force =     0.00000000    0.00000033    0.00000183
     atom   26 type  1   force =     0.00000180    0.00000104   -0.00000076
     atom   27 type  2   force =     0.00000000   -0.00000002    0.00000121
     atom   28 type  2   force =     0.00000086    0.00000050    0.00000119
     atom   29 type  1   force =    -0.00000000   -0.00000272   -0.00000417
     atom   30 type  1   force =     0.00000057    0.00000033    0.00000187
     atom   31 type  2   force =     0.00000000   -0.00000024   -0.00000106
     atom   32 type  2   force =     0.00000030    0.00000017   -0.00000181

     Total force =     0.000350     Total SCF correction =     0.000014

     init_run     :     11.31s CPU     11.27s WALL (       1 calls)
     electrons    :    518.87s CPU    447.60s WALL (       1 calls)
     forces       :      7.36s CPU      6.97s WALL (       1 calls)

     Called by init_run:
     wfcinit      :      3.12s CPU      2.95s WALL (       1 calls)
     wfcinit:atom :      0.02s CPU      0.03s WALL (       1 calls)
     wfcinit:wfcr :      3.00s CPU      2.79s WALL (       1 calls)
     potinit      :      4.18s CPU      4.25s WALL (       1 calls)
     hinit0       :      3.52s CPU      3.55s WALL (       1 calls)

     Called by electrons:
     c_bands      :    446.43s CPU    377.91s WALL (      37 calls)
     sum_band     :     47.80s CPU     44.49s WALL (      37 calls)
     v_of_rho     :     11.12s CPU     11.51s WALL (      38 calls)
     v_h          :      0.73s CPU      0.78s WALL (      38 calls)
     v_xc         :     10.64s CPU     10.98s WALL (      39 calls)
     newd         :      9.94s CPU     10.13s WALL (      38 calls)
     mix_rho      :      1.65s CPU      1.67s WALL (      37 calls)

     Called by c_bands:
     init_us_2    :      1.89s CPU      1.71s WALL (      75 calls)
     init_us_2:cp :      1.89s CPU      1.71s WALL (      75 calls)
     cegterg      :    409.56s CPU    340.15s WALL (      37 calls)

     Called by sum_band:
     sum_band:wei :      0.02s CPU      0.02s WALL (      37 calls)
     sum_band:loo :     30.71s CPU     27.84s WALL (      37 calls)
     sum_band:buf :      0.00s CPU      0.00s WALL (      37 calls)
     sum_band:ini :      0.97s CPU      0.88s WALL (      37 calls)
     sum_band:cal :     11.68s CPU      8.32s WALL (      37 calls)
     sum_band:bec :      0.05s CPU      0.05s WALL (      37 calls)
     addusdens    :      9.77s CPU      9.25s WALL (      37 calls)
                                        0.00s GPU  (      37 calls)
     addusd:skk   :      0.19s CPU      0.17s WALL (      74 calls)
                                        0.00s GPU  (      74 calls)

     Called by *egterg:
     cdiaghg      :     34.99s CPU     38.24s WALL (     232 calls)
     cegterg:over :     56.13s CPU     44.19s WALL (     195 calls)
     cegterg:upda :     18.56s CPU     10.52s WALL (     195 calls)
     cegterg:last :     46.68s CPU     25.93s WALL (     119 calls)
     h_psi        :    194.75s CPU    179.35s WALL (     233 calls)
     s_psi        :     33.08s CPU     19.97s WALL (     233 calls)
     g_psi        :      0.75s CPU      0.55s WALL (     195 calls)

     Called by h_psi:
     h_psi:calbec :     45.33s CPU     34.37s WALL (     233 calls)
     vloc_psi     :    114.52s CPU    122.15s WALL (     233 calls)
     add_vuspsi   :     34.20s CPU     22.15s WALL (     233 calls)

     General routines
     calbec       :     58.43s CPU     43.76s WALL (     274 calls)
     fft          :      6.52s CPU      6.99s WALL (     503 calls)
     ffts         :      0.70s CPU      0.71s WALL (      75 calls)
     fftw         :    107.61s CPU    114.49s WALL (   41494 calls)
     interpolate  :      0.90s CPU      0.96s WALL (      38 calls)

     Parallel routines

     PWSCF        :   8m58.00s CPU   7m46.35s WALL


   This run was terminated on:   0:26:45  25Jul2025            

=------------------------------------------------------------------------------=
   JOB DONE.
=------------------------------------------------------------------------------=
Note: The following floating-point exceptions are signalling: IEEE_INVALID_FLAG
Note: The following floating-point exceptions are signalling: IEEE_INVALID_FLAG
Note: The following floating-point exceptions are signalling: IEEE_INVALID_FLAG
Note: The following floating-point exceptions are signalling: IEEE_INVALID_FLAG
Note: The following floating-point exceptions are signalling: IEEE_INVALID_FLAG
Note: The following floating-point exceptions are signalling: IEEE_INVALID_FLAG
Note: The following floating-point exceptions are signalling: IEEE_INVALID_FLAG
Note: The following floating-point exceptions are signalling: IEEE_INVALID_FLAG
