Authorization required, but no authorization protocol specified

Authorization required, but no authorization protocol specified

Authorization required, but no authorization protocol specified

Authorization required, but no authorization protocol specified

Authorization required, but no authorization protocol specified

Authorization required, but no authorization protocol specified

Authorization required, but no authorization protocol specified

Authorization required, but no authorization protocol specified

Authorization required, but no authorization protocol specified

Authorization required, but no authorization protocol specified

Authorization required, but no authorization protocol specified

Authorization required, but no authorization protocol specified

Authorization required, but no authorization protocol specified

Authorization required, but no authorization protocol specified

Authorization required, but no authorization protocol specified

Authorization required, but no authorization protocol specified

Authorization required, but no authorization protocol specified

Authorization required, but no authorization protocol specified


     Program PWSCF v.7.2 starts on 18Jul2025 at 16: 8:55 

     This program is part of the open-source Quantum ESPRESSO suite
     for quantum simulation of materials; please cite
         "P. Giannozzi et al., J. Phys.:Condens. Matter 21 395502 (2009);
         "P. Giannozzi et al., J. Phys.:Condens. Matter 29 465901 (2017);
         "P. Giannozzi et al., J. Chem. Phys. 152 154105 (2020);
          URL http://www.quantum-espresso.org", 
     in publications or presentations arising from this work. More details at
     http://www.quantum-espresso.org/quote

     Parallel version (MPI), running on    16 processors

     MPI processes distributed on     1 nodes
     79691 MiB available memory on the printing compute node when the environment starts

     Reading input from /home/jvc/QEspresso7.2/ZnO_database/scripts/cell212.in/ZnO-3.40-1.78-212.in
Warning: card &CELL ignored
Warning: card / ignored
Warning: card &FCP ignored
Warning: card / ignored
Warning: card &RISM ignored
Warning: card / ignored

     Current dimensions of program PWSCF are:
     Max number of different atomic species (ntypx) = 10
     Max number of k-points (npk) =  40000
     Max angular momentum in pseudopotentials (lmaxx) =  4
     file Zn.upf: wavefunction(s)  3D renormalized
     Found identity + (  0.0000  0.0000 -0.5000) symmetry
     This is a supercell, fractional translations are disabled
     Message from routine setup:
     using ibrav=0 with symmetry is DISCOURAGED, use correct ibrav instead

     K-points division:     npool     =       2
     R & G space division:  proc/nbgrp/npool/nimage =       8
     Subspace diagonalization in iterative solution of the eigenvalue problem:
     a serial algorithm will be used


     Parallelization info
     --------------------
     sticks:   dense  smooth     PW     G-vecs:    dense   smooth      PW
     Min         262     130     38                22278     7852    1254
     Max         263     131     39                22281     7857    1260
     Sum        2103    1047    305               178241    62839   10057

     Using Slab Decomposition



     bravais-lattice index     =            0
     lattice parameter (alat)  =      12.3576  a.u.
     unit-cell volume          =    1319.1907 (a.u.)^3
     number of atoms/cell      =           16
     number of atomic types    =            2
     number of electrons       =       144.00
     number of Kohn-Sham states=           72
     kinetic-energy cutoff     =      50.0000  Ry
     charge density cutoff     =     400.0000  Ry
     scf convergence threshold =      1.0E-08
     mixing beta               =       0.3000
     number of iterations used =            8  plain     mixing
     Exchange-correlation= PBE
                           (   1   4   3   4   0   0   0)

     celldm(1)=  12.357644  celldm(2)=   0.000000  celldm(3)=   0.000000
     celldm(4)=   0.000000  celldm(5)=   0.000000  celldm(6)=   0.000000

     crystal axes: (cart. coord. in units of alat)
               a(1) = (   1.000000   0.000000   0.000000 )  
               a(2) = (  -0.250000   0.433013   0.000000 )  
               a(3) = (   0.000000   0.000000   1.614358 )  

     reciprocal axes: (cart. coord. in units 2 pi/alat)
               b(1) = (  1.000000  0.577350 -0.000000 )  
               b(2) = (  0.000000  2.309401  0.000000 )  
               b(3) = (  0.000000 -0.000000  0.619441 )  


     PseudoPot. # 1 for Zn read from file:
     /home/jvc/QEspresso7.2/ZnO_database/pseudos/Zn.upf
     MD5 check sum: 7f56cabf9682ed8c977c2f7d0c5985c5
     Pseudo is Ultrasoft + core correction, Zval = 12.0
     Generated using &quot;atomic&quot; code by A. Dal Corso  v.6.2.2
     Using radial grid of 1201 points,  6 beta functions with: 
                l(1) =   0
                l(2) =   0
                l(3) =   1
                l(4) =   1
                l(5) =   2
                l(6) =   2
     Q(r) pseudized with 0 coefficients 


     PseudoPot. # 2 for O  read from file:
     /home/jvc/QEspresso7.2/ZnO_database/pseudos/O.upf
     MD5 check sum: 91400c9766925bcf19f520983a725ff0
     Pseudo is Ultrasoft + core correction, Zval =  6.0
     Generated using &quot;atomic&quot; code by A. Dal Corso  v.6.3MaX
     Using radial grid of 1095 points,  4 beta functions with: 
                l(1) =   0
                l(2) =   0
                l(3) =   1
                l(4) =   1
     Q(r) pseudized with 0 coefficients 


     atomic species   valence    mass     pseudopotential
        Zn            12.00    65.38000     Zn( 1.00)
        O              6.00    15.99900     O ( 1.00)

      2 Sym. Ops. (no inversion) found


                                    s                        frac. trans.

      isym =  1     identity                                     

 cryst.   s( 1) = (     1          0          0      )
                  (     0          1          0      )
                  (     0          0          1      )

 cart.    s( 1) = (  1.0000000 -0.0000000  0.0000000 )
                  (  0.0000000  1.0000000  0.0000000 )
                  (  0.0000000  0.0000000  1.0000000 )


      isym =  2     inv. 180 deg rotation - cryst. axis [0,1,0]  

 cryst.   s( 2) = (     1          2          0      )
                  (     0         -1          0      )
                  (     0          0          1      )

 cart.    s( 2) = (  0.5000000  0.8660254  0.0000000 )
                  (  0.8660254 -0.5000000  0.0000000 )
                  (  0.0000000  0.0000000  1.0000000 )


   Cartesian axes

     site n.     atom                  positions (alat units)
         1           Zn  tau(   1) = (   0.2500000   0.1443376   0.4041010  )
         2           Zn  tau(   2) = (  -0.0000000   0.2886751   0.0005114  )
         3           O   tau(   3) = (   0.2500000   0.1443376   0.7100565  )
         4           O   tau(   4) = (  -0.0000000   0.2886751   0.3064669  )
         5           Zn  tau(   5) = (   0.2500000   0.1443376   1.2112802  )
         6           Zn  tau(   6) = (  -0.0000000   0.2886751   0.8076906  )
         7           O   tau(   7) = (   0.2500000   0.1443376   1.5172357  )
         8           O   tau(   8) = (  -0.0000000   0.2886751   1.1136461  )
         9           Zn  tau(   9) = (   0.7500000   0.1443376   0.4041010  )
        10           Zn  tau(  10) = (   0.5000000   0.2886751   0.0005114  )
        11           O   tau(  11) = (   0.7500000   0.1443376   0.7100565  )
        12           O   tau(  12) = (   0.5000000   0.2886751   0.3064669  )
        13           Zn  tau(  13) = (   0.7500000   0.1443376   1.2112802  )
        14           Zn  tau(  14) = (   0.5000000   0.2886751   0.8076906  )
        15           O   tau(  15) = (   0.7500000   0.1443376   1.5172357  )
        16           O   tau(  16) = (   0.5000000   0.2886751   1.1136461  )

   Crystallographic axes

     site n.     atom                  positions (cryst. coord.)
         1           Zn  tau(   1) = (  0.3333333  0.3333333  0.2503168  )
         2           Zn  tau(   2) = (  0.1666667  0.6666667  0.0003168  )
         3           O   tau(   3) = (  0.3333333  0.3333333  0.4398382  )
         4           O   tau(   4) = (  0.1666667  0.6666667  0.1898382  )
         5           Zn  tau(   5) = (  0.3333333  0.3333333  0.7503168  )
         6           Zn  tau(   6) = (  0.1666667  0.6666667  0.5003168  )
         7           O   tau(   7) = (  0.3333333  0.3333333  0.9398382  )
         8           O   tau(   8) = (  0.1666667  0.6666667  0.6898382  )
         9           Zn  tau(   9) = (  0.8333333  0.3333333  0.2503168  )
        10           Zn  tau(  10) = (  0.6666667  0.6666667  0.0003168  )
        11           O   tau(  11) = (  0.8333333  0.3333333  0.4398382  )
        12           O   tau(  12) = (  0.6666667  0.6666667  0.1898382  )
        13           Zn  tau(  13) = (  0.8333333  0.3333333  0.7503168  )
        14           Zn  tau(  14) = (  0.6666667  0.6666667  0.5003168  )
        15           O   tau(  15) = (  0.8333333  0.3333333  0.9398382  )
        16           O   tau(  16) = (  0.6666667  0.6666667  0.6898382  )

     number of k points=    20
                       cart. coord. in units 2pi/alat
        k(    1) = (   0.0000000   0.0000000   0.0000000), wk =   0.0370370
        k(    2) = (   0.0000000   0.0000000   0.2064804), wk =   0.0740741
        k(    3) = (   0.0000000   0.3849002   0.0000000), wk =   0.1481481
        k(    4) = (   0.0000000   0.3849002   0.2064804), wk =   0.1481481
        k(    5) = (   0.0000000   0.7698004   0.0000000), wk =   0.1481481
        k(    6) = (   0.0000000   0.7698004   0.2064804), wk =   0.1481481
        k(    7) = (   0.0000000  -1.1547005   0.0000000), wk =   0.0370370
        k(    8) = (   0.0000000  -1.1547005   0.2064804), wk =   0.0740741
        k(    9) = (   0.3333333   0.1924501   0.0000000), wk =   0.0740741
        k(   10) = (   0.3333333   0.1924501   0.2064804), wk =   0.0740741
        k(   11) = (   0.3333333   0.5773503   0.0000000), wk =   0.0740741
        k(   12) = (   0.3333333   0.5773503   0.2064804), wk =   0.1481481
        k(   13) = (   0.3333333  -0.9622504   0.0000000), wk =   0.0740741
        k(   14) = (   0.3333333  -0.9622504   0.2064804), wk =   0.0740741
        k(   15) = (   0.3333333  -0.5773503   0.0000000), wk =   0.0740741
        k(   16) = (   0.3333333  -0.5773503   0.2064804), wk =   0.1481481
        k(   17) = (   0.3333333  -0.1924501  -0.2064804), wk =   0.1481481
        k(   18) = (   0.6666667  -0.3849002  -0.2064804), wk =   0.1481481
        k(   19) = (   0.3333333   0.1924501  -0.2064804), wk =   0.0740741
        k(   20) = (  -0.6666667   0.7698004  -0.2064804), wk =   0.0740741

                       cryst. coord.
        k(    1) = (   0.0000000   0.0000000   0.0000000), wk =   0.0370370
        k(    2) = (   0.0000000   0.0000000   0.3333333), wk =   0.0740741
        k(    3) = (   0.0000000   0.1666667   0.0000000), wk =   0.1481481
        k(    4) = (   0.0000000   0.1666667   0.3333333), wk =   0.1481481
        k(    5) = (   0.0000000   0.3333333   0.0000000), wk =   0.1481481
        k(    6) = (   0.0000000   0.3333333   0.3333333), wk =   0.1481481
        k(    7) = (   0.0000000  -0.5000000   0.0000000), wk =   0.0370370
        k(    8) = (   0.0000000  -0.5000000   0.3333333), wk =   0.0740741
        k(    9) = (   0.3333333  -0.0000000   0.0000000), wk =   0.0740741
        k(   10) = (   0.3333333  -0.0000000   0.3333333), wk =   0.0740741
        k(   11) = (   0.3333333   0.1666667   0.0000000), wk =   0.0740741
        k(   12) = (   0.3333333   0.1666667   0.3333333), wk =   0.1481481
        k(   13) = (   0.3333333  -0.5000000   0.0000000), wk =   0.0740741
        k(   14) = (   0.3333333  -0.5000000   0.3333333), wk =   0.0740741
        k(   15) = (   0.3333333  -0.3333333   0.0000000), wk =   0.0740741
        k(   16) = (   0.3333333  -0.3333333   0.3333333), wk =   0.1481481
        k(   17) = (   0.3333333  -0.1666667  -0.3333333), wk =   0.1481481
        k(   18) = (   0.6666667  -0.3333333  -0.3333333), wk =   0.1481481
        k(   19) = (   0.3333333   0.0000000  -0.3333333), wk =   0.0740741
        k(   20) = (  -0.6666667   0.5000000  -0.3333333), wk =   0.0740741

     Dense  grid:   178241 G-vectors     FFT dimensions: (  80,  40, 128)

     Smooth grid:    62839 G-vectors     FFT dimensions: (  60,  27,  90)

     Dynamical RAM for                 wfc:       1.08 MB

     Dynamical RAM for     wfc (w. buffer):      11.89 MB

     Dynamical RAM for           str. fact:       0.68 MB

     Dynamical RAM for           local pot:       0.00 MB

     Dynamical RAM for          nlocal pot:       3.12 MB

     Dynamical RAM for                qrad:       3.21 MB

     Dynamical RAM for          rho,v,vnew:       2.19 MB

     Dynamical RAM for               rhoin:       0.73 MB

     Dynamical RAM for            rho*nmix:       5.44 MB

     Dynamical RAM for           G-vectors:       1.33 MB

     Dynamical RAM for          h,s,v(r/c):       0.95 MB

     Dynamical RAM for          <psi|beta>:       0.23 MB

     Dynamical RAM for                 psi:       2.16 MB

     Dynamical RAM for                hpsi:       2.16 MB

     Dynamical RAM for                spsi:       2.16 MB

     Dynamical RAM for      wfcinit/wfcrot:       3.37 MB

     Dynamical RAM for           addusdens:      33.15 MB

     Dynamical RAM for          addusforce:      35.56 MB

     Estimated static dynamical RAM per process >      26.14 MB

     Estimated max dynamical RAM per process >      67.13 MB

     Estimated total dynamical RAM >       1.01 GB

     Check: negative core charge=   -0.000002

     Initial potential from superposition of free atoms

     starting charge     143.9702, renormalised to     144.0000
     Starting wfcs are  104 randomized atomic wfcs

     total cpu time spent up to now is        5.2 secs

     Self-consistent Calculation

     iteration #  1     ecut=    50.00 Ry     beta= 0.30
     Davidson diagonalization with overlap

---- Real-time Memory Report at c_bands before calling an iterative solver
            78 MiB given to the printing process from OS
             0 MiB allocation reported by mallinfo(arena+hblkhd)
         78756 MiB available memory on the node where the printing process lives
------------------
     ethr =  1.00E-02,  avg # of iterations =  1.9

     total cpu time spent up to now is       10.0 secs

     total energy              =   -1445.91838738 Ry
     estimated scf accuracy    <       2.76298630 Ry

     iteration #  2     ecut=    50.00 Ry     beta= 0.30
     Davidson diagonalization with overlap

---- Real-time Memory Report at c_bands before calling an iterative solver
            99 MiB given to the printing process from OS
             0 MiB allocation reported by mallinfo(arena+hblkhd)
         78515 MiB available memory on the node where the printing process lives
------------------
     ethr =  1.92E-03,  avg # of iterations =  2.0

     total cpu time spent up to now is       16.0 secs

     total energy              =   -1446.31914504 Ry
     estimated scf accuracy    <       0.35077685 Ry

     iteration #  3     ecut=    50.00 Ry     beta= 0.30
     Davidson diagonalization with overlap

---- Real-time Memory Report at c_bands before calling an iterative solver
            99 MiB given to the printing process from OS
             0 MiB allocation reported by mallinfo(arena+hblkhd)
         78515 MiB available memory on the node where the printing process lives
------------------
     ethr =  2.44E-04,  avg # of iterations =  6.7

     total cpu time spent up to now is       26.2 secs

     total energy              =   -1446.44415891 Ry
     estimated scf accuracy    <       0.22686441 Ry

     iteration #  4     ecut=    50.00 Ry     beta= 0.30
     Davidson diagonalization with overlap

---- Real-time Memory Report at c_bands before calling an iterative solver
            99 MiB given to the printing process from OS
             0 MiB allocation reported by mallinfo(arena+hblkhd)
         78533 MiB available memory on the node where the printing process lives
------------------
     ethr =  1.58E-04,  avg # of iterations =  8.9

     total cpu time spent up to now is       39.1 secs

     total energy              =   -1446.58893499 Ry
     estimated scf accuracy    <       0.91974212 Ry

     iteration #  5     ecut=    50.00 Ry     beta= 0.30
     Davidson diagonalization with overlap

---- Real-time Memory Report at c_bands before calling an iterative solver
           100 MiB given to the printing process from OS
             0 MiB allocation reported by mallinfo(arena+hblkhd)
         78535 MiB available memory on the node where the printing process lives
------------------
     ethr =  1.58E-04,  avg # of iterations =  2.0

     total cpu time spent up to now is       44.0 secs

     total energy              =   -1446.16778320 Ry
     estimated scf accuracy    <       0.52419526 Ry

     iteration #  6     ecut=    50.00 Ry     beta= 0.30
     Davidson diagonalization with overlap

---- Real-time Memory Report at c_bands before calling an iterative solver
           100 MiB given to the printing process from OS
             0 MiB allocation reported by mallinfo(arena+hblkhd)
         78534 MiB available memory on the node where the printing process lives
------------------
     ethr =  1.58E-04,  avg # of iterations = 10.7

     total cpu time spent up to now is       58.6 secs

     total energy              =   -1446.25261085 Ry
     estimated scf accuracy    <       3.44778489 Ry

     iteration #  7     ecut=    50.00 Ry     beta= 0.30
     Davidson diagonalization with overlap

---- Real-time Memory Report at c_bands before calling an iterative solver
           100 MiB given to the printing process from OS
             0 MiB allocation reported by mallinfo(arena+hblkhd)
         78532 MiB available memory on the node where the printing process lives
------------------
     ethr =  1.58E-04,  avg # of iterations =  8.2

     total cpu time spent up to now is       70.6 secs

     total energy              =   -1446.54736385 Ry
     estimated scf accuracy    <       0.25638084 Ry

     iteration #  8     ecut=    50.00 Ry     beta= 0.30
     Davidson diagonalization with overlap

---- Real-time Memory Report at c_bands before calling an iterative solver
           100 MiB given to the printing process from OS
             0 MiB allocation reported by mallinfo(arena+hblkhd)
         78534 MiB available memory on the node where the printing process lives
------------------
     ethr =  1.58E-04,  avg # of iterations =  1.8

     total cpu time spent up to now is       75.4 secs

     total energy              =   -1446.54836265 Ry
     estimated scf accuracy    <       0.14862313 Ry

     iteration #  9     ecut=    50.00 Ry     beta= 0.30
     Davidson diagonalization with overlap

---- Real-time Memory Report at c_bands before calling an iterative solver
           101 MiB given to the printing process from OS
             0 MiB allocation reported by mallinfo(arena+hblkhd)
         78534 MiB available memory on the node where the printing process lives
------------------
     ethr =  1.03E-04,  avg # of iterations =  1.4

     total cpu time spent up to now is       80.0 secs

     total energy              =   -1446.48831160 Ry
     estimated scf accuracy    <       0.12040320 Ry

     iteration # 10     ecut=    50.00 Ry     beta= 0.30
     Davidson diagonalization with overlap

---- Real-time Memory Report at c_bands before calling an iterative solver
           101 MiB given to the printing process from OS
             0 MiB allocation reported by mallinfo(arena+hblkhd)
         78526 MiB available memory on the node where the printing process lives
------------------
     ethr =  8.36E-05,  avg # of iterations =  6.0

     total cpu time spent up to now is       89.1 secs

     total energy              =   -1446.54602068 Ry
     estimated scf accuracy    <       0.02746398 Ry

     iteration # 11     ecut=    50.00 Ry     beta= 0.30
     Davidson diagonalization with overlap

---- Real-time Memory Report at c_bands before calling an iterative solver
           101 MiB given to the printing process from OS
             0 MiB allocation reported by mallinfo(arena+hblkhd)
         78533 MiB available memory on the node where the printing process lives
------------------
     ethr =  1.91E-05,  avg # of iterations =  2.5

     total cpu time spent up to now is       94.3 secs

     total energy              =   -1446.54569543 Ry
     estimated scf accuracy    <       0.01211747 Ry

     iteration # 12     ecut=    50.00 Ry     beta= 0.30
     Davidson diagonalization with overlap

---- Real-time Memory Report at c_bands before calling an iterative solver
           101 MiB given to the printing process from OS
             0 MiB allocation reported by mallinfo(arena+hblkhd)
         78535 MiB available memory on the node where the printing process lives
------------------
     ethr =  8.41E-06,  avg # of iterations =  2.5

     total cpu time spent up to now is       99.8 secs

     total energy              =   -1446.54647149 Ry
     estimated scf accuracy    <       0.00436547 Ry

     iteration # 13     ecut=    50.00 Ry     beta= 0.30
     Davidson diagonalization with overlap

---- Real-time Memory Report at c_bands before calling an iterative solver
           101 MiB given to the printing process from OS
             0 MiB allocation reported by mallinfo(arena+hblkhd)
         78536 MiB available memory on the node where the printing process lives
------------------
     ethr =  3.03E-06,  avg # of iterations =  4.9

     total cpu time spent up to now is      106.6 secs

     total energy              =   -1446.54806488 Ry
     estimated scf accuracy    <       0.00108812 Ry

     iteration # 14     ecut=    50.00 Ry     beta= 0.30
     Davidson diagonalization with overlap

---- Real-time Memory Report at c_bands before calling an iterative solver
           101 MiB given to the printing process from OS
             0 MiB allocation reported by mallinfo(arena+hblkhd)
         78537 MiB available memory on the node where the printing process lives
------------------
     ethr =  7.56E-07,  avg # of iterations =  3.1

     total cpu time spent up to now is      112.4 secs

     total energy              =   -1446.54753488 Ry
     estimated scf accuracy    <       0.00224120 Ry

     iteration # 15     ecut=    50.00 Ry     beta= 0.30
     Davidson diagonalization with overlap

---- Real-time Memory Report at c_bands before calling an iterative solver
           101 MiB given to the printing process from OS
             0 MiB allocation reported by mallinfo(arena+hblkhd)
         78537 MiB available memory on the node where the printing process lives
------------------
     ethr =  7.56E-07,  avg # of iterations =  2.1

     total cpu time spent up to now is      117.6 secs

     total energy              =   -1446.54716308 Ry
     estimated scf accuracy    <       0.00106455 Ry

     iteration # 16     ecut=    50.00 Ry     beta= 0.30
     Davidson diagonalization with overlap

---- Real-time Memory Report at c_bands before calling an iterative solver
           101 MiB given to the printing process from OS
             0 MiB allocation reported by mallinfo(arena+hblkhd)
         78538 MiB available memory on the node where the printing process lives
------------------
     ethr =  7.39E-07,  avg # of iterations =  4.7

     total cpu time spent up to now is      125.3 secs

     total energy              =   -1446.54752759 Ry
     estimated scf accuracy    <       0.00002068 Ry

     iteration # 17     ecut=    50.00 Ry     beta= 0.30
     Davidson diagonalization with overlap

---- Real-time Memory Report at c_bands before calling an iterative solver
           101 MiB given to the printing process from OS
             0 MiB allocation reported by mallinfo(arena+hblkhd)
         78539 MiB available memory on the node where the printing process lives
------------------
     ethr =  1.44E-08,  avg # of iterations =  7.4

     total cpu time spent up to now is      136.3 secs

     total energy              =   -1446.54776963 Ry
     estimated scf accuracy    <       0.00001593 Ry

     iteration # 18     ecut=    50.00 Ry     beta= 0.30
     Davidson diagonalization with overlap

---- Real-time Memory Report at c_bands before calling an iterative solver
           101 MiB given to the printing process from OS
             0 MiB allocation reported by mallinfo(arena+hblkhd)
         78539 MiB available memory on the node where the printing process lives
------------------
     c_bands:  1 eigenvalues not converged
     c_bands:  1 eigenvalues not converged
     ethr =  1.11E-08,  avg # of iterations = 15.2

     total cpu time spent up to now is      157.5 secs

     total energy              =   -1446.54791043 Ry
     estimated scf accuracy    <       0.00277295 Ry

     iteration # 19     ecut=    50.00 Ry     beta= 0.30
     Davidson diagonalization with overlap

---- Real-time Memory Report at c_bands before calling an iterative solver
           101 MiB given to the printing process from OS
             0 MiB allocation reported by mallinfo(arena+hblkhd)
         78539 MiB available memory on the node where the printing process lives
------------------
     ethr =  1.11E-08,  avg # of iterations =  9.2

     total cpu time spent up to now is      170.6 secs

     total energy              =   -1446.54758077 Ry
     estimated scf accuracy    <       0.00158503 Ry

     iteration # 20     ecut=    50.00 Ry     beta= 0.30
     Davidson diagonalization with overlap

---- Real-time Memory Report at c_bands before calling an iterative solver
           101 MiB given to the printing process from OS
             0 MiB allocation reported by mallinfo(arena+hblkhd)
         78539 MiB available memory on the node where the printing process lives
------------------
     ethr =  1.11E-08,  avg # of iterations = 11.0

     total cpu time spent up to now is      186.1 secs

     total energy              =   -1446.54751332 Ry
     estimated scf accuracy    <       0.00040891 Ry

     iteration # 21     ecut=    50.00 Ry     beta= 0.30
     Davidson diagonalization with overlap

---- Real-time Memory Report at c_bands before calling an iterative solver
           101 MiB given to the printing process from OS
             0 MiB allocation reported by mallinfo(arena+hblkhd)
         78540 MiB available memory on the node where the printing process lives
------------------
     ethr =  1.11E-08,  avg # of iterations = 10.2

     total cpu time spent up to now is      199.9 secs

     total energy              =   -1446.54754494 Ry
     estimated scf accuracy    <       0.00002585 Ry

     iteration # 22     ecut=    50.00 Ry     beta= 0.30
     Davidson diagonalization with overlap

---- Real-time Memory Report at c_bands before calling an iterative solver
           101 MiB given to the printing process from OS
             0 MiB allocation reported by mallinfo(arena+hblkhd)
         78540 MiB available memory on the node where the printing process lives
------------------
     ethr =  1.11E-08,  avg # of iterations =  5.2

     total cpu time spent up to now is      207.4 secs

     total energy              =   -1446.54755057 Ry
     estimated scf accuracy    <       0.00000010 Ry

     iteration # 23     ecut=    50.00 Ry     beta= 0.30
     Davidson diagonalization with overlap

---- Real-time Memory Report at c_bands before calling an iterative solver
           101 MiB given to the printing process from OS
             0 MiB allocation reported by mallinfo(arena+hblkhd)
         78540 MiB available memory on the node where the printing process lives
------------------
     c_bands:  1 eigenvalues not converged
     c_bands:  1 eigenvalues not converged
     ethr =  7.28E-11,  avg # of iterations = 13.6

     total cpu time spent up to now is      224.5 secs

     total energy              =   -1446.54755165 Ry
     estimated scf accuracy    <       0.00000173 Ry

     iteration # 24     ecut=    50.00 Ry     beta= 0.30
     Davidson diagonalization with overlap

---- Real-time Memory Report at c_bands before calling an iterative solver
           101 MiB given to the printing process from OS
             0 MiB allocation reported by mallinfo(arena+hblkhd)
         78541 MiB available memory on the node where the printing process lives
------------------
     ethr =  7.28E-11,  avg # of iterations =  5.4

     total cpu time spent up to now is      233.2 secs

     total energy              =   -1446.54755161 Ry
     estimated scf accuracy    <       0.00000065 Ry

     iteration # 25     ecut=    50.00 Ry     beta= 0.30
     Davidson diagonalization with overlap

---- Real-time Memory Report at c_bands before calling an iterative solver
           101 MiB given to the printing process from OS
             0 MiB allocation reported by mallinfo(arena+hblkhd)
         78541 MiB available memory on the node where the printing process lives
------------------
     ethr =  7.28E-11,  avg # of iterations =  4.8

     total cpu time spent up to now is      239.4 secs

     total energy              =   -1446.54755149 Ry
     estimated scf accuracy    <       0.00000038 Ry

     iteration # 26     ecut=    50.00 Ry     beta= 0.30
     Davidson diagonalization with overlap

---- Real-time Memory Report at c_bands before calling an iterative solver
           101 MiB given to the printing process from OS
             0 MiB allocation reported by mallinfo(arena+hblkhd)
         78541 MiB available memory on the node where the printing process lives
------------------
     ethr =  7.28E-11,  avg # of iterations =  6.8

     total cpu time spent up to now is      249.2 secs

     End of self-consistent calculation

          k = 0.0000 0.0000 0.0000 (  7805 PWs)   bands (ev):

   -10.9985 -10.6675 -10.6674 -10.3493 -10.3182 -10.2372 -10.2371 -10.1407
     0.9527   0.9527   1.1141   1.1297   1.1298   1.3159   1.3159   1.3230
     1.3565   1.3852   1.3852   1.3852   1.3852   1.4392   1.5014   1.5014
     1.5609   1.7821   1.7821   1.8587   1.8587   1.9413   1.9538   2.0753
     2.4282   2.4282   2.4642   2.5468   2.5468   2.5469   2.5469   2.5909
     2.6133   2.6133   2.6248   2.6248   2.6706   2.6978   2.6978   2.7418
     2.8918   3.1878   3.1878   3.2047   3.4268   4.1406   4.6601   4.6601
     4.7139   5.4385   5.4385   5.5539   5.5539   5.6402   6.0830   6.1251
     6.1251   6.5108   6.5108   6.5108   6.5108   6.8049   6.8873   6.8873

     occupation numbers 
     1.0000   1.0000   1.0000   1.0000   1.0000   1.0000   1.0000   1.0000
     1.0000   1.0000   1.0000   1.0000   1.0000   1.0000   1.0000   1.0000
     1.0000   1.0000   1.0000   1.0000   1.0000   1.0000   1.0000   1.0000
     1.0000   1.0000   1.0000   1.0000   1.0000   1.0000   1.0000   1.0000
     1.0000   1.0000   1.0000   1.0000   1.0000   1.0000   1.0000   1.0000
     1.0000   1.0000   1.0000   1.0000   1.0000   1.0000   1.0000   1.0000
     1.0000   1.0000   1.0000   1.0000   1.0000   1.0000   1.0000   1.0000
     1.0000   1.0000   1.0000   1.0000   1.0000   1.0000   1.0000   1.0000
     1.0000   1.0000   1.0000   1.0000   1.0000   1.0000   1.0000   1.0000

          k = 0.0000 0.0000 0.2065 (  7841 PWs)   bands (ev):

   -10.9551 -10.8352 -10.4952 -10.3661 -10.3334 -10.2914 -10.1868 -10.1526
     0.9826   1.0471   1.0698   1.1614   1.2062   1.2255   1.3102   1.3169
     1.3225   1.3225   1.3451   1.3451   1.4366   1.4366   1.4826   1.4826
     1.5872   1.6641   1.8687   1.8803   1.9133   1.9178   1.9195   2.0308
     2.4460   2.4460   2.4918   2.4918   2.5267   2.5918   2.5918   2.5930
     2.6003   2.6172   2.6172   2.6268   2.6330   2.6574   2.7318   2.7411
     3.1456   3.1660   3.2007   3.2754   3.3762   3.8753   4.4237   4.8200
     5.0141   5.0927   5.4566   5.7267   5.7659   5.7927   5.9987   6.1772
     6.1772   6.2430   6.3189   6.3189   6.7003   6.7003   6.8375   6.8375

     occupation numbers 
     1.0000   1.0000   1.0000   1.0000   1.0000   1.0000   1.0000   1.0000
     1.0000   1.0000   1.0000   1.0000   1.0000   1.0000   1.0000   1.0000
     1.0000   1.0000   1.0000   1.0000   1.0000   1.0000   1.0000   1.0000
     1.0000   1.0000   1.0000   1.0000   1.0000   1.0000   1.0000   1.0000
     1.0000   1.0000   1.0000   1.0000   1.0000   1.0000   1.0000   1.0000
     1.0000   1.0000   1.0000   1.0000   1.0000   1.0000   1.0000   1.0000
     1.0000   1.0000   1.0000   1.0000   1.0000   1.0000   1.0000   1.0000
     1.0000   1.0000   1.0000   1.0000   1.0000   1.0000   1.0000   1.0000
     1.0000   1.0000   1.0000   1.0000   1.0000   1.0000   1.0000   1.0000

          k = 0.0000 0.3849 0.0000 (  7868 PWs)   bands (ev):

   -10.8593 -10.5637 -10.5636 -10.3567 -10.2581 -10.2391 -10.2391 -10.1367
     1.0549   1.0549   1.0857   1.0857   1.1787   1.2098   1.3939   1.4175
     1.4530   1.4698   1.4698   1.4827   1.4827   1.4978   1.5839   1.6182
     1.6623   1.6624   1.6647   1.7927   1.8597   1.8597   2.0460   2.1149
     2.3719   2.4055   2.4269   2.4731   2.5440   2.5440   2.5485   2.5485
     2.5532   2.5532   2.6359   2.6836   2.7390   2.7390   2.7480   2.8614
     2.8732   3.0747   3.4275   3.4275   3.6813   4.1030   4.4220   4.6007
     4.6007   4.9299   4.9299   5.2257   5.6135   5.6423   5.6423   5.7793
     5.7885   5.7975   5.9119   5.9120   6.2537   6.2537   6.6256   6.7030

     occupation numbers 
     1.0000   1.0000   1.0000   1.0000   1.0000   1.0000   1.0000   1.0000
     1.0000   1.0000   1.0000   1.0000   1.0000   1.0000   1.0000   1.0000
     1.0000   1.0000   1.0000   1.0000   1.0000   1.0000   1.0000   1.0000
     1.0000   1.0000   1.0000   1.0000   1.0000   1.0000   1.0000   1.0000
     1.0000   1.0000   1.0000   1.0000   1.0000   1.0000   1.0000   1.0000
     1.0000   1.0000   1.0000   1.0000   1.0000   1.0000   1.0000   1.0000
     1.0000   1.0000   1.0000   1.0000   1.0000   1.0000   1.0000   1.0000
     1.0000   1.0000   1.0000   1.0000   1.0000   1.0000   1.0000   1.0000
     1.0000   1.0000   1.0000   1.0000   1.0000   1.0000   1.0000   1.0000

          k = 0.0000 0.3849 0.2065 (  7866 PWs)   bands (ev):

   -10.8203 -10.7128 -10.4121 -10.3402 -10.2996 -10.2962 -10.1859 -10.1495
     1.0821   1.1038   1.1443   1.1496   1.1780   1.1968   1.3367   1.3762
     1.4035   1.4332   1.4425   1.4548   1.5221   1.5437   1.5637   1.5839
     1.5905   1.5969   1.7338   1.7730   1.8904   1.9134   1.9824   2.0291
     2.4014   2.4172   2.4440   2.4695   2.4884   2.4958   2.5393   2.5677
     2.5935   2.6172   2.6256   2.6725   2.6804   2.6913   2.8116   2.8697
     3.1154   3.2560   3.2568   3.5916   3.6971   3.9343   4.2091   4.5350
     4.6168   5.0817   5.1229   5.2750   5.3813   5.5972   5.5974   5.6315
     5.7986   5.8447   5.8520   6.0234   6.2837   6.4800   6.5472   6.6436

     occupation numbers 
     1.0000   1.0000   1.0000   1.0000   1.0000   1.0000   1.0000   1.0000
     1.0000   1.0000   1.0000   1.0000   1.0000   1.0000   1.0000   1.0000
     1.0000   1.0000   1.0000   1.0000   1.0000   1.0000   1.0000   1.0000
     1.0000   1.0000   1.0000   1.0000   1.0000   1.0000   1.0000   1.0000
     1.0000   1.0000   1.0000   1.0000   1.0000   1.0000   1.0000   1.0000
     1.0000   1.0000   1.0000   1.0000   1.0000   1.0000   1.0000   1.0000
     1.0000   1.0000   1.0000   1.0000   1.0000   1.0000   1.0000   1.0000
     1.0000   1.0000   1.0000   1.0000   1.0000   1.0000   1.0000   1.0000
     1.0000   1.0000   1.0000   1.0000   1.0000   1.0000   1.0000   1.0000

          k = 0.0000 0.7698 0.0000 (  7908 PWs)   bands (ev):

   -10.5470 -10.3567 -10.3487 -10.3486 -10.2391 -10.2391 -10.1574 -10.1367
     0.9620   0.9620   1.0420   1.0857   1.0857   1.2098   1.3780   1.4530
     1.5196   1.5839   1.6623   1.6624   1.6841   1.6842   1.6874   1.6875
     1.7197   1.7927   1.8597   1.8597   1.9005   2.0312   2.0460   2.1149
     2.3484   2.4055   2.4731   2.4988   2.5532   2.5532   2.5702   2.5702
     2.5851   2.5851   2.6552   2.6836   2.7390   2.7390   2.8131   2.8732
     3.0747   3.0838   3.4275   3.4275   3.6813   3.7941   3.8758   3.8758
     4.1030   4.4220   4.6506   4.9299   4.9299   5.0972   5.5303   5.5303
     5.6135   5.6423   5.6423   5.7224   5.7224   5.7975   6.0931   6.3016

     occupation numbers 
     1.0000   1.0000   1.0000   1.0000   1.0000   1.0000   1.0000   1.0000
     1.0000   1.0000   1.0000   1.0000   1.0000   1.0000   1.0000   1.0000
     1.0000   1.0000   1.0000   1.0000   1.0000   1.0000   1.0000   1.0000
     1.0000   1.0000   1.0000   1.0000   1.0000   1.0000   1.0000   1.0000
     1.0000   1.0000   1.0000   1.0000   1.0000   1.0000   1.0000   1.0000
     1.0000   1.0000   1.0000   1.0000   1.0000   1.0000   1.0000   1.0000
     1.0000   1.0000   1.0000   1.0000   1.0000   1.0000   1.0000   1.0000
     1.0000   1.0000   1.0000   1.0000   1.0000   1.0000   1.0000   1.0000
     1.0000   1.0000   1.0000   1.0000   1.0000   1.0000   1.0000   1.0000

          k = 0.0000 0.7698 0.2065 (  7888 PWs)   bands (ev):

   -10.5201 -10.4471 -10.3402 -10.2962 -10.2519 -10.1859 -10.1825 -10.1495
     0.9559   1.0114   1.0906   1.1038   1.1780   1.1968   1.2878   1.3762
     1.5395   1.5637   1.5839   1.5967   1.6674   1.6945   1.7338   1.7583
     1.7730   1.7846   1.8679   1.8904   1.8970   1.9134   1.9824   2.0291
     2.3853   2.4172   2.4787   2.4958   2.5083   2.5339   2.5393   2.5677
     2.6097   2.6425   2.6804   2.6819   2.6913   2.7607   2.8116   2.8697
     3.1154   3.2568   3.3424   3.5916   3.6415   3.6971   3.9351   4.0473
     4.2091   4.5350   4.6168   4.6229   4.9084   5.0817   5.1856   5.3813
     5.4185   5.5972   5.7986   5.8447   5.9793   6.0154   6.1085   6.2255

     occupation numbers 
     1.0000   1.0000   1.0000   1.0000   1.0000   1.0000   1.0000   1.0000
     1.0000   1.0000   1.0000   1.0000   1.0000   1.0000   1.0000   1.0000
     1.0000   1.0000   1.0000   1.0000   1.0000   1.0000   1.0000   1.0000
     1.0000   1.0000   1.0000   1.0000   1.0000   1.0000   1.0000   1.0000
     1.0000   1.0000   1.0000   1.0000   1.0000   1.0000   1.0000   1.0000
     1.0000   1.0000   1.0000   1.0000   1.0000   1.0000   1.0000   1.0000
     1.0000   1.0000   1.0000   1.0000   1.0000   1.0000   1.0000   1.0000
     1.0000   1.0000   1.0000   1.0000   1.0000   1.0000   1.0000   1.0000
     1.0000   1.0000   1.0000   1.0000   1.0000   1.0000   1.0000   1.0000

          k = 0.0000-1.1547 0.0000 (  7852 PWs)   bands (ev):

   -10.3493 -10.3493 -10.2372 -10.2372 -10.2371 -10.2371 -10.1407 -10.1407
     0.9527   0.9527   0.9527   0.9527   1.1141   1.1141   1.3230   1.3230
     1.5609   1.5609   1.7821   1.7821   1.7821   1.7821   1.8587   1.8587
     1.8587   1.8587   1.9413   1.9413   1.9538   1.9538   2.0753   2.0753
     2.4642   2.4642   2.5909   2.5909   2.6133   2.6133   2.6133   2.6133
     2.6706   2.6706   2.6978   2.6978   2.6978   2.6978   2.7418   2.7418
     3.1878   3.1878   3.1878   3.1878   3.2047   3.2047   3.4268   3.4268
     4.1406   4.1406   4.7139   4.7139   5.4385   5.4385   5.4385   5.4385
     5.5539   5.5539   5.5539   5.5539   5.6402   5.6402   6.0830   6.0830

     occupation numbers 
     1.0000   1.0000   1.0000   1.0000   1.0000   1.0000   1.0000   1.0000
     1.0000   1.0000   1.0000   1.0000   1.0000   1.0000   1.0000   1.0000
     1.0000   1.0000   1.0000   1.0000   1.0000   1.0000   1.0000   1.0000
     1.0000   1.0000   1.0000   1.0000   1.0000   1.0000   1.0000   1.0000
     1.0000   1.0000   1.0000   1.0000   1.0000   1.0000   1.0000   1.0000
     1.0000   1.0000   1.0000   1.0000   1.0000   1.0000   1.0000   1.0000
     1.0000   1.0000   1.0000   1.0000   1.0000   1.0000   1.0000   1.0000
     1.0000   1.0000   1.0000   1.0000   1.0000   1.0000   1.0000   1.0000
     1.0000   1.0000   1.0000   1.0000   1.0000   1.0000   1.0000   1.0000

          k = 0.0000-1.1547 0.2065 (  7900 PWs)   bands (ev):

   -10.3334 -10.3334 -10.2914 -10.2914 -10.1868 -10.1868 -10.1526 -10.1526
     0.9826   0.9826   1.0471   1.0471   1.0698   1.0698   1.2255   1.2255
     1.5872   1.5872   1.6641   1.6641   1.8687   1.8687   1.8803   1.8803
     1.9133   1.9133   1.9178   1.9178   1.9195   1.9195   2.0308   2.0308
     2.5267   2.5267   2.5930   2.5930   2.6003   2.6003   2.6268   2.6268
     2.6330   2.6330   2.6574   2.6574   2.7318   2.7318   2.7411   2.7411
     3.1456   3.1456   3.1660   3.1660   3.2754   3.2754   3.3762   3.3762
     4.4237   4.4237   4.8200   4.8200   5.0141   5.0141   5.0927   5.0927
     5.7267   5.7267   5.7659   5.7659   5.7927   5.7927   5.9987   5.9987

     occupation numbers 
     1.0000   1.0000   1.0000   1.0000   1.0000   1.0000   1.0000   1.0000
     1.0000   1.0000   1.0000   1.0000   1.0000   1.0000   1.0000   1.0000
     1.0000   1.0000   1.0000   1.0000   1.0000   1.0000   1.0000   1.0000
     1.0000   1.0000   1.0000   1.0000   1.0000   1.0000   1.0000   1.0000
     1.0000   1.0000   1.0000   1.0000   1.0000   1.0000   1.0000   1.0000
     1.0000   1.0000   1.0000   1.0000   1.0000   1.0000   1.0000   1.0000
     1.0000   1.0000   1.0000   1.0000   1.0000   1.0000   1.0000   1.0000
     1.0000   1.0000   1.0000   1.0000   1.0000   1.0000   1.0000   1.0000
     1.0000   1.0000   1.0000   1.0000   1.0000   1.0000   1.0000   1.0000

          k = 0.3333 0.1925 0.0000 (  7876 PWs)   bands (ev):

   -10.8593 -10.5637 -10.5636 -10.5470 -10.3487 -10.3486 -10.2581 -10.1574
     0.9620   0.9620   1.0420   1.0549   1.0549   1.1787   1.3780   1.3939
     1.4175   1.4698   1.4698   1.4827   1.4827   1.4978   1.5196   1.6182
     1.6647   1.6841   1.6842   1.6874   1.6875   1.7197   1.9005   2.0312
     2.3484   2.3719   2.4269   2.4988   2.5440   2.5440   2.5485   2.5485
     2.5702   2.5702   2.5851   2.5851   2.6359   2.6552   2.7480   2.8131
     2.8614   3.0838   3.7941   3.8758   3.8758   4.6007   4.6007   4.6506
     5.0972   5.2257   5.5303   5.5303   5.7224   5.7224   5.7793   5.7885
     5.9119   5.9120   6.0931   6.2537   6.2537   6.3016   6.6256   6.7030

     occupation numbers 
     1.0000   1.0000   1.0000   1.0000   1.0000   1.0000   1.0000   1.0000
     1.0000   1.0000   1.0000   1.0000   1.0000   1.0000   1.0000   1.0000
     1.0000   1.0000   1.0000   1.0000   1.0000   1.0000   1.0000   1.0000
     1.0000   1.0000   1.0000   1.0000   1.0000   1.0000   1.0000   1.0000
     1.0000   1.0000   1.0000   1.0000   1.0000   1.0000   1.0000   1.0000
     1.0000   1.0000   1.0000   1.0000   1.0000   1.0000   1.0000   1.0000
     1.0000   1.0000   1.0000   1.0000   1.0000   1.0000   1.0000   1.0000
     1.0000   1.0000   1.0000   1.0000   1.0000   1.0000   1.0000   1.0000
     1.0000   1.0000   1.0000   1.0000   1.0000   1.0000   1.0000   1.0000

          k = 0.3333 0.1925 0.2065 (  7840 PWs)   bands (ev):

   -10.8203 -10.7128 -10.5201 -10.4471 -10.4121 -10.2996 -10.2519 -10.1825
     0.9559   1.0114   1.0820   1.0906   1.1443   1.1496   1.2878   1.3367
     1.4035   1.4332   1.4425   1.4548   1.5221   1.5395   1.5437   1.5905
     1.5967   1.5969   1.6674   1.6945   1.7583   1.7846   1.8679   1.8970
     2.3853   2.4014   2.4440   2.4695   2.4787   2.4884   2.5083   2.5339
     2.5935   2.6097   2.6172   2.6256   2.6425   2.6725   2.6819   2.7607
     3.2560   3.3424   3.6415   3.9343   3.9351   4.0473   4.6229   4.9084
     5.1229   5.1856   5.2750   5.4185   5.5974   5.6315   5.8520   5.9793
     6.0154   6.0234   6.1085   6.2255   6.2837   6.4800   6.5472   6.6436

     occupation numbers 
     1.0000   1.0000   1.0000   1.0000   1.0000   1.0000   1.0000   1.0000
     1.0000   1.0000   1.0000   1.0000   1.0000   1.0000   1.0000   1.0000
     1.0000   1.0000   1.0000   1.0000   1.0000   1.0000   1.0000   1.0000
     1.0000   1.0000   1.0000   1.0000   1.0000   1.0000   1.0000   1.0000
     1.0000   1.0000   1.0000   1.0000   1.0000   1.0000   1.0000   1.0000
     1.0000   1.0000   1.0000   1.0000   1.0000   1.0000   1.0000   1.0000
     1.0000   1.0000   1.0000   1.0000   1.0000   1.0000   1.0000   1.0000
     1.0000   1.0000   1.0000   1.0000   1.0000   1.0000   1.0000   1.0000
     1.0000   1.0000   1.0000   1.0000   1.0000   1.0000   1.0000   1.0000

          k = 0.3333 0.5774 0.0000 (  7874 PWs)   bands (ev):

   -10.6322 -10.6322 -10.4039 -10.4038 -10.4038 -10.4038 -10.1782 -10.1782
     1.0209   1.0209   1.0209   1.0209   1.1448   1.1448   1.3347   1.3347
     1.5272   1.5272   1.5328   1.5328   1.5328   1.5328   1.5845   1.5845
     1.6781   1.6781   1.6781   1.6781   1.8373   1.8373   1.9688   1.9688
     2.3226   2.3226   2.4473   2.4473   2.5519   2.5519   2.5519   2.5519
     2.5835   2.5835   2.5835   2.5835   2.6485   2.6485   2.8199   2.8199
     3.0203   3.0203   4.2135   4.2135   4.2135   4.2135   4.4227   4.4227
     4.6354   4.6354   5.2290   5.2290   5.5301   5.5301   5.5301   5.5301
     5.7236   5.7236   5.7236   5.7236   6.2536   6.2537   6.2864   6.2864

     occupation numbers 
     1.0000   1.0000   1.0000   1.0000   1.0000   1.0000   1.0000   1.0000
     1.0000   1.0000   1.0000   1.0000   1.0000   1.0000   1.0000   1.0000
     1.0000   1.0000   1.0000   1.0000   1.0000   1.0000   1.0000   1.0000
     1.0000   1.0000   1.0000   1.0000   1.0000   1.0000   1.0000   1.0000
     1.0000   1.0000   1.0000   1.0000   1.0000   1.0000   1.0000   1.0000
     1.0000   1.0000   1.0000   1.0000   1.0000   1.0000   1.0000   1.0000
     1.0000   1.0000   1.0000   1.0000   1.0000   1.0000   1.0000   1.0000
     1.0000   1.0000   1.0000   1.0000   1.0000   1.0000   1.0000   1.0000
     1.0000   1.0000   1.0000   1.0000   1.0000   1.0000   1.0000   1.0000

          k = 0.3333 0.5774 0.2065 (  7868 PWs)   bands (ev):

   -10.6016 -10.6015 -10.5179 -10.5179 -10.2905 -10.2905 -10.2081 -10.2081
     1.0368   1.0368   1.1086   1.1086   1.1268   1.1268   1.2850   1.2850
     1.5169   1.5169   1.5188   1.5188   1.5381   1.5381   1.5573   1.5573
     1.6853   1.6853   1.7418   1.7418   1.8092   1.8092   1.8094   1.8094
     2.3643   2.3643   2.4609   2.4609   2.4789   2.4789   2.5183   2.5183
     2.6056   2.6056   2.6364   2.6364   2.6725   2.6725   2.7501   2.7501
     3.3752   3.3752   3.8659   3.8659   4.4657   4.4657   4.5551   4.5551
     4.6101   4.6101   4.9825   4.9825   5.2328   5.2328   5.3664   5.3664
     5.9570   5.9570   6.0904   6.0904   6.1732   6.1732   6.2739   6.2739

     occupation numbers 
     1.0000   1.0000   1.0000   1.0000   1.0000   1.0000   1.0000   1.0000
     1.0000   1.0000   1.0000   1.0000   1.0000   1.0000   1.0000   1.0000
     1.0000   1.0000   1.0000   1.0000   1.0000   1.0000   1.0000   1.0000
     1.0000   1.0000   1.0000   1.0000   1.0000   1.0000   1.0000   1.0000
     1.0000   1.0000   1.0000   1.0000   1.0000   1.0000   1.0000   1.0000
     1.0000   1.0000   1.0000   1.0000   1.0000   1.0000   1.0000   1.0000
     1.0000   1.0000   1.0000   1.0000   1.0000   1.0000   1.0000   1.0000
     1.0000   1.0000   1.0000   1.0000   1.0000   1.0000   1.0000   1.0000
     1.0000   1.0000   1.0000   1.0000   1.0000   1.0000   1.0000   1.0000

          k = 0.3333-0.9623 0.0000 (  7900 PWs)   bands (ev):

   -10.3567 -10.3567 -10.2391 -10.2391 -10.2391 -10.2391 -10.1367 -10.1367
     1.0857   1.0857   1.0857   1.0857   1.2098   1.2098   1.4530   1.4530
     1.5839   1.5839   1.6623   1.6623   1.6624   1.6624   1.7927   1.7927
     1.8597   1.8597   1.8597   1.8597   2.0460   2.0460   2.1149   2.1149
     2.4055   2.4055   2.4731   2.4731   2.5532   2.5532   2.5532   2.5532
     2.6836   2.6836   2.7390   2.7390   2.7390   2.7390   2.8732   2.8732
     3.0747   3.0747   3.4275   3.4275   3.4275   3.4275   3.6813   3.6813
     4.1030   4.1031   4.4220   4.4220   4.9299   4.9299   4.9299   4.9299
     5.6135   5.6135   5.6423   5.6423   5.6423   5.6423   5.7975   5.7975

     occupation numbers 
     1.0000   1.0000   1.0000   1.0000   1.0000   1.0000   1.0000   1.0000
     1.0000   1.0000   1.0000   1.0000   1.0000   1.0000   1.0000   1.0000
     1.0000   1.0000   1.0000   1.0000   1.0000   1.0000   1.0000   1.0000
     1.0000   1.0000   1.0000   1.0000   1.0000   1.0000   1.0000   1.0000
     1.0000   1.0000   1.0000   1.0000   1.0000   1.0000   1.0000   1.0000
     1.0000   1.0000   1.0000   1.0000   1.0000   1.0000   1.0000   1.0000
     1.0000   1.0000   1.0000   1.0000   1.0000   1.0000   1.0000   1.0000
     1.0000   1.0000   1.0000   1.0000   1.0000   1.0000   1.0000   1.0000
     1.0000   1.0000   1.0000   1.0000   1.0000   1.0000   1.0000   1.0000

          k = 0.3333-0.9623 0.2065 (  7914 PWs)   bands (ev):

   -10.3402 -10.3402 -10.2962 -10.2962 -10.1859 -10.1859 -10.1495 -10.1495
     1.1038   1.1038   1.1780   1.1780   1.1968   1.1968   1.3762   1.3762
     1.5637   1.5637   1.5839   1.5839   1.7338   1.7338   1.7730   1.7730
     1.8904   1.8904   1.9134   1.9134   1.9824   1.9824   2.0291   2.0291
     2.4172   2.4172   2.4958   2.4958   2.5393   2.5393   2.5677   2.5677
     2.6804   2.6804   2.6913   2.6913   2.8116   2.8116   2.8697   2.8697
     3.1154   3.1154   3.2568   3.2568   3.5916   3.5916   3.6971   3.6971
     4.2091   4.2091   4.5350   4.5350   4.6168   4.6168   5.0817   5.0817
     5.3813   5.3813   5.5972   5.5972   5.7986   5.7986   5.8447   5.8447

     occupation numbers 
     1.0000   1.0000   1.0000   1.0000   1.0000   1.0000   1.0000   1.0000
     1.0000   1.0000   1.0000   1.0000   1.0000   1.0000   1.0000   1.0000
     1.0000   1.0000   1.0000   1.0000   1.0000   1.0000   1.0000   1.0000
     1.0000   1.0000   1.0000   1.0000   1.0000   1.0000   1.0000   1.0000
     1.0000   1.0000   1.0000   1.0000   1.0000   1.0000   1.0000   1.0000
     1.0000   1.0000   1.0000   1.0000   1.0000   1.0000   1.0000   1.0000
     1.0000   1.0000   1.0000   1.0000   1.0000   1.0000   1.0000   1.0000
     1.0000   1.0000   1.0000   1.0000   1.0000   1.0000   1.0000   1.0000
     1.0000   1.0000   1.0000   1.0000   1.0000   1.0000   1.0000   1.0000

          k = 0.3333-0.5774 0.0000 (  7876 PWs)   bands (ev):

   -10.6322 -10.4038 -10.4038 -10.1943 -10.1943 -10.1849 -10.1848 -10.1782
     1.0209   1.0209   1.1448   1.2800   1.3212   1.3212   1.3347   1.5272
     1.5305   1.5306   1.5328   1.5328   1.5845   1.6688   1.6688   1.6781
     1.6781   1.8373   1.9688   2.0258   2.0556   2.0556   2.2690   2.2690
     2.3226   2.3628   2.4346   2.4346   2.4473   2.4858   2.5316   2.5316
     2.5519   2.5519   2.5835   2.5835   2.6485   2.8199   2.9255   2.9255
     3.0203   3.2411   3.2429   3.2429   3.4120   3.4120   4.2135   4.2135
     4.2827   4.2827   4.4227   4.6354   5.0283   5.0283   5.2182   5.2290
     5.5301   5.5301   5.6818   5.6818   5.7236   5.7236   6.2537   6.2864

     occupation numbers 
     1.0000   1.0000   1.0000   1.0000   1.0000   1.0000   1.0000   1.0000
     1.0000   1.0000   1.0000   1.0000   1.0000   1.0000   1.0000   1.0000
     1.0000   1.0000   1.0000   1.0000   1.0000   1.0000   1.0000   1.0000
     1.0000   1.0000   1.0000   1.0000   1.0000   1.0000   1.0000   1.0000
     1.0000   1.0000   1.0000   1.0000   1.0000   1.0000   1.0000   1.0000
     1.0000   1.0000   1.0000   1.0000   1.0000   1.0000   1.0000   1.0000
     1.0000   1.0000   1.0000   1.0000   1.0000   1.0000   1.0000   1.0000
     1.0000   1.0000   1.0000   1.0000   1.0000   1.0000   1.0000   1.0000
     1.0000   1.0000   1.0000   1.0000   1.0000   1.0000   1.0000   1.0000

          k = 0.3333-0.5774 0.2065 (  7870 PWs)   bands (ev):

   -10.6015 -10.5179 -10.2905 -10.2081 -10.1920 -10.1919 -10.1872 -10.1872
     1.0368   1.1086   1.1268   1.2850   1.3081   1.3917   1.4031   1.4031
     1.5169   1.5188   1.5381   1.5573   1.5787   1.5787   1.6853   1.7171
     1.7418   1.8092   1.8094   1.9187   2.0771   2.0771   2.1585   2.1585
     2.3643   2.3793   2.4065   2.4607   2.4609   2.4789   2.4792   2.5183
     2.6056   2.6364   2.6725   2.6812   2.6812   2.7501   2.8530   2.8530
     3.2873   3.2873   3.3685   3.3685   3.3752   3.4090   3.8035   3.8659
     4.4657   4.5551   4.6101   4.7452   4.9825   5.0893   5.1982   5.1982
     5.2328   5.3664   5.5234   5.5234   5.9570   6.0904   6.1732   6.2739

     occupation numbers 
     1.0000   1.0000   1.0000   1.0000   1.0000   1.0000   1.0000   1.0000
     1.0000   1.0000   1.0000   1.0000   1.0000   1.0000   1.0000   1.0000
     1.0000   1.0000   1.0000   1.0000   1.0000   1.0000   1.0000   1.0000
     1.0000   1.0000   1.0000   1.0000   1.0000   1.0000   1.0000   1.0000
     1.0000   1.0000   1.0000   1.0000   1.0000   1.0000   1.0000   1.0000
     1.0000   1.0000   1.0000   1.0000   1.0000   1.0000   1.0000   1.0000
     1.0000   1.0000   1.0000   1.0000   1.0000   1.0000   1.0000   1.0000
     1.0000   1.0000   1.0000   1.0000   1.0000   1.0000   1.0000   1.0000
     1.0000   1.0000   1.0000   1.0000   1.0000   1.0000   1.0000   1.0000

          k = 0.3333-0.1925-0.2065 (  7866 PWs)   bands (ev):

   -10.8203 -10.7128 -10.4121 -10.3402 -10.2996 -10.2962 -10.1859 -10.1495
     1.0820   1.1038   1.1443   1.1496   1.1780   1.1968   1.3367   1.3762
     1.4035   1.4332   1.4425   1.4548   1.5221   1.5437   1.5637   1.5839
     1.5905   1.5969   1.7338   1.7730   1.8904   1.9134   1.9824   2.0291
     2.4014   2.4172   2.4440   2.4695   2.4884   2.4958   2.5393   2.5677
     2.5935   2.6172   2.6256   2.6725   2.6804   2.6913   2.8116   2.8697
     3.1154   3.2560   3.2568   3.5916   3.6971   3.9343   4.2091   4.5350
     4.6168   5.0817   5.1229   5.2750   5.3813   5.5972   5.5974   5.6315
     5.7986   5.8447   5.8520   6.0234   6.2837   6.4800   6.5472   6.6436

     occupation numbers 
     1.0000   1.0000   1.0000   1.0000   1.0000   1.0000   1.0000   1.0000
     1.0000   1.0000   1.0000   1.0000   1.0000   1.0000   1.0000   1.0000
     1.0000   1.0000   1.0000   1.0000   1.0000   1.0000   1.0000   1.0000
     1.0000   1.0000   1.0000   1.0000   1.0000   1.0000   1.0000   1.0000
     1.0000   1.0000   1.0000   1.0000   1.0000   1.0000   1.0000   1.0000
     1.0000   1.0000   1.0000   1.0000   1.0000   1.0000   1.0000   1.0000
     1.0000   1.0000   1.0000   1.0000   1.0000   1.0000   1.0000   1.0000
     1.0000   1.0000   1.0000   1.0000   1.0000   1.0000   1.0000   1.0000
     1.0000   1.0000   1.0000   1.0000   1.0000   1.0000   1.0000   1.0000

          k = 0.6667-0.3849-0.2065 (  7888 PWs)   bands (ev):

   -10.5201 -10.4471 -10.3402 -10.2962 -10.2519 -10.1859 -10.1825 -10.1495
     0.9559   1.0114   1.0906   1.1038   1.1780   1.1968   1.2878   1.3762
     1.5395   1.5637   1.5839   1.5967   1.6674   1.6945   1.7338   1.7583
     1.7730   1.7846   1.8679   1.8904   1.8970   1.9134   1.9824   2.0291
     2.3853   2.4172   2.4787   2.4958   2.5083   2.5339   2.5393   2.5677
     2.6097   2.6425   2.6804   2.6820   2.6913   2.7607   2.8116   2.8697
     3.1154   3.2568   3.3424   3.5916   3.6415   3.6971   3.9351   4.0473
     4.2091   4.5350   4.6168   4.6229   4.9084   5.0817   5.1856   5.3813
     5.4185   5.5972   5.7986   5.8447   5.9793   6.0154   6.1085   6.2255

     occupation numbers 
     1.0000   1.0000   1.0000   1.0000   1.0000   1.0000   1.0000   1.0000
     1.0000   1.0000   1.0000   1.0000   1.0000   1.0000   1.0000   1.0000
     1.0000   1.0000   1.0000   1.0000   1.0000   1.0000   1.0000   1.0000
     1.0000   1.0000   1.0000   1.0000   1.0000   1.0000   1.0000   1.0000
     1.0000   1.0000   1.0000   1.0000   1.0000   1.0000   1.0000   1.0000
     1.0000   1.0000   1.0000   1.0000   1.0000   1.0000   1.0000   1.0000
     1.0000   1.0000   1.0000   1.0000   1.0000   1.0000   1.0000   1.0000
     1.0000   1.0000   1.0000   1.0000   1.0000   1.0000   1.0000   1.0000
     1.0000   1.0000   1.0000   1.0000   1.0000   1.0000   1.0000   1.0000

          k = 0.3333 0.1925-0.2065 (  7840 PWs)   bands (ev):

   -10.8203 -10.7128 -10.5201 -10.4471 -10.4121 -10.2996 -10.2519 -10.1825
     0.9559   1.0114   1.0821   1.0906   1.1443   1.1496   1.2878   1.3367
     1.4035   1.4332   1.4425   1.4548   1.5221   1.5395   1.5437   1.5905
     1.5967   1.5969   1.6674   1.6945   1.7583   1.7846   1.8679   1.8970
     2.3853   2.4014   2.4440   2.4695   2.4787   2.4884   2.5083   2.5339
     2.5935   2.6097   2.6172   2.6256   2.6425   2.6725   2.6820   2.7607
     3.2560   3.3424   3.6415   3.9343   3.9351   4.0473   4.6229   4.9084
     5.1229   5.1856   5.2750   5.4185   5.5974   5.6315   5.8520   5.9793
     6.0154   6.0234   6.1085   6.2255   6.2837   6.4800   6.5472   6.6436

     occupation numbers 
     1.0000   1.0000   1.0000   1.0000   1.0000   1.0000   1.0000   1.0000
     1.0000   1.0000   1.0000   1.0000   1.0000   1.0000   1.0000   1.0000
     1.0000   1.0000   1.0000   1.0000   1.0000   1.0000   1.0000   1.0000
     1.0000   1.0000   1.0000   1.0000   1.0000   1.0000   1.0000   1.0000
     1.0000   1.0000   1.0000   1.0000   1.0000   1.0000   1.0000   1.0000
     1.0000   1.0000   1.0000   1.0000   1.0000   1.0000   1.0000   1.0000
     1.0000   1.0000   1.0000   1.0000   1.0000   1.0000   1.0000   1.0000
     1.0000   1.0000   1.0000   1.0000   1.0000   1.0000   1.0000   1.0000
     1.0000   1.0000   1.0000   1.0000   1.0000   1.0000   1.0000   1.0000

          k =-0.6667 0.7698-0.2065 (  7914 PWs)   bands (ev):

   -10.3402 -10.3402 -10.2962 -10.2962 -10.1859 -10.1859 -10.1495 -10.1495
     1.1038   1.1038   1.1780   1.1780   1.1968   1.1968   1.3762   1.3762
     1.5637   1.5637   1.5839   1.5839   1.7338   1.7338   1.7730   1.7730
     1.8904   1.8904   1.9134   1.9134   1.9824   1.9824   2.0291   2.0291
     2.4172   2.4172   2.4958   2.4958   2.5393   2.5393   2.5677   2.5677
     2.6804   2.6804   2.6913   2.6913   2.8116   2.8116   2.8697   2.8697
     3.1154   3.1154   3.2568   3.2568   3.5916   3.5916   3.6971   3.6971
     4.2091   4.2091   4.5350   4.5350   4.6168   4.6168   5.0817   5.0817
     5.3813   5.3813   5.5972   5.5972   5.7986   5.7986   5.8447   5.8447

     occupation numbers 
     1.0000   1.0000   1.0000   1.0000   1.0000   1.0000   1.0000   1.0000
     1.0000   1.0000   1.0000   1.0000   1.0000   1.0000   1.0000   1.0000
     1.0000   1.0000   1.0000   1.0000   1.0000   1.0000   1.0000   1.0000
     1.0000   1.0000   1.0000   1.0000   1.0000   1.0000   1.0000   1.0000
     1.0000   1.0000   1.0000   1.0000   1.0000   1.0000   1.0000   1.0000
     1.0000   1.0000   1.0000   1.0000   1.0000   1.0000   1.0000   1.0000
     1.0000   1.0000   1.0000   1.0000   1.0000   1.0000   1.0000   1.0000
     1.0000   1.0000   1.0000   1.0000   1.0000   1.0000   1.0000   1.0000
     1.0000   1.0000   1.0000   1.0000   1.0000   1.0000   1.0000   1.0000

     highest occupied level (ev):     6.8873

!    total energy              =   -1446.54755157 Ry
     estimated scf accuracy    <          3.2E-09 Ry

     The total energy is the sum of the following terms:
     one-electron contribution =    -618.10096731 Ry
     hartree contribution      =     473.15686165 Ry
     xc contribution           =    -438.18451797 Ry
     ewald contribution        =    -863.41892795 Ry

     convergence has been achieved in  26 iterations

     Forces acting on atoms (cartesian axes, Ry/au):

     atom    1 type  1   force =    -0.00000655   -0.00000378    0.00006367
     atom    2 type  1   force =     0.00000518    0.00000299    0.00006891
     atom    3 type  2   force =     0.00000053    0.00000031   -0.00006153
     atom    4 type  2   force =    -0.00000024   -0.00000014   -0.00006037
     atom    5 type  1   force =    -0.00000095   -0.00000055    0.00004736
     atom    6 type  1   force =    -0.00000157   -0.00000091    0.00006439
     atom    7 type  2   force =     0.00000023    0.00000013   -0.00006029
     atom    8 type  2   force =     0.00000004    0.00000002   -0.00006166
     atom    9 type  1   force =    -0.00000342   -0.00000197    0.00007257
     atom   10 type  1   force =     0.00000557    0.00000322    0.00006584
     atom   11 type  2   force =     0.00000054    0.00000031   -0.00006074
     atom   12 type  2   force =    -0.00000055   -0.00000032   -0.00006195
     atom   13 type  1   force =    -0.00000311   -0.00000180    0.00004477
     atom   14 type  1   force =     0.00000364    0.00000210    0.00006159
     atom   15 type  2   force =     0.00000064    0.00000037   -0.00005988
     atom   16 type  2   force =     0.00000002    0.00000001   -0.00006267
     The non-local contrib.  to forces
     atom    1 type  1   force =    -0.00000135   -0.00000078   -0.00482845
     atom    2 type  1   force =     0.00000055    0.00000032   -0.00483016
     atom    3 type  2   force =     0.00000148    0.00000085    0.00575537
     atom    4 type  2   force =    -0.00000281   -0.00000162    0.00575197
     atom    5 type  1   force =    -0.00000001   -0.00000001   -0.00483885
     atom    6 type  1   force =    -0.00000128   -0.00000074   -0.00483184
     atom    7 type  2   force =     0.00000259    0.00000149    0.00575540
     atom    8 type  2   force =    -0.00000050   -0.00000029    0.00575813
     atom    9 type  1   force =     0.00000017    0.00000010   -0.00482709
     atom   10 type  1   force =     0.00000036    0.00000021   -0.00483126
     atom   11 type  2   force =     0.00000212    0.00000122    0.00575515
     atom   12 type  2   force =    -0.00000262   -0.00000151    0.00574887
     atom   13 type  1   force =     0.00000034    0.00000019   -0.00484033
     atom   14 type  1   force =     0.00000073    0.00000042   -0.00483223
     atom   15 type  2   force =     0.00000199    0.00000115    0.00575751
     atom   16 type  2   force =    -0.00000332   -0.00000192    0.00575932
     The ionic contribution  to forces
     atom    1 type  1   force =    -0.00000000    0.00000000    0.06271747
     atom    2 type  1   force =     0.00000000   -0.00000000    0.06271747
     atom    3 type  2   force =    -0.00000000    0.00000000   -0.06271747
     atom    4 type  2   force =     0.00000000   -0.00000000   -0.06271747
     atom    5 type  1   force =    -0.00000000    0.00000000    0.06271747
     atom    6 type  1   force =     0.00000000   -0.00000000    0.06271747
     atom    7 type  2   force =    -0.00000000    0.00000000   -0.06271747
     atom    8 type  2   force =     0.00000000   -0.00000000   -0.06271747
     atom    9 type  1   force =    -0.00000000    0.00000000    0.06271747
     atom   10 type  1   force =     0.00000000   -0.00000000    0.06271747
     atom   11 type  2   force =    -0.00000000    0.00000000   -0.06271747
     atom   12 type  2   force =     0.00000000   -0.00000000   -0.06271747
     atom   13 type  1   force =    -0.00000000    0.00000000    0.06271747
     atom   14 type  1   force =     0.00000000   -0.00000000    0.06271747
     atom   15 type  2   force =    -0.00000000    0.00000000   -0.06271747
     atom   16 type  2   force =     0.00000000   -0.00000000   -0.06271747
     The local contribution  to forces
     atom    1 type  1   force =     0.00000655    0.00000379   -0.05829445
     atom    2 type  1   force =    -0.00000392   -0.00000237   -0.05830209
     atom    3 type  2   force =     0.00000114    0.00000066    0.05696384
     atom    4 type  2   force =    -0.00000253   -0.00000149    0.05696115
     atom    5 type  1   force =     0.00000175    0.00000102   -0.05827092
     atom    6 type  1   force =     0.00000324    0.00000177   -0.05829325
     atom    7 type  2   force =     0.00000011    0.00000007    0.05696516
     atom    8 type  2   force =    -0.00000056   -0.00000035    0.05697077
     atom    9 type  1   force =    -0.00000067   -0.00000039   -0.05830159
     atom   10 type  1   force =    -0.00000114   -0.00000076   -0.05829689
     atom   11 type  2   force =     0.00000000    0.00000001    0.05696470
     atom   12 type  2   force =    -0.00000025   -0.00000017    0.05696003
     atom   13 type  1   force =     0.00000033    0.00000020   -0.05826610
     atom   14 type  1   force =    -0.00000369   -0.00000223   -0.05829100
     atom   15 type  2   force =    -0.00000439   -0.00000253    0.05696384
     atom   16 type  2   force =    -0.00000063   -0.00000039    0.05697063
     The core correction contribution to forces
     atom    1 type  1   force =    -0.00000005   -0.00000003    0.00046383
     atom    2 type  1   force =     0.00000003    0.00000000    0.00046439
     atom    3 type  2   force =    -0.00000001   -0.00000001   -0.00006505
     atom    4 type  2   force =     0.00000002    0.00000001   -0.00006500
     atom    5 type  1   force =    -0.00000000   -0.00000000    0.00046386
     atom    6 type  1   force =    -0.00000006   -0.00000005    0.00046409
     atom    7 type  2   force =    -0.00000003   -0.00000002   -0.00006504
     atom    8 type  2   force =     0.00000000    0.00000000   -0.00006509
     atom    9 type  1   force =     0.00000022    0.00000013    0.00046386
     atom   10 type  1   force =    -0.00000017   -0.00000011    0.00046428
     atom   11 type  2   force =    -0.00000002   -0.00000001   -0.00006505
     atom   12 type  2   force =     0.00000003    0.00000002   -0.00006497
     atom   13 type  1   force =     0.00000006    0.00000003    0.00046378
     atom   14 type  1   force =     0.00000007    0.00000003    0.00046406
     atom   15 type  2   force =    -0.00000004   -0.00000002   -0.00006507
     atom   16 type  2   force =     0.00000004    0.00000002   -0.00006510
     The Hubbard contrib.    to forces
     atom    1 type  1   force =     0.00000000    0.00000000    0.00000000
     atom    2 type  1   force =     0.00000000    0.00000000    0.00000000
     atom    3 type  2   force =     0.00000000    0.00000000    0.00000000
     atom    4 type  2   force =     0.00000000    0.00000000    0.00000000
     atom    5 type  1   force =     0.00000000    0.00000000    0.00000000
     atom    6 type  1   force =     0.00000000    0.00000000    0.00000000
     atom    7 type  2   force =     0.00000000    0.00000000    0.00000000
     atom    8 type  2   force =     0.00000000    0.00000000    0.00000000
     atom    9 type  1   force =     0.00000000    0.00000000    0.00000000
     atom   10 type  1   force =     0.00000000    0.00000000    0.00000000
     atom   11 type  2   force =     0.00000000    0.00000000    0.00000000
     atom   12 type  2   force =     0.00000000    0.00000000    0.00000000
     atom   13 type  1   force =     0.00000000    0.00000000    0.00000000
     atom   14 type  1   force =     0.00000000    0.00000000    0.00000000
     atom   15 type  2   force =     0.00000000    0.00000000    0.00000000
     atom   16 type  2   force =     0.00000000    0.00000000    0.00000000
     The SCF correction term to forces
     atom    1 type  1   force =    -0.00001197   -0.00000691    0.00000353
     atom    2 type  1   force =     0.00000830    0.00000479    0.00001756
     atom    3 type  2   force =    -0.00000235   -0.00000136    0.00000005
     atom    4 type  2   force =     0.00000482    0.00000278    0.00000725
     atom    5 type  1   force =    -0.00000297   -0.00000172   -0.00002593
     atom    6 type  1   force =    -0.00000369   -0.00000213    0.00000618
     atom    7 type  2   force =    -0.00000271   -0.00000157   -0.00000008
     atom    8 type  2   force =     0.00000084    0.00000049   -0.00000973
     atom    9 type  1   force =    -0.00000340   -0.00000196    0.00001819
     atom   10 type  1   force =     0.00000630    0.00000364    0.00001051
     atom   11 type  2   force =    -0.00000184   -0.00000106    0.00000020
     atom   12 type  2   force =     0.00000202    0.00000116    0.00000986
     atom   13 type  1   force =    -0.00000412   -0.00000238   -0.00003178
     atom   14 type  1   force =     0.00000630    0.00000364    0.00000155
     atom   15 type  2   force =     0.00000280    0.00000162   -0.00000042
     atom   16 type  2   force =     0.00000367    0.00000212   -0.00001178

     Total force =     0.000246     Total SCF correction =     0.000058
     SCF correction compared to forces is large: reduce conv_thr to get better values

     init_run     :      5.42s CPU      4.88s WALL (       1 calls)
     electrons    :    326.25s CPU    243.99s WALL (       1 calls)
     forces       :      2.53s CPU      2.11s WALL (       1 calls)

     Called by init_run:
     wfcinit      :      2.89s CPU      2.29s WALL (       1 calls)
     wfcinit:atom :      0.04s CPU      0.03s WALL (      10 calls)
     wfcinit:wfcr :      2.68s CPU      2.13s WALL (      10 calls)
     potinit      :      1.03s CPU      1.04s WALL (       1 calls)
     hinit0       :      1.31s CPU      1.33s WALL (       1 calls)

     Called by electrons:
     c_bands      :    295.49s CPU    218.56s WALL (      26 calls)
     sum_band     :     25.52s CPU     20.85s WALL (      26 calls)
     v_of_rho     :      1.81s CPU      1.61s WALL (      27 calls)
     v_h          :      0.12s CPU      0.11s WALL (      27 calls)
     v_xc         :      1.76s CPU      1.56s WALL (      28 calls)
     newd         :      3.12s CPU      2.73s WALL (      27 calls)
     mix_rho      :      0.30s CPU      0.27s WALL (      26 calls)

     Called by c_bands:
     init_us_2    :      1.11s CPU      0.95s WALL (     540 calls)
     init_us_2:cp :      1.10s CPU      0.95s WALL (     540 calls)
     cegterg      :    279.49s CPU    204.66s WALL (     260 calls)

     Called by sum_band:
     sum_band:wei :      0.00s CPU      0.00s WALL (      26 calls)
     sum_band:loo :     20.75s CPU     17.15s WALL (      26 calls)
     sum_band:buf :      0.11s CPU      0.10s WALL (     260 calls)
     sum_band:ini :      0.52s CPU      0.44s WALL (     260 calls)
     sum_band:cal :      4.35s CPU      2.29s WALL (     260 calls)
     sum_band:bec :      0.09s CPU      0.08s WALL (     260 calls)
     addusdens    :      3.99s CPU      2.98s WALL (      26 calls)
                                        0.00s GPU  (      26 calls)
     addusd:skk   :      0.05s CPU      0.05s WALL (      52 calls)
                                        0.00s GPU  (      52 calls)

     Called by *egterg:
     cdiaghg      :     42.33s CPU     32.64s WALL (    1914 calls)
     cegterg:over :     19.10s CPU     10.29s WALL (    1654 calls)
     cegterg:upda :     11.07s CPU      5.69s WALL (    1654 calls)
     cegterg:last :     28.51s CPU     14.61s WALL (    1055 calls)
     h_psi        :    156.00s CPU    129.81s WALL (    1924 calls)
     s_psi        :     18.98s CPU      9.76s WALL (    1924 calls)
     g_psi        :      0.78s CPU      0.61s WALL (    1654 calls)

     Called by h_psi:
     h_psi:calbec :     18.72s CPU     10.00s WALL (    1924 calls)
     vloc_psi     :    117.68s CPU    109.61s WALL (    1924 calls)
     add_vuspsi   :     19.16s CPU      9.84s WALL (    1924 calls)

     General routines
     calbec       :     23.71s CPU     12.63s WALL (    2224 calls)
     fft          :      1.35s CPU      1.33s WALL (     360 calls)
     ffts         :      0.26s CPU      0.26s WALL (      53 calls)
     fftw         :    116.19s CPU    109.12s WALL (  172192 calls)
     interpolate  :      0.31s CPU      0.31s WALL (      27 calls)

     Parallel routines

     PWSCF        :   5m34.55s CPU   4m11.35s WALL


   This run was terminated on:  16:13: 6  18Jul2025            

=------------------------------------------------------------------------------=
   JOB DONE.
=------------------------------------------------------------------------------=
Note: The following floating-point exceptions are signalling: IEEE_INVALID_FLAG
Note: The following floating-point exceptions are signalling: IEEE_INVALID_FLAG
