Authorization required, but no authorization protocol specified

Authorization required, but no authorization protocol specified

Authorization required, but no authorization protocol specified

Authorization required, but no authorization protocol specified

Authorization required, but no authorization protocol specified

Authorization required, but no authorization protocol specified

Authorization required, but no authorization protocol specified

Authorization required, but no authorization protocol specified

Authorization required, but no authorization protocol specified

Authorization required, but no authorization protocol specified

Authorization required, but no authorization protocol specified

Authorization required, but no authorization protocol specified

Authorization required, but no authorization protocol specified

Authorization required, but no authorization protocol specified

Authorization required, but no authorization protocol specified

Authorization required, but no authorization protocol specified

Authorization required, but no authorization protocol specified

Authorization required, but no authorization protocol specified


     Program PWSCF v.7.2 starts on 17Jul2025 at 13:43:58 

     This program is part of the open-source Quantum ESPRESSO suite
     for quantum simulation of materials; please cite
         "P. Giannozzi et al., J. Phys.:Condens. Matter 21 395502 (2009);
         "P. Giannozzi et al., J. Phys.:Condens. Matter 29 465901 (2017);
         "P. Giannozzi et al., J. Chem. Phys. 152 154105 (2020);
          URL http://www.quantum-espresso.org", 
     in publications or presentations arising from this work. More details at
     http://www.quantum-espresso.org/quote

     Parallel version (MPI), running on    16 processors

     MPI processes distributed on     1 nodes
     79748 MiB available memory on the printing compute node when the environment starts

     Reading input from /home/jvc/QEspresso7.2/ZnO_database/scripts/cell311.in/ZnO-3.14-1.68-311.in
Warning: card &CELL ignored
Warning: card / ignored
Warning: card &FCP ignored
Warning: card / ignored
Warning: card &RISM ignored
Warning: card / ignored

     Current dimensions of program PWSCF are:
     Max number of different atomic species (ntypx) = 10
     Max number of k-points (npk) =  40000
     Max angular momentum in pseudopotentials (lmaxx) =  4
     file Zn.upf: wavefunction(s)  3D renormalized
     Found identity + (  0.3333  0.0000  0.0000) symmetry
     This is a supercell, fractional translations are disabled
     Message from routine setup:
     using ibrav=0 with symmetry is DISCOURAGED, use correct ibrav instead

     K-points division:     npool     =       2
     R & G space division:  proc/nbgrp/npool/nimage =       8
     Subspace diagonalization in iterative solution of the eigenvalue problem:
     a serial algorithm will be used


     Parallelization info
     --------------------
     sticks:   dense  smooth     PW     G-vecs:    dense   smooth      PW
     Min         394     196     59                16705     5900     971
     Max         395     197     60                16706     5903     974
     Sum        3153    1573    477               133647    47209    7785

     Using Slab Decomposition



     bravais-lattice index     =            0
     lattice parameter (alat)  =      18.5365  a.u.
     unit-cell volume          =     989.3930 (a.u.)^3
     number of atoms/cell      =           12
     number of atomic types    =            2
     number of electrons       =       108.00
     number of Kohn-Sham states=           54
     kinetic-energy cutoff     =      50.0000  Ry
     charge density cutoff     =     400.0000  Ry
     scf convergence threshold =      1.0E-08
     mixing beta               =       0.3000
     number of iterations used =            8  plain     mixing
     Exchange-correlation= PBE
                           (   1   4   3   4   0   0   0)

     celldm(1)=  18.536466  celldm(2)=   0.000000  celldm(3)=   0.000000
     celldm(4)=   0.000000  celldm(5)=   0.000000  celldm(6)=   0.000000

     crystal axes: (cart. coord. in units of alat)
               a(1) = (   1.000000   0.000000   0.000000 )  
               a(2) = (  -0.166667   0.288675   0.000000 )  
               a(3) = (   0.000000   0.000000   0.538119 )  

     reciprocal axes: (cart. coord. in units 2 pi/alat)
               b(1) = (  1.000000  0.577350 -0.000000 )  
               b(2) = (  0.000000  3.464102  0.000000 )  
               b(3) = (  0.000000 -0.000000  1.858323 )  


     PseudoPot. # 1 for Zn read from file:
     /home/jvc/QEspresso7.2/ZnO_database/pseudos/Zn.upf
     MD5 check sum: 7f56cabf9682ed8c977c2f7d0c5985c5
     Pseudo is Ultrasoft + core correction, Zval = 12.0
     Generated using &quot;atomic&quot; code by A. Dal Corso  v.6.2.2
     Using radial grid of 1201 points,  6 beta functions with: 
                l(1) =   0
                l(2) =   0
                l(3) =   1
                l(4) =   1
                l(5) =   2
                l(6) =   2
     Q(r) pseudized with 0 coefficients 


     PseudoPot. # 2 for O  read from file:
     /home/jvc/QEspresso7.2/ZnO_database/pseudos/O.upf
     MD5 check sum: 91400c9766925bcf19f520983a725ff0
     Pseudo is Ultrasoft + core correction, Zval =  6.0
     Generated using &quot;atomic&quot; code by A. Dal Corso  v.6.3MaX
     Using radial grid of 1095 points,  4 beta functions with: 
                l(1) =   0
                l(2) =   0
                l(3) =   1
                l(4) =   1
     Q(r) pseudized with 0 coefficients 


     atomic species   valence    mass     pseudopotential
        Zn            12.00    65.38000     Zn( 1.00)
        O              6.00    15.99900     O ( 1.00)

      2 Sym. Ops. (no inversion) found


                                    s                        frac. trans.

      isym =  1     identity                                     

 cryst.   s( 1) = (     1          0          0      )
                  (     0          1          0      )
                  (     0          0          1      )

 cart.    s( 1) = (  1.0000000  0.0000000  0.0000000 )
                  (  0.0000000  1.0000000  0.0000000 )
                  (  0.0000000  0.0000000  1.0000000 )


      isym =  2     inv. 180 deg rotation - cryst. axis [0,1,0]  

 cryst.   s( 2) = (     1          3          0      )
                  (     0         -1          0      )
                  (     0          0          1      )

 cart.    s( 2) = (  0.5000000  0.8660254  0.0000000 )
                  (  0.8660254 -0.5000000  0.0000000 )
                  (  0.0000000  0.0000000  1.0000000 )


   Cartesian axes

     site n.     atom                  positions (alat units)
         1           Zn  tau(   1) = (   0.1666667   0.0962250   0.2694007  )
         2           Zn  tau(   2) = (   0.0000000   0.1924501   0.0003409  )
         3           O   tau(   3) = (   0.1666667   0.0962250   0.4733710  )
         4           O   tau(   4) = (   0.0000000   0.1924501   0.2043113  )
         5           Zn  tau(   5) = (   0.5000000   0.0962250   0.2694007  )
         6           Zn  tau(   6) = (   0.3333333   0.1924501   0.0003409  )
         7           O   tau(   7) = (   0.5000000   0.0962250   0.4733710  )
         8           O   tau(   8) = (   0.3333333   0.1924501   0.2043113  )
         9           Zn  tau(   9) = (   0.8333333   0.0962250   0.2694007  )
        10           Zn  tau(  10) = (   0.6666667   0.1924501   0.0003409  )
        11           O   tau(  11) = (   0.8333333   0.0962250   0.4733710  )
        12           O   tau(  12) = (   0.6666667   0.1924501   0.2043113  )

   Crystallographic axes

     site n.     atom                  positions (cryst. coord.)
         1           Zn  tau(   1) = (  0.2222222  0.3333333  0.5006336  )
         2           Zn  tau(   2) = (  0.1111111  0.6666667  0.0006336  )
         3           O   tau(   3) = (  0.2222222  0.3333333  0.8796764  )
         4           O   tau(   4) = (  0.1111111  0.6666667  0.3796764  )
         5           Zn  tau(   5) = (  0.5555556  0.3333333  0.5006336  )
         6           Zn  tau(   6) = (  0.4444444  0.6666667  0.0006336  )
         7           O   tau(   7) = (  0.5555556  0.3333333  0.8796764  )
         8           O   tau(   8) = (  0.4444444  0.6666667  0.3796764  )
         9           Zn  tau(   9) = (  0.8888889  0.3333333  0.5006336  )
        10           Zn  tau(  10) = (  0.7777778  0.6666667  0.0006336  )
        11           O   tau(  11) = (  0.8888889  0.3333333  0.8796764  )
        12           O   tau(  12) = (  0.7777778  0.6666667  0.3796764  )

     number of k points=    26
                       cart. coord. in units 2pi/alat
        k(    1) = (   0.0000000   0.0000000   0.0000000), wk =   0.0277778
        k(    2) = (   0.0000000   0.0000000   0.3097206), wk =   0.0555556
        k(    3) = (   0.0000000   0.0000000   0.6194412), wk =   0.0555556
        k(    4) = (   0.0000000   0.0000000  -0.9291617), wk =   0.0277778
        k(    5) = (   0.0000000   0.5773503   0.0000000), wk =   0.1111111
        k(    6) = (   0.0000000   0.5773503   0.3097206), wk =   0.1111111
        k(    7) = (   0.0000000   0.5773503   0.6194412), wk =   0.1111111
        k(    8) = (   0.0000000   0.5773503  -0.9291617), wk =   0.1111111
        k(    9) = (   0.0000000   1.1547005   0.0000000), wk =   0.0555556
        k(   10) = (   0.0000000   1.1547005   0.3097206), wk =   0.1111111
        k(   11) = (   0.0000000   1.1547005   0.6194412), wk =   0.1111111
        k(   12) = (   0.0000000   1.1547005  -0.9291617), wk =   0.0555556
        k(   13) = (   0.0000000  -1.7320508   0.0000000), wk =   0.0555556
        k(   14) = (   0.0000000  -1.7320508   0.3097206), wk =   0.1111111
        k(   15) = (   0.0000000  -1.7320508   0.6194412), wk =   0.1111111
        k(   16) = (   0.0000000  -1.7320508  -0.9291617), wk =   0.0555556
        k(   17) = (  -0.5000000  -0.2886751   0.0000000), wk =   0.0277778
        k(   18) = (  -0.5000000  -0.2886751   0.3097206), wk =   0.0555556
        k(   19) = (  -0.5000000  -0.2886751   0.6194412), wk =   0.0555556
        k(   20) = (  -0.5000000  -0.2886751  -0.9291617), wk =   0.0277778
        k(   21) = (  -0.5000000   0.8660254   0.0000000), wk =   0.0555556
        k(   22) = (  -0.5000000   0.8660254   0.3097206), wk =   0.1111111
        k(   23) = (  -0.5000000   0.8660254   0.6194412), wk =   0.1111111
        k(   24) = (  -0.5000000   0.8660254  -0.9291617), wk =   0.0555556
        k(   25) = (   0.5000000  -0.2886751  -0.3097206), wk =   0.1111111
        k(   26) = (   0.5000000  -0.2886751  -0.6194412), wk =   0.1111111

                       cryst. coord.
        k(    1) = (   0.0000000   0.0000000   0.0000000), wk =   0.0277778
        k(    2) = (   0.0000000   0.0000000   0.1666667), wk =   0.0555556
        k(    3) = (   0.0000000   0.0000000   0.3333333), wk =   0.0555556
        k(    4) = (   0.0000000   0.0000000  -0.5000000), wk =   0.0277778
        k(    5) = (   0.0000000   0.1666667   0.0000000), wk =   0.1111111
        k(    6) = (   0.0000000   0.1666667   0.1666667), wk =   0.1111111
        k(    7) = (   0.0000000   0.1666667   0.3333333), wk =   0.1111111
        k(    8) = (   0.0000000   0.1666667  -0.5000000), wk =   0.1111111
        k(    9) = (   0.0000000   0.3333333   0.0000000), wk =   0.0555556
        k(   10) = (   0.0000000   0.3333333   0.1666667), wk =   0.1111111
        k(   11) = (   0.0000000   0.3333333   0.3333333), wk =   0.1111111
        k(   12) = (   0.0000000   0.3333333  -0.5000000), wk =   0.0555556
        k(   13) = (   0.0000000  -0.5000000   0.0000000), wk =   0.0555556
        k(   14) = (   0.0000000  -0.5000000   0.1666667), wk =   0.1111111
        k(   15) = (   0.0000000  -0.5000000   0.3333333), wk =   0.1111111
        k(   16) = (   0.0000000  -0.5000000  -0.5000000), wk =   0.0555556
        k(   17) = (  -0.5000000   0.0000000   0.0000000), wk =   0.0277778
        k(   18) = (  -0.5000000   0.0000000   0.1666667), wk =   0.0555556
        k(   19) = (  -0.5000000   0.0000000   0.3333333), wk =   0.0555556
        k(   20) = (  -0.5000000   0.0000000  -0.5000000), wk =   0.0277778
        k(   21) = (  -0.5000000   0.3333333   0.0000000), wk =   0.0555556
        k(   22) = (  -0.5000000   0.3333333   0.1666667), wk =   0.1111111
        k(   23) = (  -0.5000000   0.3333333   0.3333333), wk =   0.1111111
        k(   24) = (  -0.5000000   0.3333333  -0.5000000), wk =   0.0555556
        k(   25) = (   0.5000000  -0.1666667  -0.1666667), wk =   0.1111111
        k(   26) = (   0.5000000  -0.1666667  -0.3333333), wk =   0.1111111

     Dense  grid:   133647 G-vectors     FFT dimensions: ( 120,  40,  64)

     Smooth grid:    47209 G-vectors     FFT dimensions: (  90,  27,  45)

     Dynamical RAM for                 wfc:       0.61 MB

     Dynamical RAM for     wfc (w. buffer):       8.51 MB

     Dynamical RAM for           str. fact:       0.51 MB

     Dynamical RAM for           local pot:       0.00 MB

     Dynamical RAM for          nlocal pot:       1.76 MB

     Dynamical RAM for                qrad:       3.21 MB

     Dynamical RAM for          rho,v,vnew:       1.64 MB

     Dynamical RAM for               rhoin:       0.55 MB

     Dynamical RAM for            rho*nmix:       4.08 MB

     Dynamical RAM for           G-vectors:       1.00 MB

     Dynamical RAM for          h,s,v(r/c):       0.53 MB

     Dynamical RAM for          <psi|beta>:       0.13 MB

     Dynamical RAM for                 psi:       1.22 MB

     Dynamical RAM for                hpsi:       1.22 MB

     Dynamical RAM for                spsi:       1.22 MB

     Dynamical RAM for      wfcinit/wfcrot:       1.90 MB

     Dynamical RAM for           addusdens:      24.60 MB

     Dynamical RAM for          addusforce:      25.90 MB

     Estimated static dynamical RAM per process >      19.41 MB

     Estimated max dynamical RAM per process >      49.39 MB

     Estimated total dynamical RAM >     757.59 MB

     Check: negative core charge=   -0.000002

     Initial potential from superposition of free atoms

     starting charge     107.9776, renormalised to     108.0000
     Starting wfcs are   78 randomized atomic wfcs

     total cpu time spent up to now is        4.7 secs

     Self-consistent Calculation

     iteration #  1     ecut=    50.00 Ry     beta= 0.30
     Davidson diagonalization with overlap

---- Real-time Memory Report at c_bands before calling an iterative solver
            68 MiB given to the printing process from OS
             0 MiB allocation reported by mallinfo(arena+hblkhd)
         78961 MiB available memory on the node where the printing process lives
------------------
     ethr =  1.00E-02,  avg # of iterations =  2.0

     total cpu time spent up to now is        8.2 secs

     total energy              =   -1084.43799411 Ry
     estimated scf accuracy    <       2.07852747 Ry

     iteration #  2     ecut=    50.00 Ry     beta= 0.30
     Davidson diagonalization with overlap

---- Real-time Memory Report at c_bands before calling an iterative solver
            83 MiB given to the printing process from OS
             0 MiB allocation reported by mallinfo(arena+hblkhd)
         78804 MiB available memory on the node where the printing process lives
------------------
     ethr =  1.92E-03,  avg # of iterations =  2.1

     total cpu time spent up to now is       12.6 secs

     total energy              =   -1084.73296054 Ry
     estimated scf accuracy    <       0.26784124 Ry

     iteration #  3     ecut=    50.00 Ry     beta= 0.30
     Davidson diagonalization with overlap

---- Real-time Memory Report at c_bands before calling an iterative solver
            83 MiB given to the printing process from OS
             0 MiB allocation reported by mallinfo(arena+hblkhd)
         78803 MiB available memory on the node where the printing process lives
------------------
     ethr =  2.48E-04,  avg # of iterations =  6.5

     total cpu time spent up to now is       20.0 secs

     total energy              =   -1084.82709428 Ry
     estimated scf accuracy    <       0.18250655 Ry

     iteration #  4     ecut=    50.00 Ry     beta= 0.30
     Davidson diagonalization with overlap

---- Real-time Memory Report at c_bands before calling an iterative solver
            83 MiB given to the printing process from OS
             0 MiB allocation reported by mallinfo(arena+hblkhd)
         78815 MiB available memory on the node where the printing process lives
------------------
     ethr =  1.69E-04,  avg # of iterations =  8.8

     total cpu time spent up to now is       29.3 secs

     total energy              =   -1084.96282993 Ry
     estimated scf accuracy    <       0.80363702 Ry

     iteration #  5     ecut=    50.00 Ry     beta= 0.30
     Davidson diagonalization with overlap

---- Real-time Memory Report at c_bands before calling an iterative solver
            83 MiB given to the printing process from OS
             0 MiB allocation reported by mallinfo(arena+hblkhd)
         78816 MiB available memory on the node where the printing process lives
------------------
     ethr =  1.69E-04,  avg # of iterations =  2.0

     total cpu time spent up to now is       32.9 secs

     total energy              =   -1084.59598268 Ry
     estimated scf accuracy    <       0.47906097 Ry

     iteration #  6     ecut=    50.00 Ry     beta= 0.30
     Davidson diagonalization with overlap

---- Real-time Memory Report at c_bands before calling an iterative solver
            84 MiB given to the printing process from OS
             0 MiB allocation reported by mallinfo(arena+hblkhd)
         78816 MiB available memory on the node where the printing process lives
------------------
     ethr =  1.69E-04,  avg # of iterations = 10.6

     total cpu time spent up to now is       42.9 secs

     total energy              =   -1084.83337602 Ry
     estimated scf accuracy    <       1.33137085 Ry

     iteration #  7     ecut=    50.00 Ry     beta= 0.30
     Davidson diagonalization with overlap

---- Real-time Memory Report at c_bands before calling an iterative solver
            84 MiB given to the printing process from OS
             0 MiB allocation reported by mallinfo(arena+hblkhd)
         78816 MiB available memory on the node where the printing process lives
------------------
     ethr =  1.69E-04,  avg # of iterations =  5.0

     total cpu time spent up to now is       48.7 secs

     total energy              =   -1084.93625107 Ry
     estimated scf accuracy    <       0.18609178 Ry

     iteration #  8     ecut=    50.00 Ry     beta= 0.30
     Davidson diagonalization with overlap

---- Real-time Memory Report at c_bands before calling an iterative solver
            84 MiB given to the printing process from OS
             0 MiB allocation reported by mallinfo(arena+hblkhd)
         78816 MiB available memory on the node where the printing process lives
------------------
     ethr =  1.69E-04,  avg # of iterations =  1.3

     total cpu time spent up to now is       52.1 secs

     total energy              =   -1084.93060462 Ry
     estimated scf accuracy    <       0.17267167 Ry

     iteration #  9     ecut=    50.00 Ry     beta= 0.30
     Davidson diagonalization with overlap

---- Real-time Memory Report at c_bands before calling an iterative solver
            84 MiB given to the printing process from OS
             0 MiB allocation reported by mallinfo(arena+hblkhd)
         78816 MiB available memory on the node where the printing process lives
------------------
     ethr =  1.60E-04,  avg # of iterations =  1.3

     total cpu time spent up to now is       55.5 secs

     total energy              =   -1084.90035184 Ry
     estimated scf accuracy    <       0.14072773 Ry

     iteration # 10     ecut=    50.00 Ry     beta= 0.30
     Davidson diagonalization with overlap

---- Real-time Memory Report at c_bands before calling an iterative solver
            85 MiB given to the printing process from OS
             0 MiB allocation reported by mallinfo(arena+hblkhd)
         78816 MiB available memory on the node where the printing process lives
------------------
     ethr =  1.30E-04,  avg # of iterations =  1.9

     total cpu time spent up to now is       59.1 secs

     total energy              =   -1084.88441508 Ry
     estimated scf accuracy    <       0.06974072 Ry

     iteration # 11     ecut=    50.00 Ry     beta= 0.30
     Davidson diagonalization with overlap

---- Real-time Memory Report at c_bands before calling an iterative solver
            85 MiB given to the printing process from OS
             0 MiB allocation reported by mallinfo(arena+hblkhd)
         78816 MiB available memory on the node where the printing process lives
------------------
     ethr =  6.46E-05,  avg # of iterations =  4.8

     total cpu time spent up to now is       64.3 secs

     total energy              =   -1084.90957682 Ry
     estimated scf accuracy    <       0.00009035 Ry

     iteration # 12     ecut=    50.00 Ry     beta= 0.30
     Davidson diagonalization with overlap

---- Real-time Memory Report at c_bands before calling an iterative solver
            85 MiB given to the printing process from OS
             0 MiB allocation reported by mallinfo(arena+hblkhd)
         78815 MiB available memory on the node where the printing process lives
------------------
     c_bands:  1 eigenvalues not converged
     ethr =  8.37E-08,  avg # of iterations = 13.5

     total cpu time spent up to now is       77.6 secs

     total energy              =   -1084.91038587 Ry
     estimated scf accuracy    <       0.00240069 Ry

     iteration # 13     ecut=    50.00 Ry     beta= 0.30
     Davidson diagonalization with overlap

---- Real-time Memory Report at c_bands before calling an iterative solver
            85 MiB given to the printing process from OS
             0 MiB allocation reported by mallinfo(arena+hblkhd)
         78815 MiB available memory on the node where the printing process lives
------------------
     ethr =  8.37E-08,  avg # of iterations = 10.1

     total cpu time spent up to now is       88.0 secs

     total energy              =   -1084.91081755 Ry
     estimated scf accuracy    <       0.00008881 Ry

     iteration # 14     ecut=    50.00 Ry     beta= 0.30
     Davidson diagonalization with overlap

---- Real-time Memory Report at c_bands before calling an iterative solver
            85 MiB given to the printing process from OS
             0 MiB allocation reported by mallinfo(arena+hblkhd)
         78815 MiB available memory on the node where the printing process lives
------------------
     ethr =  8.22E-08,  avg # of iterations =  7.3

     total cpu time spent up to now is       95.6 secs

     total energy              =   -1084.91025012 Ry
     estimated scf accuracy    <       0.00082721 Ry

     iteration # 15     ecut=    50.00 Ry     beta= 0.30
     Davidson diagonalization with overlap

---- Real-time Memory Report at c_bands before calling an iterative solver
            85 MiB given to the printing process from OS
             0 MiB allocation reported by mallinfo(arena+hblkhd)
         78815 MiB available memory on the node where the printing process lives
------------------
     ethr =  8.22E-08,  avg # of iterations = 12.2

     total cpu time spent up to now is      108.2 secs

     total energy              =   -1084.91049670 Ry
     estimated scf accuracy    <       0.00155665 Ry

     iteration # 16     ecut=    50.00 Ry     beta= 0.30
     Davidson diagonalization with overlap

---- Real-time Memory Report at c_bands before calling an iterative solver
            85 MiB given to the printing process from OS
             0 MiB allocation reported by mallinfo(arena+hblkhd)
         78815 MiB available memory on the node where the printing process lives
------------------
     ethr =  8.22E-08,  avg # of iterations =  9.0

     total cpu time spent up to now is      117.6 secs

     total energy              =   -1084.91067859 Ry
     estimated scf accuracy    <       0.00007350 Ry

     iteration # 17     ecut=    50.00 Ry     beta= 0.30
     Davidson diagonalization with overlap

---- Real-time Memory Report at c_bands before calling an iterative solver
            85 MiB given to the printing process from OS
             0 MiB allocation reported by mallinfo(arena+hblkhd)
         78815 MiB available memory on the node where the printing process lives
------------------
     ethr =  6.81E-08,  avg # of iterations =  1.3

     total cpu time spent up to now is      121.0 secs

     total energy              =   -1084.91070262 Ry
     estimated scf accuracy    <       0.00007579 Ry

     iteration # 18     ecut=    50.00 Ry     beta= 0.30
     Davidson diagonalization with overlap

---- Real-time Memory Report at c_bands before calling an iterative solver
            85 MiB given to the printing process from OS
             0 MiB allocation reported by mallinfo(arena+hblkhd)
         78815 MiB available memory on the node where the printing process lives
------------------
     ethr =  6.81E-08,  avg # of iterations =  1.0

     total cpu time spent up to now is      124.3 secs

     total energy              =   -1084.91066163 Ry
     estimated scf accuracy    <       0.00012503 Ry

     iteration # 19     ecut=    50.00 Ry     beta= 0.30
     Davidson diagonalization with overlap

---- Real-time Memory Report at c_bands before calling an iterative solver
            85 MiB given to the printing process from OS
             0 MiB allocation reported by mallinfo(arena+hblkhd)
         78815 MiB available memory on the node where the printing process lives
------------------
     ethr =  6.81E-08,  avg # of iterations =  2.0

     total cpu time spent up to now is      127.9 secs

     total energy              =   -1084.91065022 Ry
     estimated scf accuracy    <       0.00005260 Ry

     iteration # 20     ecut=    50.00 Ry     beta= 0.30
     Davidson diagonalization with overlap

---- Real-time Memory Report at c_bands before calling an iterative solver
            85 MiB given to the printing process from OS
             0 MiB allocation reported by mallinfo(arena+hblkhd)
         78815 MiB available memory on the node where the printing process lives
------------------
     ethr =  4.87E-08,  avg # of iterations =  3.1

     total cpu time spent up to now is      132.2 secs

     total energy              =   -1084.91066231 Ry
     estimated scf accuracy    <       0.00001179 Ry

     iteration # 21     ecut=    50.00 Ry     beta= 0.30
     Davidson diagonalization with overlap

---- Real-time Memory Report at c_bands before calling an iterative solver
            85 MiB given to the printing process from OS
             0 MiB allocation reported by mallinfo(arena+hblkhd)
         78815 MiB available memory on the node where the printing process lives
------------------
     ethr =  1.09E-08,  avg # of iterations =  5.3

     total cpu time spent up to now is      137.2 secs

     total energy              =   -1084.91066626 Ry
     estimated scf accuracy    <       0.00000835 Ry

     iteration # 22     ecut=    50.00 Ry     beta= 0.30
     Davidson diagonalization with overlap

---- Real-time Memory Report at c_bands before calling an iterative solver
            85 MiB given to the printing process from OS
             0 MiB allocation reported by mallinfo(arena+hblkhd)
         78815 MiB available memory on the node where the printing process lives
------------------
     ethr =  7.73E-09,  avg # of iterations =  1.6

     total cpu time spent up to now is      140.6 secs

     total energy              =   -1084.91066684 Ry
     estimated scf accuracy    <       0.00001103 Ry

     iteration # 23     ecut=    50.00 Ry     beta= 0.30
     Davidson diagonalization with overlap

---- Real-time Memory Report at c_bands before calling an iterative solver
            85 MiB given to the printing process from OS
             0 MiB allocation reported by mallinfo(arena+hblkhd)
         78815 MiB available memory on the node where the printing process lives
------------------
     ethr =  7.73E-09,  avg # of iterations =  1.2

     total cpu time spent up to now is      144.0 secs

     total energy              =   -1084.91066477 Ry
     estimated scf accuracy    <       0.00001222 Ry

     iteration # 24     ecut=    50.00 Ry     beta= 0.30
     Davidson diagonalization with overlap

---- Real-time Memory Report at c_bands before calling an iterative solver
            85 MiB given to the printing process from OS
             0 MiB allocation reported by mallinfo(arena+hblkhd)
         78815 MiB available memory on the node where the printing process lives
------------------
     ethr =  7.73E-09,  avg # of iterations =  1.1

     total cpu time spent up to now is      147.3 secs

     total energy              =   -1084.91066104 Ry
     estimated scf accuracy    <       0.00000809 Ry

     iteration # 25     ecut=    50.00 Ry     beta= 0.30
     Davidson diagonalization with overlap

---- Real-time Memory Report at c_bands before calling an iterative solver
            85 MiB given to the printing process from OS
             0 MiB allocation reported by mallinfo(arena+hblkhd)
         78815 MiB available memory on the node where the printing process lives
------------------
     ethr =  7.49E-09,  avg # of iterations =  4.8

     total cpu time spent up to now is      152.6 secs

     total energy              =   -1084.91066396 Ry
     estimated scf accuracy    <       0.00000034 Ry

     iteration # 26     ecut=    50.00 Ry     beta= 0.30
     Davidson diagonalization with overlap

---- Real-time Memory Report at c_bands before calling an iterative solver
            85 MiB given to the printing process from OS
             0 MiB allocation reported by mallinfo(arena+hblkhd)
         78815 MiB available memory on the node where the printing process lives
------------------
     ethr =  3.17E-10,  avg # of iterations =  9.3

     total cpu time spent up to now is      162.7 secs

     total energy              =   -1084.91066238 Ry
     estimated scf accuracy    <       0.00000548 Ry

     iteration # 27     ecut=    50.00 Ry     beta= 0.30
     Davidson diagonalization with overlap

---- Real-time Memory Report at c_bands before calling an iterative solver
            85 MiB given to the printing process from OS
             0 MiB allocation reported by mallinfo(arena+hblkhd)
         78815 MiB available memory on the node where the printing process lives
------------------
     ethr =  3.17E-10,  avg # of iterations = 10.3

     total cpu time spent up to now is      173.6 secs

     total energy              =   -1084.91066448 Ry
     estimated scf accuracy    <       0.00000026 Ry

     iteration # 28     ecut=    50.00 Ry     beta= 0.30
     Davidson diagonalization with overlap

---- Real-time Memory Report at c_bands before calling an iterative solver
            85 MiB given to the printing process from OS
             0 MiB allocation reported by mallinfo(arena+hblkhd)
         78815 MiB available memory on the node where the printing process lives
------------------
     ethr =  2.40E-10,  avg # of iterations = 10.2

     total cpu time spent up to now is      183.5 secs

     total energy              =   -1084.91066524 Ry
     estimated scf accuracy    <       0.00000544 Ry

     iteration # 29     ecut=    50.00 Ry     beta= 0.30
     Davidson diagonalization with overlap

---- Real-time Memory Report at c_bands before calling an iterative solver
            85 MiB given to the printing process from OS
             0 MiB allocation reported by mallinfo(arena+hblkhd)
         78815 MiB available memory on the node where the printing process lives
------------------
     ethr =  2.40E-10,  avg # of iterations =  1.9

     total cpu time spent up to now is      187.0 secs

     total energy              =   -1084.91066563 Ry
     estimated scf accuracy    <       0.00000572 Ry

     iteration # 30     ecut=    50.00 Ry     beta= 0.30
     Davidson diagonalization with overlap

---- Real-time Memory Report at c_bands before calling an iterative solver
            85 MiB given to the printing process from OS
             0 MiB allocation reported by mallinfo(arena+hblkhd)
         78815 MiB available memory on the node where the printing process lives
------------------
     ethr =  2.40E-10,  avg # of iterations =  2.1

     total cpu time spent up to now is      190.8 secs

     total energy              =   -1084.91066302 Ry
     estimated scf accuracy    <       0.00000688 Ry

     iteration # 31     ecut=    50.00 Ry     beta= 0.30
     Davidson diagonalization with overlap

---- Real-time Memory Report at c_bands before calling an iterative solver
            85 MiB given to the printing process from OS
             0 MiB allocation reported by mallinfo(arena+hblkhd)
         78815 MiB available memory on the node where the printing process lives
------------------
     ethr =  2.40E-10,  avg # of iterations =  9.8

     total cpu time spent up to now is      200.9 secs

     total energy              =   -1084.91066362 Ry
     estimated scf accuracy    <       0.00000033 Ry

     iteration # 32     ecut=    50.00 Ry     beta= 0.30
     Davidson diagonalization with overlap

---- Real-time Memory Report at c_bands before calling an iterative solver
            85 MiB given to the printing process from OS
             0 MiB allocation reported by mallinfo(arena+hblkhd)
         78815 MiB available memory on the node where the printing process lives
------------------
     ethr =  2.40E-10,  avg # of iterations =  5.2

     total cpu time spent up to now is      206.1 secs

     total energy              =   -1084.91066370 Ry
     estimated scf accuracy    <       0.00000003 Ry

     iteration # 33     ecut=    50.00 Ry     beta= 0.30
     Davidson diagonalization with overlap

---- Real-time Memory Report at c_bands before calling an iterative solver
            85 MiB given to the printing process from OS
             0 MiB allocation reported by mallinfo(arena+hblkhd)
         78815 MiB available memory on the node where the printing process lives
------------------
     ethr =  2.89E-11,  avg # of iterations =  5.1

     total cpu time spent up to now is      212.1 secs

     total energy              =   -1084.91066373 Ry
     estimated scf accuracy    <       0.00000003 Ry

     iteration # 34     ecut=    50.00 Ry     beta= 0.30
     Davidson diagonalization with overlap

---- Real-time Memory Report at c_bands before calling an iterative solver
            85 MiB given to the printing process from OS
             0 MiB allocation reported by mallinfo(arena+hblkhd)
         78815 MiB available memory on the node where the printing process lives
------------------
     ethr =  2.44E-11,  avg # of iterations =  3.8

     total cpu time spent up to now is      216.5 secs

     total energy              =   -1084.91066372 Ry
     estimated scf accuracy    <       0.00000006 Ry

     iteration # 35     ecut=    50.00 Ry     beta= 0.30
     Davidson diagonalization with overlap

---- Real-time Memory Report at c_bands before calling an iterative solver
            85 MiB given to the printing process from OS
             0 MiB allocation reported by mallinfo(arena+hblkhd)
         78815 MiB available memory on the node where the printing process lives
------------------
     ethr =  2.44E-11,  avg # of iterations =  1.6

     total cpu time spent up to now is      219.9 secs

     total energy              =   -1084.91066371 Ry
     estimated scf accuracy    <       0.00000005 Ry

     iteration # 36     ecut=    50.00 Ry     beta= 0.30
     Davidson diagonalization with overlap

---- Real-time Memory Report at c_bands before calling an iterative solver
            85 MiB given to the printing process from OS
             0 MiB allocation reported by mallinfo(arena+hblkhd)
         78815 MiB available memory on the node where the printing process lives
------------------
     ethr =  2.44E-11,  avg # of iterations =  1.9

     total cpu time spent up to now is      223.6 secs

     total energy              =   -1084.91066371 Ry
     estimated scf accuracy    <       0.00000003 Ry

     iteration # 37     ecut=    50.00 Ry     beta= 0.30
     Davidson diagonalization with overlap

---- Real-time Memory Report at c_bands before calling an iterative solver
            85 MiB given to the printing process from OS
             0 MiB allocation reported by mallinfo(arena+hblkhd)
         78815 MiB available memory on the node where the printing process lives
------------------
     ethr =  2.44E-11,  avg # of iterations =  1.0

     total cpu time spent up to now is      226.8 secs

     total energy              =   -1084.91066371 Ry
     estimated scf accuracy    <       0.00000003 Ry

     iteration # 38     ecut=    50.00 Ry     beta= 0.30
     Davidson diagonalization with overlap

---- Real-time Memory Report at c_bands before calling an iterative solver
            85 MiB given to the printing process from OS
             0 MiB allocation reported by mallinfo(arena+hblkhd)
         78815 MiB available memory on the node where the printing process lives
------------------
     ethr =  2.44E-11,  avg # of iterations =  1.0

     total cpu time spent up to now is      230.1 secs

     total energy              =   -1084.91066370 Ry
     estimated scf accuracy    <       0.00000003 Ry

     iteration # 39     ecut=    50.00 Ry     beta= 0.30
     Davidson diagonalization with overlap

---- Real-time Memory Report at c_bands before calling an iterative solver
            85 MiB given to the printing process from OS
             0 MiB allocation reported by mallinfo(arena+hblkhd)
         78815 MiB available memory on the node where the printing process lives
------------------
     ethr =  2.44E-11,  avg # of iterations =  5.8

     total cpu time spent up to now is      236.3 secs

     total energy              =   -1084.91066370 Ry
     estimated scf accuracy    <       0.00000003 Ry

     iteration # 40     ecut=    50.00 Ry     beta= 0.30
     Davidson diagonalization with overlap

---- Real-time Memory Report at c_bands before calling an iterative solver
            85 MiB given to the printing process from OS
             0 MiB allocation reported by mallinfo(arena+hblkhd)
         78815 MiB available memory on the node where the printing process lives
------------------
     ethr =  2.44E-11,  avg # of iterations =  5.1

     total cpu time spent up to now is      242.2 secs

     End of self-consistent calculation

          k = 0.0000 0.0000 0.0000 (  5905 PWs)   bands (ev):

   -10.9986 -10.5472 -10.5471 -10.3184 -10.1577 -10.1576   1.0419   1.0419
     1.3159   1.3159   1.3565   1.3780   1.3780   1.4391   1.5014   1.5014
     1.5195   1.5196   1.7197   1.7197   1.9004   1.9005   2.0311   2.0312
     2.3484   2.3484   2.4282   2.4282   2.4988   2.4988   2.6248   2.6248
     2.6552   2.6552   2.8130   2.8131   2.8918   3.0837   3.0837   3.7940
     3.7940   4.6506   4.6506   5.0971   5.0972   6.0929   6.0930   6.1250
     6.1250   6.3014   6.3015   6.8048   6.8872   6.8872

     occupation numbers 
     1.0000   1.0000   1.0000   1.0000   1.0000   1.0000   1.0000   1.0000
     1.0000   1.0000   1.0000   1.0000   1.0000   1.0000   1.0000   1.0000
     1.0000   1.0000   1.0000   1.0000   1.0000   1.0000   1.0000   1.0000
     1.0000   1.0000   1.0000   1.0000   1.0000   1.0000   1.0000   1.0000
     1.0000   1.0000   1.0000   1.0000   1.0000   1.0000   1.0000   1.0000
     1.0000   1.0000   1.0000   1.0000   1.0000   1.0000   1.0000   1.0000
     1.0000   1.0000   1.0000   1.0000   1.0000   1.0000

          k = 0.0000 0.0000 0.3097 (  5867 PWs)   bands (ev):

   -10.9553 -10.5203 -10.5202 -10.3663 -10.1827 -10.1826   1.0113   1.0113
     1.2877   1.2878   1.3101   1.3168   1.3225   1.3225   1.4826   1.4826
     1.5394   1.5395   1.6945   1.6945   1.8679   1.8679   1.8969   1.8969
     2.3853   2.3853   2.4460   2.4460   2.5083   2.5083   2.6172   2.6172
     2.6425   2.6425   2.7606   2.7607   3.2007   3.3423   3.3423   3.9351
     3.9351   4.6228   4.6228   5.1854   5.1855   6.1083   6.1084   6.1771
     6.1771   6.2253   6.2254   6.2429   6.8373   6.8373

     occupation numbers 
     1.0000   1.0000   1.0000   1.0000   1.0000   1.0000   1.0000   1.0000
     1.0000   1.0000   1.0000   1.0000   1.0000   1.0000   1.0000   1.0000
     1.0000   1.0000   1.0000   1.0000   1.0000   1.0000   1.0000   1.0000
     1.0000   1.0000   1.0000   1.0000   1.0000   1.0000   1.0000   1.0000
     1.0000   1.0000   1.0000   1.0000   1.0000   1.0000   1.0000   1.0000
     1.0000   1.0000   1.0000   1.0000   1.0000   1.0000   1.0000   1.0000
     1.0000   1.0000   1.0000   1.0000   1.0000   1.0000

          k = 0.0000 0.0000 0.6194 (  5886 PWs)   bands (ev):

   -10.8353 -10.4953 -10.4474 -10.4472 -10.2522 -10.2521   0.9558   0.9558
     1.0906   1.0906   1.1613   1.2062   1.3450   1.3450   1.4365   1.4365
     1.5966   1.5967   1.6673   1.6673   1.7583   1.7583   1.7846   1.7846
     2.4787   2.4787   2.4918   2.4918   2.5339   2.5339   2.5918   2.5918
     2.6096   2.6097   2.6819   2.6820   3.6415   3.6415   3.8752   4.0472
     4.0473   4.9083   4.9083   5.4184   5.4185   5.4565   5.9791   5.9792
     6.0153   6.0154   6.3188   6.3188   6.7002   6.7002

     occupation numbers 
     1.0000   1.0000   1.0000   1.0000   1.0000   1.0000   1.0000   1.0000
     1.0000   1.0000   1.0000   1.0000   1.0000   1.0000   1.0000   1.0000
     1.0000   1.0000   1.0000   1.0000   1.0000   1.0000   1.0000   1.0000
     1.0000   1.0000   1.0000   1.0000   1.0000   1.0000   1.0000   1.0000
     1.0000   1.0000   1.0000   1.0000   1.0000   1.0000   1.0000   1.0000
     1.0000   1.0000   1.0000   1.0000   1.0000   1.0000   1.0000   1.0000
     1.0000   1.0000   1.0000   1.0000   1.0000   1.0000

          k = 0.0000 0.0000-0.9292 (  5890 PWs)   bands (ev):

   -10.6677 -10.6676 -10.3489 -10.3488 -10.3488 -10.3487   0.9619   0.9619
     0.9620   0.9620   1.1297   1.1297   1.3852   1.3852   1.3852   1.3852
     1.6841   1.6841   1.6841   1.6842   1.6874   1.6874   1.6874   1.6874
     2.5468   2.5468   2.5469   2.5469   2.5702   2.5702   2.5702   2.5702
     2.5851   2.5851   2.5851   2.5851   3.8757   3.8757   3.8757   3.8757
     4.6600   4.6600   5.5302   5.5302   5.5302   5.5302   5.7222   5.7223
     5.7223   5.7224   6.5107   6.5107   6.5107   6.5107

     occupation numbers 
     1.0000   1.0000   1.0000   1.0000   1.0000   1.0000   1.0000   1.0000
     1.0000   1.0000   1.0000   1.0000   1.0000   1.0000   1.0000   1.0000
     1.0000   1.0000   1.0000   1.0000   1.0000   1.0000   1.0000   1.0000
     1.0000   1.0000   1.0000   1.0000   1.0000   1.0000   1.0000   1.0000
     1.0000   1.0000   1.0000   1.0000   1.0000   1.0000   1.0000   1.0000
     1.0000   1.0000   1.0000   1.0000   1.0000   1.0000   1.0000   1.0000
     1.0000   1.0000   1.0000   1.0000   1.0000   1.0000

          k = 0.0000 0.5774 0.0000 (  5897 PWs)   bands (ev):

   -10.8595 -10.6324 -10.3569 -10.2583 -10.1784 -10.1369   1.1447   1.1787
     1.2097   1.3347   1.3939   1.4175   1.4529   1.4978   1.5272   1.5839
     1.5845   1.6182   1.6646   1.7926   1.8373   1.9687   2.0460   2.1149
     2.3226   2.3719   2.4055   2.4269   2.4473   2.4731   2.6359   2.6485
     2.6836   2.7479   2.8198   2.8614   2.8732   3.0203   3.0746   3.6812
     4.1030   4.4219   4.4226   4.6353   5.2256   5.2289   5.6134   5.7793
     5.7884   5.7974   6.2535   6.2862   6.6254   6.7029

     occupation numbers 
     1.0000   1.0000   1.0000   1.0000   1.0000   1.0000   1.0000   1.0000
     1.0000   1.0000   1.0000   1.0000   1.0000   1.0000   1.0000   1.0000
     1.0000   1.0000   1.0000   1.0000   1.0000   1.0000   1.0000   1.0000
     1.0000   1.0000   1.0000   1.0000   1.0000   1.0000   1.0000   1.0000
     1.0000   1.0000   1.0000   1.0000   1.0000   1.0000   1.0000   1.0000
     1.0000   1.0000   1.0000   1.0000   1.0000   1.0000   1.0000   1.0000
     1.0000   1.0000   1.0000   1.0000   1.0000   1.0000

          k = 0.0000 0.5774 0.3097 (  5895 PWs)   bands (ev):

   -10.8205 -10.6017 -10.3403 -10.2998 -10.2083 -10.1497   1.1085   1.1495
     1.1780   1.2850   1.3367   1.3762   1.4034   1.4548   1.5188   1.5573
     1.5636   1.5904   1.5968   1.7730   1.8091   1.8094   1.9824   2.0290
     2.3643   2.4014   2.4172   2.4440   2.4789   2.5393   2.6256   2.6364
     2.6725   2.6804   2.7501   2.8696   3.1154   3.2560   3.3752   3.6970
     4.2091   4.5550   4.6100   4.6167   5.2327   5.2749   5.5971   5.6314
     5.7985   5.8518   6.1731   6.2737   6.5471   6.6434

     occupation numbers 
     1.0000   1.0000   1.0000   1.0000   1.0000   1.0000   1.0000   1.0000
     1.0000   1.0000   1.0000   1.0000   1.0000   1.0000   1.0000   1.0000
     1.0000   1.0000   1.0000   1.0000   1.0000   1.0000   1.0000   1.0000
     1.0000   1.0000   1.0000   1.0000   1.0000   1.0000   1.0000   1.0000
     1.0000   1.0000   1.0000   1.0000   1.0000   1.0000   1.0000   1.0000
     1.0000   1.0000   1.0000   1.0000   1.0000   1.0000   1.0000   1.0000
     1.0000   1.0000   1.0000   1.0000   1.0000   1.0000

          k = 0.0000 0.5774 0.6194 (  5905 PWs)   bands (ev):

   -10.7130 -10.5180 -10.4122 -10.2963 -10.2906 -10.1860   1.0367   1.0820
     1.1037   1.1267   1.1442   1.1967   1.4331   1.4425   1.5169   1.5220
     1.5381   1.5437   1.5839   1.6852   1.7338   1.7417   1.8903   1.9133
     2.4609   2.4695   2.4884   2.4958   2.5183   2.5677   2.5935   2.6056
     2.6172   2.6725   2.6913   2.8116   3.2567   3.5915   3.8659   3.9342
     4.4656   4.5349   4.9824   5.0816   5.1228   5.3663   5.3812   5.5973
     5.8446   5.9569   6.0233   6.0903   6.2836   6.4799

     occupation numbers 
     1.0000   1.0000   1.0000   1.0000   1.0000   1.0000   1.0000   1.0000
     1.0000   1.0000   1.0000   1.0000   1.0000   1.0000   1.0000   1.0000
     1.0000   1.0000   1.0000   1.0000   1.0000   1.0000   1.0000   1.0000
     1.0000   1.0000   1.0000   1.0000   1.0000   1.0000   1.0000   1.0000
     1.0000   1.0000   1.0000   1.0000   1.0000   1.0000   1.0000   1.0000
     1.0000   1.0000   1.0000   1.0000   1.0000   1.0000   1.0000   1.0000
     1.0000   1.0000   1.0000   1.0000   1.0000   1.0000

          k = 0.0000 0.5774-0.9292 (  5908 PWs)   bands (ev):

   -10.5639 -10.5638 -10.4041 -10.4039 -10.2393 -10.2392   1.0208   1.0208
     1.0548   1.0549   1.0856   1.0856   1.4697   1.4697   1.4827   1.4827
     1.5328   1.5328   1.6623   1.6623   1.6781   1.6781   1.8597   1.8597
     2.5440   2.5440   2.5485   2.5485   2.5519   2.5519   2.5532   2.5532
     2.5835   2.5835   2.7390   2.7390   3.4274   3.4275   4.2134   4.2134
     4.6007   4.6007   4.9298   4.9298   5.5299   5.5300   5.6421   5.6422
     5.7235   5.7235   5.9118   5.9119   6.2535   6.2536

     occupation numbers 
     1.0000   1.0000   1.0000   1.0000   1.0000   1.0000   1.0000   1.0000
     1.0000   1.0000   1.0000   1.0000   1.0000   1.0000   1.0000   1.0000
     1.0000   1.0000   1.0000   1.0000   1.0000   1.0000   1.0000   1.0000
     1.0000   1.0000   1.0000   1.0000   1.0000   1.0000   1.0000   1.0000
     1.0000   1.0000   1.0000   1.0000   1.0000   1.0000   1.0000   1.0000
     1.0000   1.0000   1.0000   1.0000   1.0000   1.0000   1.0000   1.0000
     1.0000   1.0000   1.0000   1.0000   1.0000   1.0000

          k = 0.0000 1.1547 0.0000 (  5927 PWs)   bands (ev):

   -10.5472 -10.5471 -10.1945 -10.1944 -10.1577 -10.1576   1.0419   1.0419
     1.2800   1.3780   1.3780   1.5195   1.5195   1.6687   1.6688   1.7197
     1.7197   1.9005   1.9005   2.0258   2.0312   2.0312   2.2690   2.2690
     2.3484   2.3484   2.3628   2.4858   2.4988   2.4988   2.5315   2.5315
     2.6552   2.6552   2.8130   2.8131   3.0837   3.0837   3.2410   3.4119
     3.4119   3.7940   3.7941   4.6506   4.6506   5.0282   5.0282   5.0971
     5.0971   5.2181   6.0929   6.0930   6.3015   6.3015

     occupation numbers 
     1.0000   1.0000   1.0000   1.0000   1.0000   1.0000   1.0000   1.0000
     1.0000   1.0000   1.0000   1.0000   1.0000   1.0000   1.0000   1.0000
     1.0000   1.0000   1.0000   1.0000   1.0000   1.0000   1.0000   1.0000
     1.0000   1.0000   1.0000   1.0000   1.0000   1.0000   1.0000   1.0000
     1.0000   1.0000   1.0000   1.0000   1.0000   1.0000   1.0000   1.0000
     1.0000   1.0000   1.0000   1.0000   1.0000   1.0000   1.0000   1.0000
     1.0000   1.0000   1.0000   1.0000   1.0000   1.0000

          k = 0.0000 1.1547 0.3097 (  5889 PWs)   bands (ev):

   -10.5203 -10.5202 -10.1922 -10.1921 -10.1827 -10.1826   1.0113   1.0113
     1.2878   1.2878   1.3081   1.5394   1.5395   1.5787   1.5787   1.6945
     1.6945   1.8679   1.8679   1.8969   1.8969   1.9186   2.1585   2.1585
     2.3793   2.3853   2.3853   2.4792   2.5083   2.5083   2.6425   2.6425
     2.6812   2.6812   2.7606   2.7607   3.3423   3.3424   3.3685   3.3685
     3.4090   3.9351   3.9351   4.6228   4.6228   5.0892   5.1855   5.1855
     5.1981   5.1981   6.1083   6.1084   6.2253   6.2253

     occupation numbers 
     1.0000   1.0000   1.0000   1.0000   1.0000   1.0000   1.0000   1.0000
     1.0000   1.0000   1.0000   1.0000   1.0000   1.0000   1.0000   1.0000
     1.0000   1.0000   1.0000   1.0000   1.0000   1.0000   1.0000   1.0000
     1.0000   1.0000   1.0000   1.0000   1.0000   1.0000   1.0000   1.0000
     1.0000   1.0000   1.0000   1.0000   1.0000   1.0000   1.0000   1.0000
     1.0000   1.0000   1.0000   1.0000   1.0000   1.0000   1.0000   1.0000
     1.0000   1.0000   1.0000   1.0000   1.0000   1.0000

          k = 0.0000 1.1547 0.6194 (  5909 PWs)   bands (ev):

   -10.4473 -10.4472 -10.2522 -10.2521 -10.1874 -10.1873   0.9558   0.9558
     1.0906   1.0906   1.3916   1.4030   1.4031   1.5966   1.5967   1.6673
     1.6673   1.7170   1.7583   1.7583   1.7846   1.7846   2.0770   2.0771
     2.4065   2.4607   2.4787   2.4787   2.5339   2.5339   2.6097   2.6097
     2.6819   2.6820   2.8530   2.8530   3.2872   3.2872   3.6414   3.6415
     3.8035   4.0472   4.0473   4.7451   4.9083   4.9083   5.4184   5.4184
     5.5232   5.5233   5.9791   5.9792   6.0153   6.0153

     occupation numbers 
     1.0000   1.0000   1.0000   1.0000   1.0000   1.0000   1.0000   1.0000
     1.0000   1.0000   1.0000   1.0000   1.0000   1.0000   1.0000   1.0000
     1.0000   1.0000   1.0000   1.0000   1.0000   1.0000   1.0000   1.0000
     1.0000   1.0000   1.0000   1.0000   1.0000   1.0000   1.0000   1.0000
     1.0000   1.0000   1.0000   1.0000   1.0000   1.0000   1.0000   1.0000
     1.0000   1.0000   1.0000   1.0000   1.0000   1.0000   1.0000   1.0000
     1.0000   1.0000   1.0000   1.0000   1.0000   1.0000

          k = 0.0000 1.1547-0.9292 (  5928 PWs)   bands (ev):

   -10.3489 -10.3488 -10.3488 -10.3487 -10.1851 -10.1850   0.9619   0.9619
     0.9620   0.9620   1.3211   1.3211   1.5305   1.5305   1.6841   1.6841
     1.6841   1.6841   1.6874   1.6874   1.6874   1.6874   2.0556   2.0556
     2.4346   2.4346   2.5702   2.5702   2.5702   2.5702   2.5851   2.5851
     2.5851   2.5851   2.9255   2.9255   3.2429   3.2429   3.8757   3.8757
     3.8757   3.8757   4.2826   4.2826   5.5301   5.5302   5.5302   5.5303
     5.6816   5.6817   5.7222   5.7223   5.7223   5.7223

     occupation numbers 
     1.0000   1.0000   1.0000   1.0000   1.0000   1.0000   1.0000   1.0000
     1.0000   1.0000   1.0000   1.0000   1.0000   1.0000   1.0000   1.0000
     1.0000   1.0000   1.0000   1.0000   1.0000   1.0000   1.0000   1.0000
     1.0000   1.0000   1.0000   1.0000   1.0000   1.0000   1.0000   1.0000
     1.0000   1.0000   1.0000   1.0000   1.0000   1.0000   1.0000   1.0000
     1.0000   1.0000   1.0000   1.0000   1.0000   1.0000   1.0000   1.0000
     1.0000   1.0000   1.0000   1.0000   1.0000   1.0000

          k = 0.0000-1.7321 0.0000 (  5910 PWs)   bands (ev):

   -10.3569 -10.3569 -10.3495 -10.1409 -10.1369 -10.1369   1.1141   1.2097
     1.2098   1.3229   1.4529   1.4529   1.5609   1.5839   1.5839   1.7926
     1.7926   1.9413   1.9538   2.0460   2.0460   2.0753   2.1148   2.1149
     2.4055   2.4055   2.4642   2.4731   2.4731   2.5909   2.6706   2.6836
     2.6836   2.7418   2.8732   2.8732   3.0746   3.0746   3.2047   3.4267
     3.6812   3.6813   4.1029   4.1030   4.1405   4.4219   4.4220   4.7138
     5.6134   5.6134   5.6401   5.7974   5.7974   6.0829

     occupation numbers 
     1.0000   1.0000   1.0000   1.0000   1.0000   1.0000   1.0000   1.0000
     1.0000   1.0000   1.0000   1.0000   1.0000   1.0000   1.0000   1.0000
     1.0000   1.0000   1.0000   1.0000   1.0000   1.0000   1.0000   1.0000
     1.0000   1.0000   1.0000   1.0000   1.0000   1.0000   1.0000   1.0000
     1.0000   1.0000   1.0000   1.0000   1.0000   1.0000   1.0000   1.0000
     1.0000   1.0000   1.0000   1.0000   1.0000   1.0000   1.0000   1.0000
     1.0000   1.0000   1.0000   1.0000   1.0000   1.0000

          k = 0.0000-1.7321 0.3097 (  5936 PWs)   bands (ev):

   -10.3403 -10.3403 -10.3336 -10.1528 -10.1497 -10.1496   1.0697   1.1780
     1.1780   1.2254   1.3762   1.3762   1.5636   1.5636   1.5871   1.7729
     1.7730   1.9132   1.9195   1.9824   1.9824   2.0290   2.0290   2.0307
     2.4172   2.4172   2.5267   2.5393   2.5393   2.5930   2.6574   2.6804
     2.6804   2.7411   2.8696   2.8696   3.1153   3.1154   3.1660   3.3761
     3.6970   3.6971   4.2090   4.2091   4.4236   4.6167   4.6167   4.8199
     5.5971   5.5971   5.7266   5.7985   5.7985   5.9985

     occupation numbers 
     1.0000   1.0000   1.0000   1.0000   1.0000   1.0000   1.0000   1.0000
     1.0000   1.0000   1.0000   1.0000   1.0000   1.0000   1.0000   1.0000
     1.0000   1.0000   1.0000   1.0000   1.0000   1.0000   1.0000   1.0000
     1.0000   1.0000   1.0000   1.0000   1.0000   1.0000   1.0000   1.0000
     1.0000   1.0000   1.0000   1.0000   1.0000   1.0000   1.0000   1.0000
     1.0000   1.0000   1.0000   1.0000   1.0000   1.0000   1.0000   1.0000
     1.0000   1.0000   1.0000   1.0000   1.0000   1.0000

          k = 0.0000-1.7321 0.6194 (  5928 PWs)   bands (ev):

   -10.2964 -10.2963 -10.2916 -10.1870 -10.1861 -10.1860   0.9825   1.0470
     1.1037   1.1038   1.1967   1.1967   1.5839   1.5839   1.6641   1.7338
     1.7338   1.8687   1.8803   1.8903   1.8903   1.9133   1.9133   1.9177
     2.4958   2.4958   2.5677   2.5677   2.6003   2.6268   2.6330   2.6913
     2.6913   2.7318   2.8116   2.8116   3.1456   3.2567   3.2567   3.2753
     3.5915   3.5916   4.5349   4.5349   5.0140   5.0816   5.0816   5.0926
     5.3812   5.3813   5.7658   5.7925   5.8446   5.8446

     occupation numbers 
     1.0000   1.0000   1.0000   1.0000   1.0000   1.0000   1.0000   1.0000
     1.0000   1.0000   1.0000   1.0000   1.0000   1.0000   1.0000   1.0000
     1.0000   1.0000   1.0000   1.0000   1.0000   1.0000   1.0000   1.0000
     1.0000   1.0000   1.0000   1.0000   1.0000   1.0000   1.0000   1.0000
     1.0000   1.0000   1.0000   1.0000   1.0000   1.0000   1.0000   1.0000
     1.0000   1.0000   1.0000   1.0000   1.0000   1.0000   1.0000   1.0000
     1.0000   1.0000   1.0000   1.0000   1.0000   1.0000

          k = 0.0000-1.7321-0.9292 (  5916 PWs)   bands (ev):

   -10.2394 -10.2393 -10.2393 -10.2392 -10.2374 -10.2373   0.9526   0.9526
     1.0856   1.0856   1.0856   1.0856   1.6623   1.6623   1.6623   1.6623
     1.7820   1.7820   1.8586   1.8586   1.8597   1.8597   1.8597   1.8597
     2.5532   2.5532   2.5532   2.5532   2.6133   2.6133   2.6978   2.6978
     2.7390   2.7390   2.7390   2.7390   3.1877   3.1877   3.4274   3.4275
     3.4275   3.4275   4.9297   4.9298   4.9298   4.9299   5.4383   5.4384
     5.5538   5.5538   5.6421   5.6421   5.6422   5.6422

     occupation numbers 
     1.0000   1.0000   1.0000   1.0000   1.0000   1.0000   1.0000   1.0000
     1.0000   1.0000   1.0000   1.0000   1.0000   1.0000   1.0000   1.0000
     1.0000   1.0000   1.0000   1.0000   1.0000   1.0000   1.0000   1.0000
     1.0000   1.0000   1.0000   1.0000   1.0000   1.0000   1.0000   1.0000
     1.0000   1.0000   1.0000   1.0000   1.0000   1.0000   1.0000   1.0000
     1.0000   1.0000   1.0000   1.0000   1.0000   1.0000   1.0000   1.0000
     1.0000   1.0000   1.0000   1.0000   1.0000   1.0000

          k =-0.5000-0.2887 0.0000 (  5862 PWs)   bands (ev):

   -10.8596 -10.8595 -10.3495 -10.2583 -10.2582 -10.1409   1.1141   1.1786
     1.1787   1.3229   1.3938   1.3939   1.4174   1.4175   1.4977   1.4978
     1.5609   1.6181   1.6182   1.6646   1.6647   1.9413   1.9538   2.0753
     2.3719   2.3719   2.4269   2.4270   2.4642   2.5909   2.6358   2.6359
     2.6706   2.7418   2.7479   2.7480   2.8613   2.8614   3.2047   3.4267
     4.1405   4.7138   5.2256   5.2256   5.6401   5.7793   5.7793   5.7883
     5.7884   6.0829   6.6254   6.6255   6.7028   6.7029

     occupation numbers 
     1.0000   1.0000   1.0000   1.0000   1.0000   1.0000   1.0000   1.0000
     1.0000   1.0000   1.0000   1.0000   1.0000   1.0000   1.0000   1.0000
     1.0000   1.0000   1.0000   1.0000   1.0000   1.0000   1.0000   1.0000
     1.0000   1.0000   1.0000   1.0000   1.0000   1.0000   1.0000   1.0000
     1.0000   1.0000   1.0000   1.0000   1.0000   1.0000   1.0000   1.0000
     1.0000   1.0000   1.0000   1.0000   1.0000   1.0000   1.0000   1.0000
     1.0000   1.0000   1.0000   1.0000   1.0000   1.0000

          k =-0.5000-0.2887 0.3097 (  5870 PWs)   bands (ev):

   -10.8205 -10.8204 -10.3336 -10.2998 -10.2997 -10.1528   1.0697   1.1495
     1.1496   1.2254   1.3367   1.3367   1.4034   1.4035   1.4548   1.4548
     1.5871   1.5904   1.5904   1.5968   1.5969   1.9132   1.9195   2.0307
     2.4014   2.4014   2.4440   2.4441   2.5267   2.5930   2.6255   2.6256
     2.6574   2.6724   2.6725   2.7411   3.1660   3.2559   3.2560   3.3761
     4.4236   4.8199   5.2749   5.2750   5.6313   5.6314   5.7266   5.8518
     5.8519   5.9985   6.5471   6.5471   6.6434   6.6435

     occupation numbers 
     1.0000   1.0000   1.0000   1.0000   1.0000   1.0000   1.0000   1.0000
     1.0000   1.0000   1.0000   1.0000   1.0000   1.0000   1.0000   1.0000
     1.0000   1.0000   1.0000   1.0000   1.0000   1.0000   1.0000   1.0000
     1.0000   1.0000   1.0000   1.0000   1.0000   1.0000   1.0000   1.0000
     1.0000   1.0000   1.0000   1.0000   1.0000   1.0000   1.0000   1.0000
     1.0000   1.0000   1.0000   1.0000   1.0000   1.0000   1.0000   1.0000
     1.0000   1.0000   1.0000   1.0000   1.0000   1.0000

          k =-0.5000-0.2887 0.6194 (  5898 PWs)   bands (ev):

   -10.7130 -10.7129 -10.4123 -10.4122 -10.2916 -10.1870   0.9825   1.0470
     1.0820   1.0820   1.1442   1.1442   1.4331   1.4331   1.4425   1.4425
     1.5220   1.5220   1.5437   1.5437   1.6641   1.8687   1.8803   1.9177
     2.4695   2.4696   2.4884   2.4885   2.5935   2.5935   2.6003   2.6172
     2.6172   2.6268   2.6330   2.7318   3.1456   3.2753   3.9342   3.9342
     5.0140   5.0926   5.1228   5.1228   5.5973   5.5973   5.7658   5.7925
     6.0233   6.0234   6.2836   6.2836   6.4799   6.4800

     occupation numbers 
     1.0000   1.0000   1.0000   1.0000   1.0000   1.0000   1.0000   1.0000
     1.0000   1.0000   1.0000   1.0000   1.0000   1.0000   1.0000   1.0000
     1.0000   1.0000   1.0000   1.0000   1.0000   1.0000   1.0000   1.0000
     1.0000   1.0000   1.0000   1.0000   1.0000   1.0000   1.0000   1.0000
     1.0000   1.0000   1.0000   1.0000   1.0000   1.0000   1.0000   1.0000
     1.0000   1.0000   1.0000   1.0000   1.0000   1.0000   1.0000   1.0000
     1.0000   1.0000   1.0000   1.0000   1.0000   1.0000

          k =-0.5000-0.2887-0.9292 (  5900 PWs)   bands (ev):

   -10.5639 -10.5638 -10.5638 -10.5637 -10.2374 -10.2373   0.9526   0.9526
     1.0548   1.0548   1.0549   1.0549   1.4697   1.4697   1.4697   1.4697
     1.4826   1.4826   1.4827   1.4827   1.7820   1.7820   1.8586   1.8586
     2.5440   2.5440   2.5441   2.5441   2.5485   2.5485   2.5486   2.5486
     2.6133   2.6133   2.6978   2.6978   3.1877   3.1877   4.6006   4.6007
     4.6007   4.6007   5.4383   5.4384   5.5538   5.5538   5.9118   5.9118
     5.9118   5.9119   6.2535   6.2536   6.2536   6.2537

     occupation numbers 
     1.0000   1.0000   1.0000   1.0000   1.0000   1.0000   1.0000   1.0000
     1.0000   1.0000   1.0000   1.0000   1.0000   1.0000   1.0000   1.0000
     1.0000   1.0000   1.0000   1.0000   1.0000   1.0000   1.0000   1.0000
     1.0000   1.0000   1.0000   1.0000   1.0000   1.0000   1.0000   1.0000
     1.0000   1.0000   1.0000   1.0000   1.0000   1.0000   1.0000   1.0000
     1.0000   1.0000   1.0000   1.0000   1.0000   1.0000   1.0000   1.0000
     1.0000   1.0000   1.0000   1.0000   1.0000   1.0000

          k =-0.5000 0.8660 0.0000 (  5921 PWs)   bands (ev):

   -10.6324 -10.3569 -10.3568 -10.1784 -10.1370 -10.1369   1.1447   1.2097
     1.2097   1.3347   1.4529   1.4529   1.5272   1.5839   1.5839   1.5845
     1.7926   1.7926   1.8373   1.9687   2.0460   2.0460   2.1149   2.1149
     2.3226   2.4055   2.4055   2.4473   2.4731   2.4731   2.6485   2.6836
     2.6836   2.8198   2.8732   2.8732   3.0203   3.0746   3.0746   3.6812
     3.6813   4.1029   4.1030   4.4219   4.4220   4.4226   4.6353   5.2289
     5.6134   5.6134   5.7974   5.7974   6.2535   6.2862

     occupation numbers 
     1.0000   1.0000   1.0000   1.0000   1.0000   1.0000   1.0000   1.0000
     1.0000   1.0000   1.0000   1.0000   1.0000   1.0000   1.0000   1.0000
     1.0000   1.0000   1.0000   1.0000   1.0000   1.0000   1.0000   1.0000
     1.0000   1.0000   1.0000   1.0000   1.0000   1.0000   1.0000   1.0000
     1.0000   1.0000   1.0000   1.0000   1.0000   1.0000   1.0000   1.0000
     1.0000   1.0000   1.0000   1.0000   1.0000   1.0000   1.0000   1.0000
     1.0000   1.0000   1.0000   1.0000   1.0000   1.0000

          k =-0.5000 0.8660 0.3097 (  5928 PWs)   bands (ev):

   -10.6017 -10.3404 -10.3403 -10.2083 -10.1497 -10.1496   1.1085   1.1780
     1.1780   1.2850   1.3762   1.3762   1.5188   1.5573   1.5636   1.5636
     1.7729   1.7730   1.8091   1.8094   1.9824   1.9824   2.0290   2.0290
     2.3643   2.4172   2.4172   2.4789   2.5393   2.5393   2.6364   2.6804
     2.6804   2.7501   2.8696   2.8697   3.1153   3.1154   3.3752   3.6970
     3.6971   4.2090   4.2091   4.5550   4.6100   4.6167   4.6167   5.2327
     5.5971   5.5971   5.7985   5.7985   6.1731   6.2737

     occupation numbers 
     1.0000   1.0000   1.0000   1.0000   1.0000   1.0000   1.0000   1.0000
     1.0000   1.0000   1.0000   1.0000   1.0000   1.0000   1.0000   1.0000
     1.0000   1.0000   1.0000   1.0000   1.0000   1.0000   1.0000   1.0000
     1.0000   1.0000   1.0000   1.0000   1.0000   1.0000   1.0000   1.0000
     1.0000   1.0000   1.0000   1.0000   1.0000   1.0000   1.0000   1.0000
     1.0000   1.0000   1.0000   1.0000   1.0000   1.0000   1.0000   1.0000
     1.0000   1.0000   1.0000   1.0000   1.0000   1.0000

          k =-0.5000 0.8660 0.6194 (  5920 PWs)   bands (ev):

   -10.5180 -10.2964 -10.2963 -10.2906 -10.1861 -10.1860   1.0367   1.1037
     1.1037   1.1267   1.1967   1.1967   1.5169   1.5381   1.5839   1.5839
     1.6852   1.7338   1.7338   1.7417   1.8903   1.8903   1.9133   1.9133
     2.4609   2.4958   2.4958   2.5183   2.5677   2.5677   2.6056   2.6725
     2.6913   2.6913   2.8116   2.8117   3.2567   3.2567   3.5915   3.5916
     3.8659   4.4656   4.5349   4.5349   4.9824   5.0816   5.0816   5.3663
     5.3812   5.3812   5.8446   5.8446   5.9569   6.0903

     occupation numbers 
     1.0000   1.0000   1.0000   1.0000   1.0000   1.0000   1.0000   1.0000
     1.0000   1.0000   1.0000   1.0000   1.0000   1.0000   1.0000   1.0000
     1.0000   1.0000   1.0000   1.0000   1.0000   1.0000   1.0000   1.0000
     1.0000   1.0000   1.0000   1.0000   1.0000   1.0000   1.0000   1.0000
     1.0000   1.0000   1.0000   1.0000   1.0000   1.0000   1.0000   1.0000
     1.0000   1.0000   1.0000   1.0000   1.0000   1.0000   1.0000   1.0000
     1.0000   1.0000   1.0000   1.0000   1.0000   1.0000

          k =-0.5000 0.8660-0.9292 (  5916 PWs)   bands (ev):

   -10.4041 -10.4039 -10.2394 -10.2393 -10.2393 -10.2392   1.0208   1.0208
     1.0856   1.0856   1.0856   1.0856   1.5328   1.5328   1.6623   1.6623
     1.6623   1.6623   1.6781   1.6781   1.8597   1.8597   1.8597   1.8597
     2.5519   2.5519   2.5532   2.5532   2.5532   2.5532   2.5835   2.5835
     2.7390   2.7390   2.7390   2.7390   3.4274   3.4275   3.4275   3.4275
     4.2134   4.2134   4.9297   4.9298   4.9298   4.9298   5.5299   5.5300
     5.6421   5.6421   5.6422   5.6422   5.7235   5.7235

     occupation numbers 
     1.0000   1.0000   1.0000   1.0000   1.0000   1.0000   1.0000   1.0000
     1.0000   1.0000   1.0000   1.0000   1.0000   1.0000   1.0000   1.0000
     1.0000   1.0000   1.0000   1.0000   1.0000   1.0000   1.0000   1.0000
     1.0000   1.0000   1.0000   1.0000   1.0000   1.0000   1.0000   1.0000
     1.0000   1.0000   1.0000   1.0000   1.0000   1.0000   1.0000   1.0000
     1.0000   1.0000   1.0000   1.0000   1.0000   1.0000   1.0000   1.0000
     1.0000   1.0000   1.0000   1.0000   1.0000   1.0000

          k = 0.5000-0.2887-0.3097 (  5895 PWs)   bands (ev):

   -10.8205 -10.6017 -10.3403 -10.2998 -10.2083 -10.1497   1.1085   1.1496
     1.1780   1.2850   1.3367   1.3762   1.4034   1.4548   1.5188   1.5573
     1.5636   1.5904   1.5968   1.7729   1.8091   1.8094   1.9824   2.0290
     2.3643   2.4014   2.4172   2.4440   2.4789   2.5393   2.6256   2.6364
     2.6725   2.6804   2.7501   2.8696   3.1153   3.2560   3.3752   3.6970
     4.2090   4.5550   4.6100   4.6167   5.2327   5.2749   5.5971   5.6314
     5.7985   5.8518   6.1731   6.2737   6.5471   6.6434

     occupation numbers 
     1.0000   1.0000   1.0000   1.0000   1.0000   1.0000   1.0000   1.0000
     1.0000   1.0000   1.0000   1.0000   1.0000   1.0000   1.0000   1.0000
     1.0000   1.0000   1.0000   1.0000   1.0000   1.0000   1.0000   1.0000
     1.0000   1.0000   1.0000   1.0000   1.0000   1.0000   1.0000   1.0000
     1.0000   1.0000   1.0000   1.0000   1.0000   1.0000   1.0000   1.0000
     1.0000   1.0000   1.0000   1.0000   1.0000   1.0000   1.0000   1.0000
     1.0000   1.0000   1.0000   1.0000   1.0000   1.0000

          k = 0.5000-0.2887-0.6194 (  5905 PWs)   bands (ev):

   -10.7130 -10.5180 -10.4122 -10.2963 -10.2906 -10.1860   1.0367   1.0820
     1.1037   1.1267   1.1442   1.1967   1.4331   1.4425   1.5169   1.5220
     1.5381   1.5437   1.5839   1.6852   1.7338   1.7417   1.8903   1.9133
     2.4609   2.4695   2.4884   2.4958   2.5183   2.5677   2.5935   2.6056
     2.6172   2.6725   2.6913   2.8116   3.2567   3.5915   3.8659   3.9342
     4.4656   4.5349   4.9824   5.0816   5.1228   5.3663   5.3812   5.5973
     5.8446   5.9569   6.0233   6.0903   6.2836   6.4799

     occupation numbers 
     1.0000   1.0000   1.0000   1.0000   1.0000   1.0000   1.0000   1.0000
     1.0000   1.0000   1.0000   1.0000   1.0000   1.0000   1.0000   1.0000
     1.0000   1.0000   1.0000   1.0000   1.0000   1.0000   1.0000   1.0000
     1.0000   1.0000   1.0000   1.0000   1.0000   1.0000   1.0000   1.0000
     1.0000   1.0000   1.0000   1.0000   1.0000   1.0000   1.0000   1.0000
     1.0000   1.0000   1.0000   1.0000   1.0000   1.0000   1.0000   1.0000
     1.0000   1.0000   1.0000   1.0000   1.0000   1.0000

     highest occupied level (ev):     6.8872

!    total energy              =   -1084.91066370 Ry
     estimated scf accuracy    <          8.2E-09 Ry

     The total energy is the sum of the following terms:
     one-electron contribution =    -463.57580110 Ry
     hartree contribution      =     354.86773665 Ry
     xc contribution           =    -328.63840329 Ry
     ewald contribution        =    -647.56419596 Ry

     convergence has been achieved in  40 iterations

     Forces acting on atoms (cartesian axes, Ry/au):

     atom    1 type  1   force =    -0.00002550   -0.00001472    0.00006030
     atom    2 type  1   force =    -0.00001880   -0.00001085    0.00007630
     atom    3 type  2   force =    -0.00000314   -0.00000181   -0.00006406
     atom    4 type  2   force =    -0.00000270   -0.00000156   -0.00006523
     atom    5 type  1   force =     0.00002424    0.00001399    0.00004020
     atom    6 type  1   force =    -0.00000239   -0.00000138    0.00007616
     atom    7 type  2   force =    -0.00000015   -0.00000009   -0.00006329
     atom    8 type  2   force =    -0.00000029   -0.00000017   -0.00006574
     atom    9 type  1   force =     0.00000166    0.00000096    0.00003115
     atom   10 type  1   force =     0.00002515    0.00001452    0.00010211
     atom   11 type  2   force =     0.00000016    0.00000010   -0.00006244
     atom   12 type  2   force =     0.00000175    0.00000101   -0.00006547
     The non-local contrib.  to forces
     atom    1 type  1   force =    -0.00000950   -0.00000548   -0.00483427
     atom    2 type  1   force =    -0.00000831   -0.00000480   -0.00483108
     atom    3 type  2   force =    -0.00000004   -0.00000003    0.00575287
     atom    4 type  2   force =     0.00000256    0.00000148    0.00575491
     atom    5 type  1   force =     0.00000603    0.00000348   -0.00484122
     atom    6 type  1   force =     0.00000097    0.00000056   -0.00482498
     atom    7 type  2   force =     0.00000035    0.00000020    0.00575315
     atom    8 type  2   force =    -0.00000022   -0.00000012    0.00575314
     atom    9 type  1   force =     0.00000407    0.00000235   -0.00484249
     atom   10 type  1   force =     0.00000726    0.00000419   -0.00482128
     atom   11 type  2   force =    -0.00000154   -0.00000089    0.00575300
     atom   12 type  2   force =    -0.00000405   -0.00000234    0.00575599
     The ionic contribution  to forces
     atom    1 type  1   force =     0.00000001    0.00000000    0.06271747
     atom    2 type  1   force =     0.00000000    0.00000000    0.06271747
     atom    3 type  2   force =     0.00000001    0.00000000   -0.06271747
     atom    4 type  2   force =     0.00000000    0.00000000   -0.06271747
     atom    5 type  1   force =    -0.00000001    0.00000000    0.06271747
     atom    6 type  1   force =     0.00000001   -0.00000000    0.06271747
     atom    7 type  2   force =    -0.00000000    0.00000000   -0.06271747
     atom    8 type  2   force =     0.00000000   -0.00000000   -0.06271747
     atom    9 type  1   force =    -0.00000000   -0.00000000    0.06271747
     atom   10 type  1   force =    -0.00000001   -0.00000000    0.06271747
     atom   11 type  2   force =    -0.00000000   -0.00000000   -0.06271747
     atom   12 type  2   force =    -0.00000001   -0.00000000   -0.06271747
     The local contribution  to forces
     atom    1 type  1   force =     0.00002863    0.00001653   -0.05828724
     atom    2 type  1   force =     0.00002042    0.00001174   -0.05830006
     atom    3 type  2   force =     0.00002098    0.00001211    0.05695722
     atom    4 type  2   force =     0.00001862    0.00001074    0.05697247
     atom    5 type  1   force =    -0.00002572   -0.00001475   -0.05826008
     atom    6 type  1   force =     0.00000594    0.00000333   -0.05831112
     atom    7 type  2   force =    -0.00001304   -0.00000750    0.05694959
     atom    8 type  2   force =    -0.00000803   -0.00000466    0.05698107
     atom    9 type  1   force =    -0.00000433   -0.00000245   -0.05825651
     atom   10 type  1   force =    -0.00002877   -0.00001661   -0.05833160
     atom   11 type  2   force =    -0.00000961   -0.00000553    0.05694224
     atom   12 type  2   force =    -0.00001216   -0.00000702    0.05697802
     The core correction contribution to forces
     atom    1 type  1   force =    -0.00000003   -0.00000002    0.00046401
     atom    2 type  1   force =     0.00000014    0.00000007    0.00046385
     atom    3 type  2   force =     0.00000005    0.00000003   -0.00006503
     atom    4 type  2   force =    -0.00000000   -0.00000000   -0.00006503
     atom    5 type  1   force =     0.00000016    0.00000010    0.00046358
     atom    6 type  1   force =    -0.00000047   -0.00000028    0.00046409
     atom    7 type  2   force =    -0.00000005   -0.00000003   -0.00006506
     atom    8 type  2   force =    -0.00000002   -0.00000001   -0.00006498
     atom    9 type  1   force =    -0.00000017   -0.00000009    0.00046394
     atom   10 type  1   force =     0.00000029    0.00000017    0.00046403
     atom   11 type  2   force =     0.00000000    0.00000000   -0.00006507
     atom   12 type  2   force =     0.00000002    0.00000001   -0.00006503
     The Hubbard contrib.    to forces
     atom    1 type  1   force =     0.00000000    0.00000000    0.00000000
     atom    2 type  1   force =     0.00000000    0.00000000    0.00000000
     atom    3 type  2   force =     0.00000000    0.00000000    0.00000000
     atom    4 type  2   force =     0.00000000    0.00000000    0.00000000
     atom    5 type  1   force =     0.00000000    0.00000000    0.00000000
     atom    6 type  1   force =     0.00000000    0.00000000    0.00000000
     atom    7 type  2   force =     0.00000000    0.00000000    0.00000000
     atom    8 type  2   force =     0.00000000    0.00000000    0.00000000
     atom    9 type  1   force =     0.00000000    0.00000000    0.00000000
     atom   10 type  1   force =     0.00000000    0.00000000    0.00000000
     atom   11 type  2   force =     0.00000000    0.00000000    0.00000000
     atom   12 type  2   force =     0.00000000    0.00000000    0.00000000
     The SCF correction term to forces
     atom    1 type  1   force =    -0.00004398   -0.00002539    0.00000173
     atom    2 type  1   force =    -0.00003039   -0.00001755    0.00002752
     atom    3 type  2   force =    -0.00002350   -0.00001357    0.00000977
     atom    4 type  2   force =    -0.00002325   -0.00001343   -0.00000871
     atom    5 type  1   force =     0.00004437    0.00002562   -0.00003815
     atom    6 type  1   force =    -0.00000815   -0.00000471    0.00003211
     atom    7 type  2   force =     0.00001321    0.00000763    0.00001790
     atom    8 type  2   force =     0.00000862    0.00000497   -0.00001610
     atom    9 type  1   force =     0.00000271    0.00000156   -0.00004986
     atom   10 type  1   force =     0.00004701    0.00002714    0.00007489
     atom   11 type  2   force =     0.00001194    0.00000690    0.00002627
     atom   12 type  2   force =     0.00001858    0.00001072   -0.00001557

     Total force =     0.000237     Total SCF correction =     0.000158
     SCF correction compared to forces is large: reduce conv_thr to get better values

     init_run     :      4.68s CPU      4.31s WALL (       1 calls)
     electrons    :    305.77s CPU    237.51s WALL (       1 calls)
     forces       :      1.81s CPU      1.58s WALL (       1 calls)

     Called by init_run:
     wfcinit      :      2.17s CPU      1.75s WALL (       1 calls)
     wfcinit:atom :      0.02s CPU      0.02s WALL (      13 calls)
     wfcinit:wfcr :      2.02s CPU      1.63s WALL (      13 calls)
     potinit      :      0.78s CPU      0.79s WALL (       1 calls)
     hinit0       :      1.44s CPU      1.45s WALL (       1 calls)

     Called by electrons:
     c_bands      :    270.47s CPU    207.88s WALL (      40 calls)
     sum_band     :     29.16s CPU     24.44s WALL (      40 calls)
     v_of_rho     :      2.01s CPU      1.78s WALL (      41 calls)
     v_h          :      0.11s CPU      0.12s WALL (      41 calls)
     v_xc         :      1.94s CPU      1.71s WALL (      42 calls)
     newd         :      3.71s CPU      3.06s WALL (      41 calls)
     mix_rho      :      0.33s CPU      0.30s WALL (      40 calls)

     Called by c_bands:
     init_us_2    :      1.38s CPU      1.14s WALL (    1066 calls)
     init_us_2:cp :      1.37s CPU      1.14s WALL (    1066 calls)
     cegterg      :    254.38s CPU    194.23s WALL (     520 calls)

     Called by sum_band:
     sum_band:wei :      0.00s CPU      0.00s WALL (      40 calls)
     sum_band:loo :     24.21s CPU     20.66s WALL (      40 calls)
     sum_band:buf :      0.11s CPU      0.10s WALL (     520 calls)
     sum_band:ini :      0.66s CPU      0.53s WALL (     520 calls)
     sum_band:cal :      3.87s CPU      2.11s WALL (     520 calls)
     sum_band:bec :      0.11s CPU      0.09s WALL (     520 calls)
     addusdens    :      4.59s CPU      3.40s WALL (      40 calls)
                                        0.00s GPU  (      40 calls)
     addusd:skk   :      0.04s CPU      0.03s WALL (      80 calls)
                                        0.00s GPU  (      80 calls)

     Called by *egterg:
     cdiaghg      :     34.89s CPU     27.21s WALL (    3073 calls)
     cegterg:over :     14.70s CPU      8.08s WALL (    2553 calls)
     cegterg:upda :      8.27s CPU      4.37s WALL (    2553 calls)
     cegterg:last :     20.22s CPU     10.40s WALL (    1761 calls)
     h_psi        :    157.96s CPU    134.57s WALL (    3086 calls)
     s_psi        :     14.74s CPU      7.69s WALL (    3086 calls)
     g_psi        :      0.78s CPU      0.57s WALL (    2553 calls)

     Called by h_psi:
     h_psi:calbec :     14.78s CPU      8.15s WALL (    3086 calls)
     vloc_psi     :    127.87s CPU    118.30s WALL (    3086 calls)
     add_vuspsi   :     14.88s CPU      7.79s WALL (    3086 calls)

     General routines
     calbec       :     19.00s CPU     10.45s WALL (    3658 calls)
     fft          :      1.63s CPU      1.60s WALL (     542 calls)
     ffts         :      0.21s CPU      0.21s WALL (      81 calls)
     fftw         :    129.74s CPU    121.25s WALL (  230342 calls)
     interpolate  :      0.27s CPU      0.26s WALL (      41 calls)

     Parallel routines

     PWSCF        :   5m12.59s CPU   4m 3.75s WALL


   This run was terminated on:  13:48: 2  17Jul2025            

=------------------------------------------------------------------------------=
   JOB DONE.
=------------------------------------------------------------------------------=
Note: The following floating-point exceptions are signalling: IEEE_INVALID_FLAG
Note: The following floating-point exceptions are signalling: IEEE_INVALID_FLAG
