Authorization required, but no authorization protocol specified

Authorization required, but no authorization protocol specified

Authorization required, but no authorization protocol specified

Authorization required, but no authorization protocol specified

Authorization required, but no authorization protocol specified

Authorization required, but no authorization protocol specified

Authorization required, but no authorization protocol specified

Authorization required, but no authorization protocol specified

Authorization required, but no authorization protocol specified

Authorization required, but no authorization protocol specified

Authorization required, but no authorization protocol specified

Authorization required, but no authorization protocol specified

Authorization required, but no authorization protocol specified

Authorization required, but no authorization protocol specified

Authorization required, but no authorization protocol specified

Authorization required, but no authorization protocol specified

Authorization required, but no authorization protocol specified

Authorization required, but no authorization protocol specified


     Program PWSCF v.7.2 starts on 17Jul2025 at 17: 7:59 

     This program is part of the open-source Quantum ESPRESSO suite
     for quantum simulation of materials; please cite
         "P. Giannozzi et al., J. Phys.:Condens. Matter 21 395502 (2009);
         "P. Giannozzi et al., J. Phys.:Condens. Matter 29 465901 (2017);
         "P. Giannozzi et al., J. Chem. Phys. 152 154105 (2020);
          URL http://www.quantum-espresso.org", 
     in publications or presentations arising from this work. More details at
     http://www.quantum-espresso.org/quote

     Parallel version (MPI), running on    16 processors

     MPI processes distributed on     1 nodes
     80483 MiB available memory on the printing compute node when the environment starts

     Reading input from /home/jvc/QEspresso7.2/ZnO_database/scripts/cell311.in/ZnO-3.47-1.45-311.in
Warning: card &CELL ignored
Warning: card / ignored
Warning: card &FCP ignored
Warning: card / ignored
Warning: card &RISM ignored
Warning: card / ignored

     Current dimensions of program PWSCF are:
     Max number of different atomic species (ntypx) = 10
     Max number of k-points (npk) =  40000
     Max angular momentum in pseudopotentials (lmaxx) =  4
     file Zn.upf: wavefunction(s)  3D renormalized
     Found identity + (  0.3333  0.0000  0.0000) symmetry
     This is a supercell, fractional translations are disabled
     Message from routine setup:
     using ibrav=0 with symmetry is DISCOURAGED, use correct ibrav instead

     K-points division:     npool     =       2
     R & G space division:  proc/nbgrp/npool/nimage =       8
     Subspace diagonalization in iterative solution of the eigenvalue problem:
     a serial algorithm will be used


     Parallelization info
     --------------------
     sticks:   dense  smooth     PW     G-vecs:    dense   smooth      PW
     Min         394     196     59                16705     5900     971
     Max         395     197     60                16706     5903     974
     Sum        3153    1573    477               133647    47209    7785

     Using Slab Decomposition



     bravais-lattice index     =            0
     lattice parameter (alat)  =      18.5365  a.u.
     unit-cell volume          =     989.3930 (a.u.)^3
     number of atoms/cell      =           12
     number of atomic types    =            2
     number of electrons       =       108.00
     number of Kohn-Sham states=           54
     kinetic-energy cutoff     =      50.0000  Ry
     charge density cutoff     =     400.0000  Ry
     scf convergence threshold =      1.0E-08
     mixing beta               =       0.3000
     number of iterations used =            8  plain     mixing
     Exchange-correlation= PBE
                           (   1   4   3   4   0   0   0)

     celldm(1)=  18.536466  celldm(2)=   0.000000  celldm(3)=   0.000000
     celldm(4)=   0.000000  celldm(5)=   0.000000  celldm(6)=   0.000000

     crystal axes: (cart. coord. in units of alat)
               a(1) = (   1.000000   0.000000   0.000000 )  
               a(2) = (  -0.166667   0.288675   0.000000 )  
               a(3) = (   0.000000   0.000000   0.538119 )  

     reciprocal axes: (cart. coord. in units 2 pi/alat)
               b(1) = (  1.000000  0.577350 -0.000000 )  
               b(2) = (  0.000000  3.464102  0.000000 )  
               b(3) = (  0.000000 -0.000000  1.858323 )  


     PseudoPot. # 1 for Zn read from file:
     /home/jvc/QEspresso7.2/ZnO_database/pseudos/Zn.upf
     MD5 check sum: 7f56cabf9682ed8c977c2f7d0c5985c5
     Pseudo is Ultrasoft + core correction, Zval = 12.0
     Generated using &quot;atomic&quot; code by A. Dal Corso  v.6.2.2
     Using radial grid of 1201 points,  6 beta functions with: 
                l(1) =   0
                l(2) =   0
                l(3) =   1
                l(4) =   1
                l(5) =   2
                l(6) =   2
     Q(r) pseudized with 0 coefficients 


     PseudoPot. # 2 for O  read from file:
     /home/jvc/QEspresso7.2/ZnO_database/pseudos/O.upf
     MD5 check sum: 91400c9766925bcf19f520983a725ff0
     Pseudo is Ultrasoft + core correction, Zval =  6.0
     Generated using &quot;atomic&quot; code by A. Dal Corso  v.6.3MaX
     Using radial grid of 1095 points,  4 beta functions with: 
                l(1) =   0
                l(2) =   0
                l(3) =   1
                l(4) =   1
     Q(r) pseudized with 0 coefficients 


     atomic species   valence    mass     pseudopotential
        Zn            12.00    65.38000     Zn( 1.00)
        O              6.00    15.99900     O ( 1.00)

      2 Sym. Ops. (no inversion) found


                                    s                        frac. trans.

      isym =  1     identity                                     

 cryst.   s( 1) = (     1          0          0      )
                  (     0          1          0      )
                  (     0          0          1      )

 cart.    s( 1) = (  1.0000000  0.0000000  0.0000000 )
                  (  0.0000000  1.0000000  0.0000000 )
                  (  0.0000000  0.0000000  1.0000000 )


      isym =  2     inv. 180 deg rotation - cryst. axis [0,1,0]  

 cryst.   s( 2) = (     1          3          0      )
                  (     0         -1          0      )
                  (     0          0          1      )

 cart.    s( 2) = (  0.5000000  0.8660254  0.0000000 )
                  (  0.8660254 -0.5000000  0.0000000 )
                  (  0.0000000  0.0000000  1.0000000 )


   Cartesian axes

     site n.     atom                  positions (alat units)
         1           Zn  tau(   1) = (   0.1666667   0.0962250   0.2694007  )
         2           Zn  tau(   2) = (   0.0000000   0.1924501   0.0003409  )
         3           O   tau(   3) = (   0.1666667   0.0962250   0.4733710  )
         4           O   tau(   4) = (   0.0000000   0.1924501   0.2043113  )
         5           Zn  tau(   5) = (   0.5000000   0.0962250   0.2694007  )
         6           Zn  tau(   6) = (   0.3333333   0.1924501   0.0003409  )
         7           O   tau(   7) = (   0.5000000   0.0962250   0.4733710  )
         8           O   tau(   8) = (   0.3333333   0.1924501   0.2043113  )
         9           Zn  tau(   9) = (   0.8333333   0.0962250   0.2694007  )
        10           Zn  tau(  10) = (   0.6666667   0.1924501   0.0003409  )
        11           O   tau(  11) = (   0.8333333   0.0962250   0.4733710  )
        12           O   tau(  12) = (   0.6666667   0.1924501   0.2043113  )

   Crystallographic axes

     site n.     atom                  positions (cryst. coord.)
         1           Zn  tau(   1) = (  0.2222222  0.3333333  0.5006336  )
         2           Zn  tau(   2) = (  0.1111111  0.6666667  0.0006336  )
         3           O   tau(   3) = (  0.2222222  0.3333333  0.8796764  )
         4           O   tau(   4) = (  0.1111111  0.6666667  0.3796764  )
         5           Zn  tau(   5) = (  0.5555556  0.3333333  0.5006336  )
         6           Zn  tau(   6) = (  0.4444444  0.6666667  0.0006336  )
         7           O   tau(   7) = (  0.5555556  0.3333333  0.8796764  )
         8           O   tau(   8) = (  0.4444444  0.6666667  0.3796764  )
         9           Zn  tau(   9) = (  0.8888889  0.3333333  0.5006336  )
        10           Zn  tau(  10) = (  0.7777778  0.6666667  0.0006336  )
        11           O   tau(  11) = (  0.8888889  0.3333333  0.8796764  )
        12           O   tau(  12) = (  0.7777778  0.6666667  0.3796764  )

     number of k points=    26
                       cart. coord. in units 2pi/alat
        k(    1) = (   0.0000000   0.0000000   0.0000000), wk =   0.0277778
        k(    2) = (   0.0000000   0.0000000   0.3097206), wk =   0.0555556
        k(    3) = (   0.0000000   0.0000000   0.6194412), wk =   0.0555556
        k(    4) = (   0.0000000   0.0000000  -0.9291617), wk =   0.0277778
        k(    5) = (   0.0000000   0.5773503   0.0000000), wk =   0.1111111
        k(    6) = (   0.0000000   0.5773503   0.3097206), wk =   0.1111111
        k(    7) = (   0.0000000   0.5773503   0.6194412), wk =   0.1111111
        k(    8) = (   0.0000000   0.5773503  -0.9291617), wk =   0.1111111
        k(    9) = (   0.0000000   1.1547005   0.0000000), wk =   0.0555556
        k(   10) = (   0.0000000   1.1547005   0.3097206), wk =   0.1111111
        k(   11) = (   0.0000000   1.1547005   0.6194412), wk =   0.1111111
        k(   12) = (   0.0000000   1.1547005  -0.9291617), wk =   0.0555556
        k(   13) = (   0.0000000  -1.7320508   0.0000000), wk =   0.0555556
        k(   14) = (   0.0000000  -1.7320508   0.3097206), wk =   0.1111111
        k(   15) = (   0.0000000  -1.7320508   0.6194412), wk =   0.1111111
        k(   16) = (   0.0000000  -1.7320508  -0.9291617), wk =   0.0555556
        k(   17) = (  -0.5000000  -0.2886751   0.0000000), wk =   0.0277778
        k(   18) = (  -0.5000000  -0.2886751   0.3097206), wk =   0.0555556
        k(   19) = (  -0.5000000  -0.2886751   0.6194412), wk =   0.0555556
        k(   20) = (  -0.5000000  -0.2886751  -0.9291617), wk =   0.0277778
        k(   21) = (  -0.5000000   0.8660254   0.0000000), wk =   0.0555556
        k(   22) = (  -0.5000000   0.8660254   0.3097206), wk =   0.1111111
        k(   23) = (  -0.5000000   0.8660254   0.6194412), wk =   0.1111111
        k(   24) = (  -0.5000000   0.8660254  -0.9291617), wk =   0.0555556
        k(   25) = (   0.5000000  -0.2886751  -0.3097206), wk =   0.1111111
        k(   26) = (   0.5000000  -0.2886751  -0.6194412), wk =   0.1111111

                       cryst. coord.
        k(    1) = (   0.0000000   0.0000000   0.0000000), wk =   0.0277778
        k(    2) = (   0.0000000   0.0000000   0.1666667), wk =   0.0555556
        k(    3) = (   0.0000000   0.0000000   0.3333333), wk =   0.0555556
        k(    4) = (   0.0000000   0.0000000  -0.5000000), wk =   0.0277778
        k(    5) = (   0.0000000   0.1666667   0.0000000), wk =   0.1111111
        k(    6) = (   0.0000000   0.1666667   0.1666667), wk =   0.1111111
        k(    7) = (   0.0000000   0.1666667   0.3333333), wk =   0.1111111
        k(    8) = (   0.0000000   0.1666667  -0.5000000), wk =   0.1111111
        k(    9) = (   0.0000000   0.3333333   0.0000000), wk =   0.0555556
        k(   10) = (   0.0000000   0.3333333   0.1666667), wk =   0.1111111
        k(   11) = (   0.0000000   0.3333333   0.3333333), wk =   0.1111111
        k(   12) = (   0.0000000   0.3333333  -0.5000000), wk =   0.0555556
        k(   13) = (   0.0000000  -0.5000000   0.0000000), wk =   0.0555556
        k(   14) = (   0.0000000  -0.5000000   0.1666667), wk =   0.1111111
        k(   15) = (   0.0000000  -0.5000000   0.3333333), wk =   0.1111111
        k(   16) = (   0.0000000  -0.5000000  -0.5000000), wk =   0.0555556
        k(   17) = (  -0.5000000   0.0000000   0.0000000), wk =   0.0277778
        k(   18) = (  -0.5000000   0.0000000   0.1666667), wk =   0.0555556
        k(   19) = (  -0.5000000   0.0000000   0.3333333), wk =   0.0555556
        k(   20) = (  -0.5000000   0.0000000  -0.5000000), wk =   0.0277778
        k(   21) = (  -0.5000000   0.3333333   0.0000000), wk =   0.0555556
        k(   22) = (  -0.5000000   0.3333333   0.1666667), wk =   0.1111111
        k(   23) = (  -0.5000000   0.3333333   0.3333333), wk =   0.1111111
        k(   24) = (  -0.5000000   0.3333333  -0.5000000), wk =   0.0555556
        k(   25) = (   0.5000000  -0.1666667  -0.1666667), wk =   0.1111111
        k(   26) = (   0.5000000  -0.1666667  -0.3333333), wk =   0.1111111

     Dense  grid:   133647 G-vectors     FFT dimensions: ( 120,  40,  64)

     Smooth grid:    47209 G-vectors     FFT dimensions: (  90,  27,  45)

     Dynamical RAM for                 wfc:       0.61 MB

     Dynamical RAM for     wfc (w. buffer):       8.51 MB

     Dynamical RAM for           str. fact:       0.51 MB

     Dynamical RAM for           local pot:       0.00 MB

     Dynamical RAM for          nlocal pot:       1.76 MB

     Dynamical RAM for                qrad:       3.21 MB

     Dynamical RAM for          rho,v,vnew:       1.64 MB

     Dynamical RAM for               rhoin:       0.55 MB

     Dynamical RAM for            rho*nmix:       4.08 MB

     Dynamical RAM for           G-vectors:       1.00 MB

     Dynamical RAM for          h,s,v(r/c):       0.53 MB

     Dynamical RAM for          <psi|beta>:       0.13 MB

     Dynamical RAM for                 psi:       1.22 MB

     Dynamical RAM for                hpsi:       1.22 MB

     Dynamical RAM for                spsi:       1.22 MB

     Dynamical RAM for      wfcinit/wfcrot:       1.90 MB

     Dynamical RAM for           addusdens:      24.60 MB

     Dynamical RAM for          addusforce:      25.90 MB

     Estimated static dynamical RAM per process >      19.41 MB

     Estimated max dynamical RAM per process >      49.39 MB

     Estimated total dynamical RAM >     757.59 MB

     Check: negative core charge=   -0.000002

     Initial potential from superposition of free atoms

     starting charge     107.9776, renormalised to     108.0000
     Starting wfcs are   78 randomized atomic wfcs

     total cpu time spent up to now is        4.6 secs

     Self-consistent Calculation

     iteration #  1     ecut=    50.00 Ry     beta= 0.30
     Davidson diagonalization with overlap

---- Real-time Memory Report at c_bands before calling an iterative solver
            68 MiB given to the printing process from OS
             0 MiB allocation reported by mallinfo(arena+hblkhd)
         79698 MiB available memory on the node where the printing process lives
------------------
     ethr =  1.00E-02,  avg # of iterations =  2.0

     total cpu time spent up to now is        8.1 secs

     total energy              =   -1084.43799411 Ry
     estimated scf accuracy    <       2.07852747 Ry

     iteration #  2     ecut=    50.00 Ry     beta= 0.30
     Davidson diagonalization with overlap

---- Real-time Memory Report at c_bands before calling an iterative solver
            82 MiB given to the printing process from OS
             0 MiB allocation reported by mallinfo(arena+hblkhd)
         79534 MiB available memory on the node where the printing process lives
------------------
     ethr =  1.92E-03,  avg # of iterations =  2.1

     total cpu time spent up to now is       12.5 secs

     total energy              =   -1084.73296054 Ry
     estimated scf accuracy    <       0.26784124 Ry

     iteration #  3     ecut=    50.00 Ry     beta= 0.30
     Davidson diagonalization with overlap

---- Real-time Memory Report at c_bands before calling an iterative solver
            83 MiB given to the printing process from OS
             0 MiB allocation reported by mallinfo(arena+hblkhd)
         79535 MiB available memory on the node where the printing process lives
------------------
     ethr =  2.48E-04,  avg # of iterations =  6.5

     total cpu time spent up to now is       19.9 secs

     total energy              =   -1084.82709428 Ry
     estimated scf accuracy    <       0.18250655 Ry

     iteration #  4     ecut=    50.00 Ry     beta= 0.30
     Davidson diagonalization with overlap

---- Real-time Memory Report at c_bands before calling an iterative solver
            84 MiB given to the printing process from OS
             0 MiB allocation reported by mallinfo(arena+hblkhd)
         79559 MiB available memory on the node where the printing process lives
------------------
     ethr =  1.69E-04,  avg # of iterations =  8.8

     total cpu time spent up to now is       29.2 secs

     total energy              =   -1084.96282993 Ry
     estimated scf accuracy    <       0.80363702 Ry

     iteration #  5     ecut=    50.00 Ry     beta= 0.30
     Davidson diagonalization with overlap

---- Real-time Memory Report at c_bands before calling an iterative solver
            84 MiB given to the printing process from OS
             0 MiB allocation reported by mallinfo(arena+hblkhd)
         79561 MiB available memory on the node where the printing process lives
------------------
     ethr =  1.69E-04,  avg # of iterations =  2.0

     total cpu time spent up to now is       32.8 secs

     total energy              =   -1084.59598268 Ry
     estimated scf accuracy    <       0.47906097 Ry

     iteration #  6     ecut=    50.00 Ry     beta= 0.30
     Davidson diagonalization with overlap

---- Real-time Memory Report at c_bands before calling an iterative solver
            84 MiB given to the printing process from OS
             0 MiB allocation reported by mallinfo(arena+hblkhd)
         79561 MiB available memory on the node where the printing process lives
------------------
     ethr =  1.69E-04,  avg # of iterations = 10.6

     total cpu time spent up to now is       42.9 secs

     total energy              =   -1084.83337602 Ry
     estimated scf accuracy    <       1.33137085 Ry

     iteration #  7     ecut=    50.00 Ry     beta= 0.30
     Davidson diagonalization with overlap

---- Real-time Memory Report at c_bands before calling an iterative solver
            84 MiB given to the printing process from OS
             0 MiB allocation reported by mallinfo(arena+hblkhd)
         79561 MiB available memory on the node where the printing process lives
------------------
     ethr =  1.69E-04,  avg # of iterations =  5.0

     total cpu time spent up to now is       48.7 secs

     total energy              =   -1084.93625107 Ry
     estimated scf accuracy    <       0.18609178 Ry

     iteration #  8     ecut=    50.00 Ry     beta= 0.30
     Davidson diagonalization with overlap

---- Real-time Memory Report at c_bands before calling an iterative solver
            84 MiB given to the printing process from OS
             0 MiB allocation reported by mallinfo(arena+hblkhd)
         79562 MiB available memory on the node where the printing process lives
------------------
     ethr =  1.69E-04,  avg # of iterations =  1.3

     total cpu time spent up to now is       52.1 secs

     total energy              =   -1084.93060462 Ry
     estimated scf accuracy    <       0.17267167 Ry

     iteration #  9     ecut=    50.00 Ry     beta= 0.30
     Davidson diagonalization with overlap

---- Real-time Memory Report at c_bands before calling an iterative solver
            84 MiB given to the printing process from OS
             0 MiB allocation reported by mallinfo(arena+hblkhd)
         79562 MiB available memory on the node where the printing process lives
------------------
     ethr =  1.60E-04,  avg # of iterations =  1.3

     total cpu time spent up to now is       55.5 secs

     total energy              =   -1084.90035184 Ry
     estimated scf accuracy    <       0.14072773 Ry

     iteration # 10     ecut=    50.00 Ry     beta= 0.30
     Davidson diagonalization with overlap

---- Real-time Memory Report at c_bands before calling an iterative solver
            85 MiB given to the printing process from OS
             0 MiB allocation reported by mallinfo(arena+hblkhd)
         79562 MiB available memory on the node where the printing process lives
------------------
     ethr =  1.30E-04,  avg # of iterations =  1.9

     total cpu time spent up to now is       59.0 secs

     total energy              =   -1084.88441508 Ry
     estimated scf accuracy    <       0.06974072 Ry

     iteration # 11     ecut=    50.00 Ry     beta= 0.30
     Davidson diagonalization with overlap

---- Real-time Memory Report at c_bands before calling an iterative solver
            85 MiB given to the printing process from OS
             0 MiB allocation reported by mallinfo(arena+hblkhd)
         79562 MiB available memory on the node where the printing process lives
------------------
     ethr =  6.46E-05,  avg # of iterations =  4.8

     total cpu time spent up to now is       64.3 secs

     total energy              =   -1084.90957682 Ry
     estimated scf accuracy    <       0.00009035 Ry

     iteration # 12     ecut=    50.00 Ry     beta= 0.30
     Davidson diagonalization with overlap

---- Real-time Memory Report at c_bands before calling an iterative solver
            85 MiB given to the printing process from OS
             0 MiB allocation reported by mallinfo(arena+hblkhd)
         79562 MiB available memory on the node where the printing process lives
------------------
     c_bands:  1 eigenvalues not converged
     ethr =  8.37E-08,  avg # of iterations = 13.5

     total cpu time spent up to now is       77.5 secs

     total energy              =   -1084.91038587 Ry
     estimated scf accuracy    <       0.00240069 Ry

     iteration # 13     ecut=    50.00 Ry     beta= 0.30
     Davidson diagonalization with overlap

---- Real-time Memory Report at c_bands before calling an iterative solver
            85 MiB given to the printing process from OS
             0 MiB allocation reported by mallinfo(arena+hblkhd)
         79563 MiB available memory on the node where the printing process lives
------------------
     ethr =  8.37E-08,  avg # of iterations = 10.1

     total cpu time spent up to now is       87.9 secs

     total energy              =   -1084.91081755 Ry
     estimated scf accuracy    <       0.00008881 Ry

     iteration # 14     ecut=    50.00 Ry     beta= 0.30
     Davidson diagonalization with overlap

---- Real-time Memory Report at c_bands before calling an iterative solver
            85 MiB given to the printing process from OS
             0 MiB allocation reported by mallinfo(arena+hblkhd)
         79563 MiB available memory on the node where the printing process lives
------------------
     ethr =  8.22E-08,  avg # of iterations =  7.3

     total cpu time spent up to now is       95.5 secs

     total energy              =   -1084.91025012 Ry
     estimated scf accuracy    <       0.00082721 Ry

     iteration # 15     ecut=    50.00 Ry     beta= 0.30
     Davidson diagonalization with overlap

---- Real-time Memory Report at c_bands before calling an iterative solver
            85 MiB given to the printing process from OS
             0 MiB allocation reported by mallinfo(arena+hblkhd)
         79563 MiB available memory on the node where the printing process lives
------------------
     ethr =  8.22E-08,  avg # of iterations = 12.2

     total cpu time spent up to now is      108.0 secs

     total energy              =   -1084.91049670 Ry
     estimated scf accuracy    <       0.00155665 Ry

     iteration # 16     ecut=    50.00 Ry     beta= 0.30
     Davidson diagonalization with overlap

---- Real-time Memory Report at c_bands before calling an iterative solver
            85 MiB given to the printing process from OS
             0 MiB allocation reported by mallinfo(arena+hblkhd)
         79564 MiB available memory on the node where the printing process lives
------------------
     ethr =  8.22E-08,  avg # of iterations =  9.0

     total cpu time spent up to now is      117.5 secs

     total energy              =   -1084.91067859 Ry
     estimated scf accuracy    <       0.00007350 Ry

     iteration # 17     ecut=    50.00 Ry     beta= 0.30
     Davidson diagonalization with overlap

---- Real-time Memory Report at c_bands before calling an iterative solver
            85 MiB given to the printing process from OS
             0 MiB allocation reported by mallinfo(arena+hblkhd)
         79564 MiB available memory on the node where the printing process lives
------------------
     ethr =  6.81E-08,  avg # of iterations =  1.3

     total cpu time spent up to now is      120.8 secs

     total energy              =   -1084.91070262 Ry
     estimated scf accuracy    <       0.00007579 Ry

     iteration # 18     ecut=    50.00 Ry     beta= 0.30
     Davidson diagonalization with overlap

---- Real-time Memory Report at c_bands before calling an iterative solver
            85 MiB given to the printing process from OS
             0 MiB allocation reported by mallinfo(arena+hblkhd)
         79564 MiB available memory on the node where the printing process lives
------------------
     ethr =  6.81E-08,  avg # of iterations =  1.0

     total cpu time spent up to now is      124.1 secs

     total energy              =   -1084.91066163 Ry
     estimated scf accuracy    <       0.00012503 Ry

     iteration # 19     ecut=    50.00 Ry     beta= 0.30
     Davidson diagonalization with overlap

---- Real-time Memory Report at c_bands before calling an iterative solver
            85 MiB given to the printing process from OS
             0 MiB allocation reported by mallinfo(arena+hblkhd)
         79564 MiB available memory on the node where the printing process lives
------------------
     ethr =  6.81E-08,  avg # of iterations =  2.0

     total cpu time spent up to now is      127.7 secs

     total energy              =   -1084.91065022 Ry
     estimated scf accuracy    <       0.00005260 Ry

     iteration # 20     ecut=    50.00 Ry     beta= 0.30
     Davidson diagonalization with overlap

---- Real-time Memory Report at c_bands before calling an iterative solver
            85 MiB given to the printing process from OS
             0 MiB allocation reported by mallinfo(arena+hblkhd)
         79564 MiB available memory on the node where the printing process lives
------------------
     ethr =  4.87E-08,  avg # of iterations =  3.1

     total cpu time spent up to now is      132.0 secs

     total energy              =   -1084.91066231 Ry
     estimated scf accuracy    <       0.00001179 Ry

     iteration # 21     ecut=    50.00 Ry     beta= 0.30
     Davidson diagonalization with overlap

---- Real-time Memory Report at c_bands before calling an iterative solver
            85 MiB given to the printing process from OS
             0 MiB allocation reported by mallinfo(arena+hblkhd)
         79564 MiB available memory on the node where the printing process lives
------------------
     ethr =  1.09E-08,  avg # of iterations =  5.3

     total cpu time spent up to now is      137.0 secs

     total energy              =   -1084.91066626 Ry
     estimated scf accuracy    <       0.00000835 Ry

     iteration # 22     ecut=    50.00 Ry     beta= 0.30
     Davidson diagonalization with overlap

---- Real-time Memory Report at c_bands before calling an iterative solver
            85 MiB given to the printing process from OS
             0 MiB allocation reported by mallinfo(arena+hblkhd)
         79564 MiB available memory on the node where the printing process lives
------------------
     ethr =  7.73E-09,  avg # of iterations =  1.6

     total cpu time spent up to now is      140.4 secs

     total energy              =   -1084.91066684 Ry
     estimated scf accuracy    <       0.00001103 Ry

     iteration # 23     ecut=    50.00 Ry     beta= 0.30
     Davidson diagonalization with overlap

---- Real-time Memory Report at c_bands before calling an iterative solver
            85 MiB given to the printing process from OS
             0 MiB allocation reported by mallinfo(arena+hblkhd)
         79564 MiB available memory on the node where the printing process lives
------------------
     ethr =  7.73E-09,  avg # of iterations =  1.2

     total cpu time spent up to now is      143.7 secs

     total energy              =   -1084.91066477 Ry
     estimated scf accuracy    <       0.00001222 Ry

     iteration # 24     ecut=    50.00 Ry     beta= 0.30
     Davidson diagonalization with overlap

---- Real-time Memory Report at c_bands before calling an iterative solver
            85 MiB given to the printing process from OS
             0 MiB allocation reported by mallinfo(arena+hblkhd)
         79564 MiB available memory on the node where the printing process lives
------------------
     ethr =  7.73E-09,  avg # of iterations =  1.1

     total cpu time spent up to now is      147.0 secs

     total energy              =   -1084.91066104 Ry
     estimated scf accuracy    <       0.00000809 Ry

     iteration # 25     ecut=    50.00 Ry     beta= 0.30
     Davidson diagonalization with overlap

---- Real-time Memory Report at c_bands before calling an iterative solver
            85 MiB given to the printing process from OS
             0 MiB allocation reported by mallinfo(arena+hblkhd)
         79564 MiB available memory on the node where the printing process lives
------------------
     ethr =  7.49E-09,  avg # of iterations =  4.8

     total cpu time spent up to now is      152.4 secs

     total energy              =   -1084.91066395 Ry
     estimated scf accuracy    <       0.00000034 Ry

     iteration # 26     ecut=    50.00 Ry     beta= 0.30
     Davidson diagonalization with overlap

---- Real-time Memory Report at c_bands before calling an iterative solver
            85 MiB given to the printing process from OS
             0 MiB allocation reported by mallinfo(arena+hblkhd)
         79564 MiB available memory on the node where the printing process lives
------------------
     ethr =  3.15E-10,  avg # of iterations =  9.4

     total cpu time spent up to now is      162.4 secs

     total energy              =   -1084.91066246 Ry
     estimated scf accuracy    <       0.00000535 Ry

     iteration # 27     ecut=    50.00 Ry     beta= 0.30
     Davidson diagonalization with overlap

---- Real-time Memory Report at c_bands before calling an iterative solver
            85 MiB given to the printing process from OS
             0 MiB allocation reported by mallinfo(arena+hblkhd)
         79564 MiB available memory on the node where the printing process lives
------------------
     ethr =  3.15E-10,  avg # of iterations = 10.2

     total cpu time spent up to now is      173.1 secs

     total energy              =   -1084.91066443 Ry
     estimated scf accuracy    <       0.00000019 Ry

     iteration # 28     ecut=    50.00 Ry     beta= 0.30
     Davidson diagonalization with overlap

---- Real-time Memory Report at c_bands before calling an iterative solver
            85 MiB given to the printing process from OS
             0 MiB allocation reported by mallinfo(arena+hblkhd)
         79564 MiB available memory on the node where the printing process lives
------------------
     ethr =  1.81E-10,  avg # of iterations = 10.6

     total cpu time spent up to now is      183.6 secs

     total energy              =   -1084.91066540 Ry
     estimated scf accuracy    <       0.00000557 Ry

     iteration # 29     ecut=    50.00 Ry     beta= 0.30
     Davidson diagonalization with overlap

---- Real-time Memory Report at c_bands before calling an iterative solver
            85 MiB given to the printing process from OS
             0 MiB allocation reported by mallinfo(arena+hblkhd)
         79564 MiB available memory on the node where the printing process lives
------------------
     ethr =  1.81E-10,  avg # of iterations =  1.9

     total cpu time spent up to now is      187.1 secs

     total energy              =   -1084.91066570 Ry
     estimated scf accuracy    <       0.00000615 Ry

     iteration # 30     ecut=    50.00 Ry     beta= 0.30
     Davidson diagonalization with overlap

---- Real-time Memory Report at c_bands before calling an iterative solver
            85 MiB given to the printing process from OS
             0 MiB allocation reported by mallinfo(arena+hblkhd)
         79565 MiB available memory on the node where the printing process lives
------------------
     ethr =  1.81E-10,  avg # of iterations =  2.7

     total cpu time spent up to now is      191.3 secs

     total energy              =   -1084.91066289 Ry
     estimated scf accuracy    <       0.00000740 Ry

     iteration # 31     ecut=    50.00 Ry     beta= 0.30
     Davidson diagonalization with overlap

---- Real-time Memory Report at c_bands before calling an iterative solver
            85 MiB given to the printing process from OS
             0 MiB allocation reported by mallinfo(arena+hblkhd)
         79565 MiB available memory on the node where the printing process lives
------------------
     ethr =  1.81E-10,  avg # of iterations = 10.8

     total cpu time spent up to now is      202.4 secs

     total energy              =   -1084.91066362 Ry
     estimated scf accuracy    <       0.00000027 Ry

     iteration # 32     ecut=    50.00 Ry     beta= 0.30
     Davidson diagonalization with overlap

---- Real-time Memory Report at c_bands before calling an iterative solver
            85 MiB given to the printing process from OS
             0 MiB allocation reported by mallinfo(arena+hblkhd)
         79565 MiB available memory on the node where the printing process lives
------------------
     ethr =  1.81E-10,  avg # of iterations =  6.7

     total cpu time spent up to now is      209.9 secs

     total energy              =   -1084.91066379 Ry
     estimated scf accuracy    <       0.00000030 Ry

     iteration # 33     ecut=    50.00 Ry     beta= 0.30
     Davidson diagonalization with overlap

---- Real-time Memory Report at c_bands before calling an iterative solver
            85 MiB given to the printing process from OS
             0 MiB allocation reported by mallinfo(arena+hblkhd)
         79565 MiB available memory on the node where the printing process lives
------------------
     ethr =  1.81E-10,  avg # of iterations =  1.1

     total cpu time spent up to now is      213.2 secs

     total energy              =   -1084.91066378 Ry
     estimated scf accuracy    <       0.00000031 Ry

     iteration # 34     ecut=    50.00 Ry     beta= 0.30
     Davidson diagonalization with overlap

---- Real-time Memory Report at c_bands before calling an iterative solver
            85 MiB given to the printing process from OS
             0 MiB allocation reported by mallinfo(arena+hblkhd)
         79565 MiB available memory on the node where the printing process lives
------------------
     ethr =  1.81E-10,  avg # of iterations =  1.0

     total cpu time spent up to now is      216.4 secs

     total energy              =   -1084.91066379 Ry
     estimated scf accuracy    <       0.00000032 Ry

     iteration # 35     ecut=    50.00 Ry     beta= 0.30
     Davidson diagonalization with overlap

---- Real-time Memory Report at c_bands before calling an iterative solver
            85 MiB given to the printing process from OS
             0 MiB allocation reported by mallinfo(arena+hblkhd)
         79565 MiB available memory on the node where the printing process lives
------------------
     ethr =  1.81E-10,  avg # of iterations =  1.0

     total cpu time spent up to now is      219.7 secs

     total energy              =   -1084.91066379 Ry
     estimated scf accuracy    <       0.00000035 Ry

     iteration # 36     ecut=    50.00 Ry     beta= 0.30
     Davidson diagonalization with overlap

---- Real-time Memory Report at c_bands before calling an iterative solver
            85 MiB given to the printing process from OS
             0 MiB allocation reported by mallinfo(arena+hblkhd)
         79565 MiB available memory on the node where the printing process lives
------------------
     ethr =  1.81E-10,  avg # of iterations =  1.0

     total cpu time spent up to now is      222.9 secs

     total energy              =   -1084.91066379 Ry
     estimated scf accuracy    <       0.00000036 Ry

     iteration # 37     ecut=    50.00 Ry     beta= 0.30
     Davidson diagonalization with overlap

---- Real-time Memory Report at c_bands before calling an iterative solver
            85 MiB given to the printing process from OS
             0 MiB allocation reported by mallinfo(arena+hblkhd)
         79565 MiB available memory on the node where the printing process lives
------------------
     ethr =  1.81E-10,  avg # of iterations =  1.0

     total cpu time spent up to now is      226.2 secs

     total energy              =   -1084.91066375 Ry
     estimated scf accuracy    <       0.00000037 Ry

     iteration # 38     ecut=    50.00 Ry     beta= 0.30
     Davidson diagonalization with overlap

---- Real-time Memory Report at c_bands before calling an iterative solver
            85 MiB given to the printing process from OS
             0 MiB allocation reported by mallinfo(arena+hblkhd)
         79565 MiB available memory on the node where the printing process lives
------------------
     ethr =  1.81E-10,  avg # of iterations =  1.0

     total cpu time spent up to now is      229.4 secs

     total energy              =   -1084.91066368 Ry
     estimated scf accuracy    <       0.00000029 Ry

     iteration # 39     ecut=    50.00 Ry     beta= 0.30
     Davidson diagonalization with overlap

---- Real-time Memory Report at c_bands before calling an iterative solver
            85 MiB given to the printing process from OS
             0 MiB allocation reported by mallinfo(arena+hblkhd)
         79565 MiB available memory on the node where the printing process lives
------------------
     ethr =  1.81E-10,  avg # of iterations =  3.7

     total cpu time spent up to now is      233.7 secs

     total energy              =   -1084.91066369 Ry
     estimated scf accuracy    <       0.00000012 Ry

     iteration # 40     ecut=    50.00 Ry     beta= 0.30
     Davidson diagonalization with overlap

---- Real-time Memory Report at c_bands before calling an iterative solver
            85 MiB given to the printing process from OS
             0 MiB allocation reported by mallinfo(arena+hblkhd)
         79565 MiB available memory on the node where the printing process lives
------------------
     ethr =  1.07E-10,  avg # of iterations =  5.3

     total cpu time spent up to now is      238.4 secs

     total energy              =   -1084.91066370 Ry
     estimated scf accuracy    <       0.00000005 Ry

     iteration # 41     ecut=    50.00 Ry     beta= 0.30
     Davidson diagonalization with overlap

---- Real-time Memory Report at c_bands before calling an iterative solver
            85 MiB given to the printing process from OS
             0 MiB allocation reported by mallinfo(arena+hblkhd)
         79565 MiB available memory on the node where the printing process lives
------------------
     ethr =  4.51E-11,  avg # of iterations =  3.7

     total cpu time spent up to now is      242.4 secs

     total energy              =   -1084.91066370 Ry
     estimated scf accuracy    <       0.00000003 Ry

     iteration # 42     ecut=    50.00 Ry     beta= 0.30
     Davidson diagonalization with overlap

---- Real-time Memory Report at c_bands before calling an iterative solver
            85 MiB given to the printing process from OS
             0 MiB allocation reported by mallinfo(arena+hblkhd)
         79565 MiB available memory on the node where the printing process lives
------------------
     ethr =  3.06E-11,  avg # of iterations =  2.8

     total cpu time spent up to now is      246.4 secs

     total energy              =   -1084.91066371 Ry
     estimated scf accuracy    <       0.00000002 Ry

     iteration # 43     ecut=    50.00 Ry     beta= 0.30
     Davidson diagonalization with overlap

---- Real-time Memory Report at c_bands before calling an iterative solver
            85 MiB given to the printing process from OS
             0 MiB allocation reported by mallinfo(arena+hblkhd)
         79565 MiB available memory on the node where the printing process lives
------------------
     ethr =  1.94E-11,  avg # of iterations =  2.9

     total cpu time spent up to now is      250.3 secs

     total energy              =   -1084.91066371 Ry
     estimated scf accuracy    <       0.00000002 Ry

     iteration # 44     ecut=    50.00 Ry     beta= 0.30
     Davidson diagonalization with overlap

---- Real-time Memory Report at c_bands before calling an iterative solver
            85 MiB given to the printing process from OS
             0 MiB allocation reported by mallinfo(arena+hblkhd)
         79565 MiB available memory on the node where the printing process lives
------------------
     ethr =  1.42E-11,  avg # of iterations =  5.2

     total cpu time spent up to now is      256.0 secs

     total energy              =   -1084.91066370 Ry
     estimated scf accuracy    <       0.00000003 Ry

     iteration # 45     ecut=    50.00 Ry     beta= 0.30
     Davidson diagonalization with overlap

---- Real-time Memory Report at c_bands before calling an iterative solver
            85 MiB given to the printing process from OS
             0 MiB allocation reported by mallinfo(arena+hblkhd)
         79565 MiB available memory on the node where the printing process lives
------------------
     ethr =  1.42E-11,  avg # of iterations =  5.6

     total cpu time spent up to now is      262.6 secs

     End of self-consistent calculation

          k = 0.0000 0.0000 0.0000 (  5905 PWs)   bands (ev):

   -10.9984 -10.5469 -10.5469 -10.3181 -10.1574 -10.1573   1.0419   1.0420
     1.3159   1.3159   1.3565   1.3780   1.3780   1.4392   1.5014   1.5014
     1.5195   1.5196   1.7197   1.7197   1.9005   1.9005   2.0312   2.0312
     2.3484   2.3484   2.4282   2.4282   2.4987   2.4988   2.6248   2.6248
     2.6552   2.6552   2.8130   2.8130   2.8918   3.0838   3.0838   3.7941
     3.7941   4.6507   4.6507   5.0973   5.0973   6.0931   6.0931   6.1251
     6.1251   6.3016   6.3017   6.8050   6.8874   6.8874

     occupation numbers 
     1.0000   1.0000   1.0000   1.0000   1.0000   1.0000   1.0000   1.0000
     1.0000   1.0000   1.0000   1.0000   1.0000   1.0000   1.0000   1.0000
     1.0000   1.0000   1.0000   1.0000   1.0000   1.0000   1.0000   1.0000
     1.0000   1.0000   1.0000   1.0000   1.0000   1.0000   1.0000   1.0000
     1.0000   1.0000   1.0000   1.0000   1.0000   1.0000   1.0000   1.0000
     1.0000   1.0000   1.0000   1.0000   1.0000   1.0000   1.0000   1.0000
     1.0000   1.0000   1.0000   1.0000   1.0000   1.0000

          k = 0.0000 0.0000 0.3097 (  5867 PWs)   bands (ev):

   -10.9551 -10.5201 -10.5200 -10.3660 -10.1825 -10.1824   1.0114   1.0114
     1.2878   1.2878   1.3102   1.3169   1.3225   1.3225   1.4826   1.4826
     1.5395   1.5395   1.6945   1.6945   1.8679   1.8679   1.8969   1.8969
     2.3852   2.3852   2.4460   2.4460   2.5083   2.5083   2.6171   2.6171
     2.6424   2.6424   2.7606   2.7606   3.2007   3.3424   3.3424   3.9351
     3.9352   4.6229   4.6229   5.1856   5.1857   6.1085   6.1085   6.1772
     6.1772   6.2255   6.2255   6.2430   6.8375   6.8375

     occupation numbers 
     1.0000   1.0000   1.0000   1.0000   1.0000   1.0000   1.0000   1.0000
     1.0000   1.0000   1.0000   1.0000   1.0000   1.0000   1.0000   1.0000
     1.0000   1.0000   1.0000   1.0000   1.0000   1.0000   1.0000   1.0000
     1.0000   1.0000   1.0000   1.0000   1.0000   1.0000   1.0000   1.0000
     1.0000   1.0000   1.0000   1.0000   1.0000   1.0000   1.0000   1.0000
     1.0000   1.0000   1.0000   1.0000   1.0000   1.0000   1.0000   1.0000
     1.0000   1.0000   1.0000   1.0000   1.0000   1.0000

          k = 0.0000 0.0000 0.6194 (  5886 PWs)   bands (ev):

   -10.8351 -10.4951 -10.4471 -10.4470 -10.2519 -10.2518   0.9559   0.9559
     1.0906   1.0906   1.1614   1.2062   1.3451   1.3451   1.4366   1.4366
     1.5967   1.5967   1.6673   1.6674   1.7583   1.7583   1.7846   1.7846
     2.4786   2.4786   2.4918   2.4918   2.5338   2.5338   2.5917   2.5917
     2.6096   2.6096   2.6819   2.6819   3.6415   3.6415   3.8753   4.0473
     4.0473   4.9084   4.9084   5.4186   5.4186   5.4566   5.9793   5.9793
     6.0155   6.0155   6.3190   6.3190   6.7004   6.7004

     occupation numbers 
     1.0000   1.0000   1.0000   1.0000   1.0000   1.0000   1.0000   1.0000
     1.0000   1.0000   1.0000   1.0000   1.0000   1.0000   1.0000   1.0000
     1.0000   1.0000   1.0000   1.0000   1.0000   1.0000   1.0000   1.0000
     1.0000   1.0000   1.0000   1.0000   1.0000   1.0000   1.0000   1.0000
     1.0000   1.0000   1.0000   1.0000   1.0000   1.0000   1.0000   1.0000
     1.0000   1.0000   1.0000   1.0000   1.0000   1.0000   1.0000   1.0000
     1.0000   1.0000   1.0000   1.0000   1.0000   1.0000

          k = 0.0000 0.0000-0.9292 (  5890 PWs)   bands (ev):

   -10.6674 -10.6673 -10.3487 -10.3486 -10.3485 -10.3485   0.9620   0.9620
     0.9620   0.9620   1.1297   1.1298   1.3852   1.3852   1.3852   1.3852
     1.6841   1.6841   1.6841   1.6841   1.6874   1.6874   1.6874   1.6875
     2.5468   2.5468   2.5468   2.5468   2.5701   2.5701   2.5701   2.5702
     2.5850   2.5850   2.5850   2.5851   3.8757   3.8758   3.8758   3.8758
     4.6601   4.6601   5.5303   5.5304   5.5304   5.5304   5.7224   5.7225
     5.7225   5.7225   6.5108   6.5108   6.5109   6.5109

     occupation numbers 
     1.0000   1.0000   1.0000   1.0000   1.0000   1.0000   1.0000   1.0000
     1.0000   1.0000   1.0000   1.0000   1.0000   1.0000   1.0000   1.0000
     1.0000   1.0000   1.0000   1.0000   1.0000   1.0000   1.0000   1.0000
     1.0000   1.0000   1.0000   1.0000   1.0000   1.0000   1.0000   1.0000
     1.0000   1.0000   1.0000   1.0000   1.0000   1.0000   1.0000   1.0000
     1.0000   1.0000   1.0000   1.0000   1.0000   1.0000   1.0000   1.0000
     1.0000   1.0000   1.0000   1.0000   1.0000   1.0000

          k = 0.0000 0.5774 0.0000 (  5897 PWs)   bands (ev):

   -10.8593 -10.6321 -10.3566 -10.2580 -10.1781 -10.1366   1.1448   1.1787
     1.2098   1.3347   1.3939   1.4175   1.4530   1.4978   1.5272   1.5839
     1.5845   1.6182   1.6647   1.7926   1.8373   1.9688   2.0460   2.1149
     2.3225   2.3719   2.4055   2.4269   2.4472   2.4730   2.6358   2.6484
     2.6836   2.7479   2.8198   2.8613   2.8732   3.0203   3.0747   3.6813
     4.1031   4.4221   4.4227   4.6354   5.2257   5.2290   5.6135   5.7794
     5.7885   5.7976   6.2537   6.2864   6.6256   6.7031

     occupation numbers 
     1.0000   1.0000   1.0000   1.0000   1.0000   1.0000   1.0000   1.0000
     1.0000   1.0000   1.0000   1.0000   1.0000   1.0000   1.0000   1.0000
     1.0000   1.0000   1.0000   1.0000   1.0000   1.0000   1.0000   1.0000
     1.0000   1.0000   1.0000   1.0000   1.0000   1.0000   1.0000   1.0000
     1.0000   1.0000   1.0000   1.0000   1.0000   1.0000   1.0000   1.0000
     1.0000   1.0000   1.0000   1.0000   1.0000   1.0000   1.0000   1.0000
     1.0000   1.0000   1.0000   1.0000   1.0000   1.0000

          k = 0.0000 0.5774 0.3097 (  5895 PWs)   bands (ev):

   -10.8202 -10.6015 -10.3401 -10.2995 -10.2081 -10.1494   1.1086   1.1496
     1.1780   1.2850   1.3367   1.3762   1.4035   1.4548   1.5188   1.5573
     1.5637   1.5905   1.5969   1.7730   1.8092   1.8094   1.9824   2.0290
     2.3642   2.4013   2.4171   2.4440   2.4789   2.5393   2.6255   2.6363
     2.6724   2.6804   2.7500   2.8696   3.1154   3.2560   3.3752   3.6971
     4.2092   4.5551   4.6101   4.6168   5.2328   5.2751   5.5973   5.6315
     5.7987   5.8520   6.1733   6.2739   6.5473   6.6436

     occupation numbers 
     1.0000   1.0000   1.0000   1.0000   1.0000   1.0000   1.0000   1.0000
     1.0000   1.0000   1.0000   1.0000   1.0000   1.0000   1.0000   1.0000
     1.0000   1.0000   1.0000   1.0000   1.0000   1.0000   1.0000   1.0000
     1.0000   1.0000   1.0000   1.0000   1.0000   1.0000   1.0000   1.0000
     1.0000   1.0000   1.0000   1.0000   1.0000   1.0000   1.0000   1.0000
     1.0000   1.0000   1.0000   1.0000   1.0000   1.0000   1.0000   1.0000
     1.0000   1.0000   1.0000   1.0000   1.0000   1.0000

          k = 0.0000 0.5774 0.6194 (  5905 PWs)   bands (ev):

   -10.7127 -10.5178 -10.4120 -10.2961 -10.2904 -10.1858   1.0368   1.0820
     1.1038   1.1268   1.1443   1.1968   1.4331   1.4425   1.5169   1.5220
     1.5381   1.5437   1.5839   1.6853   1.7338   1.7417   1.8904   1.9133
     2.4609   2.4695   2.4884   2.4958   2.5183   2.5677   2.5934   2.6056
     2.6172   2.6725   2.6913   2.8116   3.2568   3.5916   3.8659   3.9343
     4.4657   4.5350   4.9825   5.0817   5.1229   5.3664   5.3814   5.5975
     5.8448   5.9570   6.0235   6.0905   6.2838   6.4801

     occupation numbers 
     1.0000   1.0000   1.0000   1.0000   1.0000   1.0000   1.0000   1.0000
     1.0000   1.0000   1.0000   1.0000   1.0000   1.0000   1.0000   1.0000
     1.0000   1.0000   1.0000   1.0000   1.0000   1.0000   1.0000   1.0000
     1.0000   1.0000   1.0000   1.0000   1.0000   1.0000   1.0000   1.0000
     1.0000   1.0000   1.0000   1.0000   1.0000   1.0000   1.0000   1.0000
     1.0000   1.0000   1.0000   1.0000   1.0000   1.0000   1.0000   1.0000
     1.0000   1.0000   1.0000   1.0000   1.0000   1.0000

          k = 0.0000 0.5774-0.9292 (  5908 PWs)   bands (ev):

   -10.5636 -10.5635 -10.4038 -10.4037 -10.2391 -10.2390   1.0209   1.0209
     1.0549   1.0549   1.0857   1.0857   1.4697   1.4698   1.4827   1.4827
     1.5328   1.5328   1.6623   1.6623   1.6781   1.6781   1.8597   1.8597
     2.5440   2.5440   2.5485   2.5485   2.5519   2.5519   2.5531   2.5531
     2.5835   2.5835   2.7389   2.7389   3.4275   3.4275   4.2135   4.2135
     4.6007   4.6008   4.9299   4.9299   5.5301   5.5301   5.6423   5.6423
     5.7237   5.7237   5.9120   5.9120   6.2537   6.2538

     occupation numbers 
     1.0000   1.0000   1.0000   1.0000   1.0000   1.0000   1.0000   1.0000
     1.0000   1.0000   1.0000   1.0000   1.0000   1.0000   1.0000   1.0000
     1.0000   1.0000   1.0000   1.0000   1.0000   1.0000   1.0000   1.0000
     1.0000   1.0000   1.0000   1.0000   1.0000   1.0000   1.0000   1.0000
     1.0000   1.0000   1.0000   1.0000   1.0000   1.0000   1.0000   1.0000
     1.0000   1.0000   1.0000   1.0000   1.0000   1.0000   1.0000   1.0000
     1.0000   1.0000   1.0000   1.0000   1.0000   1.0000

          k = 0.0000 1.1547 0.0000 (  5927 PWs)   bands (ev):

   -10.5469 -10.5469 -10.1943 -10.1942 -10.1574 -10.1573   1.0420   1.0420
     1.2800   1.3780   1.3780   1.5196   1.5196   1.6688   1.6688   1.7197
     1.7197   1.9005   1.9005   2.0258   2.0312   2.0312   2.2690   2.2690
     2.3484   2.3484   2.3627   2.4857   2.4987   2.4988   2.5315   2.5316
     2.6552   2.6552   2.8130   2.8130   3.0838   3.0838   3.2411   3.4120
     3.4120   3.7941   3.7941   4.6507   4.6507   5.0283   5.0284   5.0973
     5.0973   5.2183   6.0931   6.0931   6.3016   6.3016

     occupation numbers 
     1.0000   1.0000   1.0000   1.0000   1.0000   1.0000   1.0000   1.0000
     1.0000   1.0000   1.0000   1.0000   1.0000   1.0000   1.0000   1.0000
     1.0000   1.0000   1.0000   1.0000   1.0000   1.0000   1.0000   1.0000
     1.0000   1.0000   1.0000   1.0000   1.0000   1.0000   1.0000   1.0000
     1.0000   1.0000   1.0000   1.0000   1.0000   1.0000   1.0000   1.0000
     1.0000   1.0000   1.0000   1.0000   1.0000   1.0000   1.0000   1.0000
     1.0000   1.0000   1.0000   1.0000   1.0000   1.0000

          k = 0.0000 1.1547 0.3097 (  5889 PWs)   bands (ev):

   -10.5201 -10.5200 -10.1919 -10.1918 -10.1825 -10.1824   1.0114   1.0114
     1.2878   1.2878   1.3081   1.5395   1.5395   1.5787   1.5787   1.6945
     1.6945   1.8679   1.8679   1.8969   1.8969   1.9187   2.1585   2.1585
     2.3793   2.3852   2.3852   2.4791   2.5083   2.5083   2.6424   2.6424
     2.6812   2.6812   2.7606   2.7606   3.3424   3.3424   3.3685   3.3685
     3.4090   3.9351   3.9352   4.6229   4.6229   5.0893   5.1856   5.1857
     5.1982   5.1983   6.1085   6.1085   6.2255   6.2255

     occupation numbers 
     1.0000   1.0000   1.0000   1.0000   1.0000   1.0000   1.0000   1.0000
     1.0000   1.0000   1.0000   1.0000   1.0000   1.0000   1.0000   1.0000
     1.0000   1.0000   1.0000   1.0000   1.0000   1.0000   1.0000   1.0000
     1.0000   1.0000   1.0000   1.0000   1.0000   1.0000   1.0000   1.0000
     1.0000   1.0000   1.0000   1.0000   1.0000   1.0000   1.0000   1.0000
     1.0000   1.0000   1.0000   1.0000   1.0000   1.0000   1.0000   1.0000
     1.0000   1.0000   1.0000   1.0000   1.0000   1.0000

          k = 0.0000 1.1547 0.6194 (  5909 PWs)   bands (ev):

   -10.4471 -10.4470 -10.2519 -10.2518 -10.1872 -10.1871   0.9559   0.9559
     1.0906   1.0906   1.3917   1.4031   1.4031   1.5967   1.5967   1.6673
     1.6674   1.7171   1.7583   1.7583   1.7846   1.7846   2.0771   2.0771
     2.4064   2.4607   2.4786   2.4786   2.5338   2.5338   2.6096   2.6096
     2.6819   2.6819   2.8530   2.8530   3.2872   3.2873   3.6415   3.6415
     3.8035   4.0473   4.0473   4.7453   4.9084   4.9084   5.4186   5.4186
     5.5234   5.5235   5.9793   5.9793   6.0155   6.0155

     occupation numbers 
     1.0000   1.0000   1.0000   1.0000   1.0000   1.0000   1.0000   1.0000
     1.0000   1.0000   1.0000   1.0000   1.0000   1.0000   1.0000   1.0000
     1.0000   1.0000   1.0000   1.0000   1.0000   1.0000   1.0000   1.0000
     1.0000   1.0000   1.0000   1.0000   1.0000   1.0000   1.0000   1.0000
     1.0000   1.0000   1.0000   1.0000   1.0000   1.0000   1.0000   1.0000
     1.0000   1.0000   1.0000   1.0000   1.0000   1.0000   1.0000   1.0000
     1.0000   1.0000   1.0000   1.0000   1.0000   1.0000

          k = 0.0000 1.1547-0.9292 (  5928 PWs)   bands (ev):

   -10.3487 -10.3486 -10.3485 -10.3485 -10.1848 -10.1847   0.9620   0.9620
     0.9620   0.9620   1.3212   1.3212   1.5305   1.5306   1.6841   1.6841
     1.6841   1.6841   1.6874   1.6874   1.6874   1.6875   2.0556   2.0556
     2.4346   2.4346   2.5701   2.5701   2.5701   2.5702   2.5850   2.5850
     2.5850   2.5851   2.9254   2.9254   3.2429   3.2430   3.8757   3.8758
     3.8758   3.8758   4.2827   4.2827   5.5303   5.5304   5.5304   5.5304
     5.6818   5.6819   5.7224   5.7224   5.7225   5.7225

     occupation numbers 
     1.0000   1.0000   1.0000   1.0000   1.0000   1.0000   1.0000   1.0000
     1.0000   1.0000   1.0000   1.0000   1.0000   1.0000   1.0000   1.0000
     1.0000   1.0000   1.0000   1.0000   1.0000   1.0000   1.0000   1.0000
     1.0000   1.0000   1.0000   1.0000   1.0000   1.0000   1.0000   1.0000
     1.0000   1.0000   1.0000   1.0000   1.0000   1.0000   1.0000   1.0000
     1.0000   1.0000   1.0000   1.0000   1.0000   1.0000   1.0000   1.0000
     1.0000   1.0000   1.0000   1.0000   1.0000   1.0000

          k = 0.0000-1.7321 0.0000 (  5910 PWs)   bands (ev):

   -10.3566 -10.3566 -10.3492 -10.1406 -10.1367 -10.1366   1.1141   1.2098
     1.2098   1.3230   1.4530   1.4530   1.5609   1.5839   1.5839   1.7926
     1.7926   1.9413   1.9538   2.0460   2.0460   2.0753   2.1149   2.1149
     2.4055   2.4055   2.4641   2.4730   2.4730   2.5908   2.6705   2.6836
     2.6836   2.7417   2.8732   2.8732   3.0747   3.0747   3.2047   3.4268
     3.6813   3.6813   4.1031   4.1031   4.1406   4.4221   4.4221   4.7140
     5.6135   5.6135   5.6403   5.7976   5.7976   6.0830

     occupation numbers 
     1.0000   1.0000   1.0000   1.0000   1.0000   1.0000   1.0000   1.0000
     1.0000   1.0000   1.0000   1.0000   1.0000   1.0000   1.0000   1.0000
     1.0000   1.0000   1.0000   1.0000   1.0000   1.0000   1.0000   1.0000
     1.0000   1.0000   1.0000   1.0000   1.0000   1.0000   1.0000   1.0000
     1.0000   1.0000   1.0000   1.0000   1.0000   1.0000   1.0000   1.0000
     1.0000   1.0000   1.0000   1.0000   1.0000   1.0000   1.0000   1.0000
     1.0000   1.0000   1.0000   1.0000   1.0000   1.0000

          k = 0.0000-1.7321 0.3097 (  5936 PWs)   bands (ev):

   -10.3401 -10.3401 -10.3334 -10.1525 -10.1494 -10.1494   1.0698   1.1780
     1.1781   1.2255   1.3762   1.3763   1.5637   1.5637   1.5871   1.7730
     1.7730   1.9133   1.9195   1.9824   1.9824   2.0290   2.0290   2.0308
     2.4171   2.4171   2.5266   2.5393   2.5393   2.5930   2.6574   2.6804
     2.6804   2.7410   2.8696   2.8696   3.1154   3.1154   3.1660   3.3762
     3.6971   3.6971   4.2092   4.2092   4.4237   4.6168   4.6168   4.8201
     5.5973   5.5973   5.7267   5.7986   5.7987   5.9987

     occupation numbers 
     1.0000   1.0000   1.0000   1.0000   1.0000   1.0000   1.0000   1.0000
     1.0000   1.0000   1.0000   1.0000   1.0000   1.0000   1.0000   1.0000
     1.0000   1.0000   1.0000   1.0000   1.0000   1.0000   1.0000   1.0000
     1.0000   1.0000   1.0000   1.0000   1.0000   1.0000   1.0000   1.0000
     1.0000   1.0000   1.0000   1.0000   1.0000   1.0000   1.0000   1.0000
     1.0000   1.0000   1.0000   1.0000   1.0000   1.0000   1.0000   1.0000
     1.0000   1.0000   1.0000   1.0000   1.0000   1.0000

          k = 0.0000-1.7321 0.6194 (  5928 PWs)   bands (ev):

   -10.2961 -10.2961 -10.2913 -10.1867 -10.1858 -10.1858   0.9826   1.0471
     1.1038   1.1038   1.1968   1.1968   1.5839   1.5839   1.6641   1.7338
     1.7338   1.8687   1.8803   1.8904   1.8904   1.9133   1.9133   1.9178
     2.4958   2.4958   2.5677   2.5677   2.6003   2.6268   2.6329   2.6913
     2.6913   2.7317   2.8116   2.8116   3.1456   3.2568   3.2568   3.2754
     3.5916   3.5916   4.5350   4.5350   5.0141   5.0817   5.0818   5.0928
     5.3814   5.3814   5.7659   5.7927   5.8448   5.8448

     occupation numbers 
     1.0000   1.0000   1.0000   1.0000   1.0000   1.0000   1.0000   1.0000
     1.0000   1.0000   1.0000   1.0000   1.0000   1.0000   1.0000   1.0000
     1.0000   1.0000   1.0000   1.0000   1.0000   1.0000   1.0000   1.0000
     1.0000   1.0000   1.0000   1.0000   1.0000   1.0000   1.0000   1.0000
     1.0000   1.0000   1.0000   1.0000   1.0000   1.0000   1.0000   1.0000
     1.0000   1.0000   1.0000   1.0000   1.0000   1.0000   1.0000   1.0000
     1.0000   1.0000   1.0000   1.0000   1.0000   1.0000

          k = 0.0000-1.7321-0.9292 (  5916 PWs)   bands (ev):

   -10.2391 -10.2390 -10.2390 -10.2390 -10.2371 -10.2370   0.9527   0.9527
     1.0856   1.0857   1.0857   1.0857   1.6623   1.6623   1.6623   1.6623
     1.7820   1.7821   1.8586   1.8587   1.8597   1.8597   1.8597   1.8597
     2.5531   2.5531   2.5531   2.5531   2.6133   2.6133   2.6978   2.6978
     2.7389   2.7389   2.7389   2.7389   3.1878   3.1878   3.4275   3.4275
     3.4275   3.4275   4.9299   4.9299   4.9299   4.9300   5.4385   5.4386
     5.5539   5.5540   5.6423   5.6423   5.6423   5.6423

     occupation numbers 
     1.0000   1.0000   1.0000   1.0000   1.0000   1.0000   1.0000   1.0000
     1.0000   1.0000   1.0000   1.0000   1.0000   1.0000   1.0000   1.0000
     1.0000   1.0000   1.0000   1.0000   1.0000   1.0000   1.0000   1.0000
     1.0000   1.0000   1.0000   1.0000   1.0000   1.0000   1.0000   1.0000
     1.0000   1.0000   1.0000   1.0000   1.0000   1.0000   1.0000   1.0000
     1.0000   1.0000   1.0000   1.0000   1.0000   1.0000   1.0000   1.0000
     1.0000   1.0000   1.0000   1.0000   1.0000   1.0000

          k =-0.5000-0.2887 0.0000 (  5862 PWs)   bands (ev):

   -10.8593 -10.8592 -10.3492 -10.2581 -10.2580 -10.1406   1.1141   1.1787
     1.1787   1.3230   1.3939   1.3939   1.4175   1.4175   1.4978   1.4978
     1.5609   1.6182   1.6182   1.6647   1.6647   1.9413   1.9538   2.0753
     2.3718   2.3719   2.4269   2.4269   2.4641   2.5908   2.6358   2.6358
     2.6705   2.7417   2.7479   2.7479   2.8613   2.8613   3.2047   3.4268
     4.1406   4.7140   5.2257   5.2257   5.6403   5.7794   5.7794   5.7885
     5.7886   6.0830   6.6256   6.6257   6.7030   6.7031

     occupation numbers 
     1.0000   1.0000   1.0000   1.0000   1.0000   1.0000   1.0000   1.0000
     1.0000   1.0000   1.0000   1.0000   1.0000   1.0000   1.0000   1.0000
     1.0000   1.0000   1.0000   1.0000   1.0000   1.0000   1.0000   1.0000
     1.0000   1.0000   1.0000   1.0000   1.0000   1.0000   1.0000   1.0000
     1.0000   1.0000   1.0000   1.0000   1.0000   1.0000   1.0000   1.0000
     1.0000   1.0000   1.0000   1.0000   1.0000   1.0000   1.0000   1.0000
     1.0000   1.0000   1.0000   1.0000   1.0000   1.0000

          k =-0.5000-0.2887 0.3097 (  5870 PWs)   bands (ev):

   -10.8203 -10.8202 -10.3334 -10.2995 -10.2995 -10.1525   1.0698   1.1496
     1.1496   1.2255   1.3367   1.3367   1.4035   1.4035   1.4548   1.4548
     1.5871   1.5905   1.5905   1.5968   1.5969   1.9133   1.9195   2.0308
     2.4013   2.4013   2.4440   2.4440   2.5266   2.5930   2.6255   2.6255
     2.6574   2.6724   2.6724   2.7410   3.1660   3.2560   3.2560   3.3762
     4.4237   4.8201   5.2751   5.2751   5.6315   5.6315   5.7267   5.8520
     5.8520   5.9987   6.5473   6.5473   6.6436   6.6437

     occupation numbers 
     1.0000   1.0000   1.0000   1.0000   1.0000   1.0000   1.0000   1.0000
     1.0000   1.0000   1.0000   1.0000   1.0000   1.0000   1.0000   1.0000
     1.0000   1.0000   1.0000   1.0000   1.0000   1.0000   1.0000   1.0000
     1.0000   1.0000   1.0000   1.0000   1.0000   1.0000   1.0000   1.0000
     1.0000   1.0000   1.0000   1.0000   1.0000   1.0000   1.0000   1.0000
     1.0000   1.0000   1.0000   1.0000   1.0000   1.0000   1.0000   1.0000
     1.0000   1.0000   1.0000   1.0000   1.0000   1.0000

          k =-0.5000-0.2887 0.6194 (  5898 PWs)   bands (ev):

   -10.7127 -10.7127 -10.4120 -10.4120 -10.2913 -10.1867   0.9826   1.0471
     1.0820   1.0820   1.1443   1.1443   1.4331   1.4332   1.4425   1.4425
     1.5220   1.5221   1.5437   1.5437   1.6641   1.8687   1.8803   1.9178
     2.4695   2.4695   2.4884   2.4884   2.5934   2.5934   2.6003   2.6172
     2.6172   2.6268   2.6329   2.7317   3.1456   3.2754   3.9343   3.9343
     5.0141   5.0928   5.1229   5.1229   5.5974   5.5975   5.7659   5.7927
     6.0235   6.0235   6.2838   6.2838   6.4801   6.4801

     occupation numbers 
     1.0000   1.0000   1.0000   1.0000   1.0000   1.0000   1.0000   1.0000
     1.0000   1.0000   1.0000   1.0000   1.0000   1.0000   1.0000   1.0000
     1.0000   1.0000   1.0000   1.0000   1.0000   1.0000   1.0000   1.0000
     1.0000   1.0000   1.0000   1.0000   1.0000   1.0000   1.0000   1.0000
     1.0000   1.0000   1.0000   1.0000   1.0000   1.0000   1.0000   1.0000
     1.0000   1.0000   1.0000   1.0000   1.0000   1.0000   1.0000   1.0000
     1.0000   1.0000   1.0000   1.0000   1.0000   1.0000

          k =-0.5000-0.2887-0.9292 (  5900 PWs)   bands (ev):

   -10.5637 -10.5636 -10.5636 -10.5635 -10.2371 -10.2370   0.9527   0.9527
     1.0549   1.0549   1.0549   1.0549   1.4697   1.4697   1.4698   1.4698
     1.4827   1.4827   1.4827   1.4827   1.7820   1.7821   1.8586   1.8587
     2.5440   2.5440   2.5440   2.5440   2.5485   2.5485   2.5485   2.5485
     2.6133   2.6133   2.6978   2.6978   3.1878   3.1878   4.6007   4.6008
     4.6008   4.6008   5.4385   5.4386   5.5539   5.5540   5.9120   5.9120
     5.9120   5.9120   6.2537   6.2538   6.2538   6.2538

     occupation numbers 
     1.0000   1.0000   1.0000   1.0000   1.0000   1.0000   1.0000   1.0000
     1.0000   1.0000   1.0000   1.0000   1.0000   1.0000   1.0000   1.0000
     1.0000   1.0000   1.0000   1.0000   1.0000   1.0000   1.0000   1.0000
     1.0000   1.0000   1.0000   1.0000   1.0000   1.0000   1.0000   1.0000
     1.0000   1.0000   1.0000   1.0000   1.0000   1.0000   1.0000   1.0000
     1.0000   1.0000   1.0000   1.0000   1.0000   1.0000   1.0000   1.0000
     1.0000   1.0000   1.0000   1.0000   1.0000   1.0000

          k =-0.5000 0.8660 0.0000 (  5921 PWs)   bands (ev):

   -10.6321 -10.3566 -10.3566 -10.1781 -10.1367 -10.1366   1.1448   1.2098
     1.2098   1.3347   1.4530   1.4530   1.5272   1.5839   1.5839   1.5845
     1.7926   1.7926   1.8373   1.9688   2.0460   2.0460   2.1149   2.1149
     2.3225   2.4055   2.4055   2.4472   2.4730   2.4730   2.6484   2.6836
     2.6836   2.8198   2.8732   2.8732   3.0203   3.0747   3.0747   3.6813
     3.6813   4.1031   4.1031   4.4221   4.4221   4.4227   4.6354   5.2290
     5.6135   5.6135   5.7976   5.7976   6.2537   6.2864

     occupation numbers 
     1.0000   1.0000   1.0000   1.0000   1.0000   1.0000   1.0000   1.0000
     1.0000   1.0000   1.0000   1.0000   1.0000   1.0000   1.0000   1.0000
     1.0000   1.0000   1.0000   1.0000   1.0000   1.0000   1.0000   1.0000
     1.0000   1.0000   1.0000   1.0000   1.0000   1.0000   1.0000   1.0000
     1.0000   1.0000   1.0000   1.0000   1.0000   1.0000   1.0000   1.0000
     1.0000   1.0000   1.0000   1.0000   1.0000   1.0000   1.0000   1.0000
     1.0000   1.0000   1.0000   1.0000   1.0000   1.0000

          k =-0.5000 0.8660 0.3097 (  5928 PWs)   bands (ev):

   -10.6015 -10.3401 -10.3400 -10.2081 -10.1494 -10.1494   1.1086   1.1780
     1.1780   1.2850   1.3762   1.3763   1.5188   1.5573   1.5637   1.5637
     1.7730   1.7730   1.8092   1.8094   1.9824   1.9824   2.0290   2.0290
     2.3642   2.4171   2.4171   2.4789   2.5393   2.5393   2.6363   2.6804
     2.6804   2.7500   2.8696   2.8696   3.1154   3.1154   3.3752   3.6971
     3.6971   4.2092   4.2092   4.5551   4.6101   4.6168   4.6168   5.2328
     5.5973   5.5973   5.7986   5.7987   6.1733   6.2739

     occupation numbers 
     1.0000   1.0000   1.0000   1.0000   1.0000   1.0000   1.0000   1.0000
     1.0000   1.0000   1.0000   1.0000   1.0000   1.0000   1.0000   1.0000
     1.0000   1.0000   1.0000   1.0000   1.0000   1.0000   1.0000   1.0000
     1.0000   1.0000   1.0000   1.0000   1.0000   1.0000   1.0000   1.0000
     1.0000   1.0000   1.0000   1.0000   1.0000   1.0000   1.0000   1.0000
     1.0000   1.0000   1.0000   1.0000   1.0000   1.0000   1.0000   1.0000
     1.0000   1.0000   1.0000   1.0000   1.0000   1.0000

          k =-0.5000 0.8660 0.6194 (  5920 PWs)   bands (ev):

   -10.5178 -10.2961 -10.2961 -10.2904 -10.1858 -10.1857   1.0368   1.1038
     1.1038   1.1268   1.1968   1.1968   1.5169   1.5381   1.5839   1.5839
     1.6853   1.7338   1.7338   1.7417   1.8904   1.8904   1.9133   1.9133
     2.4609   2.4958   2.4958   2.5183   2.5677   2.5677   2.6056   2.6725
     2.6913   2.6913   2.8116   2.8116   3.2568   3.2568   3.5916   3.5916
     3.8659   4.4657   4.5350   4.5350   4.9825   5.0817   5.0818   5.3664
     5.3814   5.3814   5.8448   5.8448   5.9570   6.0905

     occupation numbers 
     1.0000   1.0000   1.0000   1.0000   1.0000   1.0000   1.0000   1.0000
     1.0000   1.0000   1.0000   1.0000   1.0000   1.0000   1.0000   1.0000
     1.0000   1.0000   1.0000   1.0000   1.0000   1.0000   1.0000   1.0000
     1.0000   1.0000   1.0000   1.0000   1.0000   1.0000   1.0000   1.0000
     1.0000   1.0000   1.0000   1.0000   1.0000   1.0000   1.0000   1.0000
     1.0000   1.0000   1.0000   1.0000   1.0000   1.0000   1.0000   1.0000
     1.0000   1.0000   1.0000   1.0000   1.0000   1.0000

          k =-0.5000 0.8660-0.9292 (  5916 PWs)   bands (ev):

   -10.4038 -10.4037 -10.2391 -10.2390 -10.2390 -10.2390   1.0209   1.0209
     1.0857   1.0857   1.0857   1.0857   1.5328   1.5328   1.6623   1.6623
     1.6623   1.6623   1.6781   1.6781   1.8597   1.8597   1.8597   1.8597
     2.5519   2.5519   2.5531   2.5531   2.5531   2.5532   2.5835   2.5835
     2.7389   2.7389   2.7389   2.7389   3.4275   3.4275   3.4275   3.4275
     4.2135   4.2135   4.9299   4.9299   4.9299   4.9300   5.5301   5.5301
     5.6423   5.6423   5.6423   5.6423   5.7236   5.7237

     occupation numbers 
     1.0000   1.0000   1.0000   1.0000   1.0000   1.0000   1.0000   1.0000
     1.0000   1.0000   1.0000   1.0000   1.0000   1.0000   1.0000   1.0000
     1.0000   1.0000   1.0000   1.0000   1.0000   1.0000   1.0000   1.0000
     1.0000   1.0000   1.0000   1.0000   1.0000   1.0000   1.0000   1.0000
     1.0000   1.0000   1.0000   1.0000   1.0000   1.0000   1.0000   1.0000
     1.0000   1.0000   1.0000   1.0000   1.0000   1.0000   1.0000   1.0000
     1.0000   1.0000   1.0000   1.0000   1.0000   1.0000

          k = 0.5000-0.2887-0.3097 (  5895 PWs)   bands (ev):

   -10.8202 -10.6015 -10.3401 -10.2995 -10.2081 -10.1494   1.1086   1.1496
     1.1780   1.2850   1.3367   1.3762   1.4035   1.4548   1.5188   1.5573
     1.5637   1.5905   1.5969   1.7730   1.8092   1.8094   1.9824   2.0290
     2.3642   2.4013   2.4171   2.4440   2.4789   2.5393   2.6255   2.6363
     2.6724   2.6804   2.7500   2.8696   3.1154   3.2560   3.3752   3.6971
     4.2092   4.5551   4.6101   4.6168   5.2328   5.2751   5.5973   5.6315
     5.7987   5.8520   6.1733   6.2739   6.5473   6.6436

     occupation numbers 
     1.0000   1.0000   1.0000   1.0000   1.0000   1.0000   1.0000   1.0000
     1.0000   1.0000   1.0000   1.0000   1.0000   1.0000   1.0000   1.0000
     1.0000   1.0000   1.0000   1.0000   1.0000   1.0000   1.0000   1.0000
     1.0000   1.0000   1.0000   1.0000   1.0000   1.0000   1.0000   1.0000
     1.0000   1.0000   1.0000   1.0000   1.0000   1.0000   1.0000   1.0000
     1.0000   1.0000   1.0000   1.0000   1.0000   1.0000   1.0000   1.0000
     1.0000   1.0000   1.0000   1.0000   1.0000   1.0000

          k = 0.5000-0.2887-0.6194 (  5905 PWs)   bands (ev):

   -10.7127 -10.5178 -10.4120 -10.2961 -10.2904 -10.1858   1.0368   1.0820
     1.1038   1.1268   1.1443   1.1968   1.4331   1.4425   1.5169   1.5221
     1.5381   1.5437   1.5839   1.6853   1.7338   1.7417   1.8904   1.9133
     2.4609   2.4695   2.4884   2.4958   2.5183   2.5677   2.5934   2.6056
     2.6172   2.6725   2.6913   2.8116   3.2568   3.5916   3.8659   3.9343
     4.4657   4.5350   4.9825   5.0818   5.1229   5.3664   5.3814   5.5974
     5.8448   5.9570   6.0235   6.0905   6.2838   6.4801

     occupation numbers 
     1.0000   1.0000   1.0000   1.0000   1.0000   1.0000   1.0000   1.0000
     1.0000   1.0000   1.0000   1.0000   1.0000   1.0000   1.0000   1.0000
     1.0000   1.0000   1.0000   1.0000   1.0000   1.0000   1.0000   1.0000
     1.0000   1.0000   1.0000   1.0000   1.0000   1.0000   1.0000   1.0000
     1.0000   1.0000   1.0000   1.0000   1.0000   1.0000   1.0000   1.0000
     1.0000   1.0000   1.0000   1.0000   1.0000   1.0000   1.0000   1.0000
     1.0000   1.0000   1.0000   1.0000   1.0000   1.0000

     highest occupied level (ev):     6.8874

!    total energy              =   -1084.91066371 Ry
     estimated scf accuracy    <          4.6E-09 Ry

     The total energy is the sum of the following terms:
     one-electron contribution =    -463.57536962 Ry
     hartree contribution      =     354.86710867 Ry
     xc contribution           =    -328.63820680 Ry
     ewald contribution        =    -647.56419596 Ry

     convergence has been achieved in  45 iterations

     Forces acting on atoms (cartesian axes, Ry/au):

     atom    1 type  1   force =     0.00001807    0.00001043    0.00006458
     atom    2 type  1   force =     0.00000858    0.00000495    0.00005984
     atom    3 type  2   force =    -0.00000042   -0.00000024   -0.00006287
     atom    4 type  2   force =    -0.00000253   -0.00000146   -0.00006281
     atom    5 type  1   force =    -0.00001887   -0.00001090    0.00007024
     atom    6 type  1   force =    -0.00000122   -0.00000070    0.00005750
     atom    7 type  2   force =    -0.00000074   -0.00000043   -0.00006273
     atom    8 type  2   force =    -0.00000110   -0.00000064   -0.00006225
     atom    9 type  1   force =     0.00000173    0.00000100    0.00007238
     atom   10 type  1   force =    -0.00000275   -0.00000159    0.00005079
     atom   11 type  2   force =    -0.00000078   -0.00000045   -0.00006279
     atom   12 type  2   force =     0.00000002    0.00000001   -0.00006186
     The non-local contrib.  to forces
     atom    1 type  1   force =     0.00001014    0.00000586   -0.00483165
     atom    2 type  1   force =     0.00000762    0.00000440   -0.00483586
     atom    3 type  2   force =    -0.00000293   -0.00000169    0.00575510
     atom    4 type  2   force =    -0.00000974   -0.00000562    0.00575111
     atom    5 type  1   force =    -0.00000920   -0.00000531   -0.00482831
     atom    6 type  1   force =    -0.00000492   -0.00000284   -0.00483796
     atom    7 type  2   force =     0.00000410    0.00000237    0.00575423
     atom    8 type  2   force =     0.00000184    0.00000106    0.00575148
     atom    9 type  1   force =    -0.00000093   -0.00000054   -0.00482508
     atom   10 type  1   force =    -0.00000210   -0.00000121   -0.00483899
     atom   11 type  2   force =    -0.00000036   -0.00000021    0.00575578
     atom   12 type  2   force =     0.00000581    0.00000335    0.00575428
     The ionic contribution  to forces
     atom    1 type  1   force =     0.00000001    0.00000000    0.06271747
     atom    2 type  1   force =     0.00000000    0.00000000    0.06271747
     atom    3 type  2   force =     0.00000001    0.00000000   -0.06271747
     atom    4 type  2   force =     0.00000000    0.00000000   -0.06271747
     atom    5 type  1   force =    -0.00000001    0.00000000    0.06271747
     atom    6 type  1   force =     0.00000001   -0.00000000    0.06271747
     atom    7 type  2   force =    -0.00000000    0.00000000   -0.06271747
     atom    8 type  2   force =     0.00000000   -0.00000000   -0.06271747
     atom    9 type  1   force =    -0.00000000   -0.00000000    0.06271747
     atom   10 type  1   force =    -0.00000001   -0.00000000    0.06271747
     atom   11 type  2   force =    -0.00000000   -0.00000000   -0.06271747
     atom   12 type  2   force =    -0.00000001   -0.00000000   -0.06271747
     The local contribution  to forces
     atom    1 type  1   force =    -0.00002823   -0.00001629   -0.05829540
     atom    2 type  1   force =    -0.00001592   -0.00000924   -0.05827874
     atom    3 type  2   force =    -0.00001407   -0.00000812    0.05697361
     atom    4 type  2   force =     0.00000255    0.00000145    0.05697419
     atom    5 type  1   force =     0.00003071    0.00001783   -0.05830375
     atom    6 type  1   force =     0.00000717    0.00000404   -0.05827905
     atom    7 type  2   force =     0.00000612    0.00000356    0.05697477
     atom    8 type  2   force =     0.00001036    0.00000595    0.05696175
     atom    9 type  1   force =    -0.00000361   -0.00000203   -0.05831310
     atom   10 type  1   force =     0.00000577    0.00000333   -0.05826464
     atom   11 type  2   force =     0.00000244    0.00000142    0.05697418
     atom   12 type  2   force =    -0.00000932   -0.00000538    0.05696070
     The core correction contribution to forces
     atom    1 type  1   force =     0.00000029    0.00000017    0.00046427
     atom    2 type  1   force =    -0.00000000   -0.00000001    0.00046360
     atom    3 type  2   force =     0.00000000    0.00000000   -0.00006502
     atom    4 type  2   force =     0.00000016    0.00000009   -0.00006495
     atom    5 type  1   force =    -0.00000062   -0.00000034    0.00046428
     atom    6 type  1   force =     0.00000004    0.00000001    0.00046400
     atom    7 type  2   force =    -0.00000004   -0.00000003   -0.00006501
     atom    8 type  2   force =    -0.00000000   -0.00000000   -0.00006500
     atom    9 type  1   force =     0.00000027    0.00000016    0.00046448
     atom   10 type  1   force =    -0.00000015   -0.00000009    0.00046332
     atom   11 type  2   force =     0.00000001    0.00000001   -0.00006504
     atom   12 type  2   force =    -0.00000011   -0.00000007   -0.00006504
     The Hubbard contrib.    to forces
     atom    1 type  1   force =     0.00000000    0.00000000    0.00000000
     atom    2 type  1   force =     0.00000000    0.00000000    0.00000000
     atom    3 type  2   force =     0.00000000    0.00000000    0.00000000
     atom    4 type  2   force =     0.00000000    0.00000000    0.00000000
     atom    5 type  1   force =     0.00000000    0.00000000    0.00000000
     atom    6 type  1   force =     0.00000000    0.00000000    0.00000000
     atom    7 type  2   force =     0.00000000    0.00000000    0.00000000
     atom    8 type  2   force =     0.00000000    0.00000000    0.00000000
     atom    9 type  1   force =     0.00000000    0.00000000    0.00000000
     atom   10 type  1   force =     0.00000000    0.00000000    0.00000000
     atom   11 type  2   force =     0.00000000    0.00000000    0.00000000
     atom   12 type  2   force =     0.00000000    0.00000000    0.00000000
     The SCF correction term to forces
     atom    1 type  1   force =     0.00003680    0.00002125    0.00000930
     atom    2 type  1   force =     0.00001784    0.00001030   -0.00000722
     atom    3 type  2   force =     0.00001752    0.00001011   -0.00000967
     atom    4 type  2   force =     0.00000546    0.00000315   -0.00000627
     atom    5 type  1   force =    -0.00003887   -0.00002244    0.00001997
     atom    6 type  1   force =    -0.00000253   -0.00000146   -0.00000755
     atom    7 type  2   force =    -0.00000998   -0.00000576   -0.00000984
     atom    8 type  2   force =    -0.00001235   -0.00000713    0.00000640
     atom    9 type  1   force =     0.00000694    0.00000400    0.00002801
     atom   10 type  1   force =    -0.00000531   -0.00000306   -0.00002696
     atom   11 type  2   force =    -0.00000194   -0.00000112   -0.00001082
     atom   12 type  2   force =     0.00000460    0.00000266    0.00000509

     Total force =     0.000220     Total SCF correction =     0.000088
     SCF correction compared to forces is large: reduce conv_thr to get better values

     init_run     :      4.63s CPU      4.24s WALL (       1 calls)
     electrons    :    332.47s CPU    257.99s WALL (       1 calls)
     forces       :      1.67s CPU      1.44s WALL (       1 calls)

     Called by init_run:
     wfcinit      :      2.18s CPU      1.75s WALL (       1 calls)
     wfcinit:atom :      0.02s CPU      0.02s WALL (      13 calls)
     wfcinit:wfcr :      2.03s CPU      1.63s WALL (      13 calls)
     potinit      :      0.76s CPU      0.77s WALL (       1 calls)
     hinit0       :      1.36s CPU      1.38s WALL (       1 calls)

     Called by electrons:
     c_bands      :    293.22s CPU    225.24s WALL (      45 calls)
     sum_band     :     32.28s CPU     26.91s WALL (      45 calls)
     v_of_rho     :      2.31s CPU      2.00s WALL (      46 calls)
     v_h          :      0.13s CPU      0.13s WALL (      46 calls)
     v_xc         :      2.22s CPU      1.91s WALL (      47 calls)
     newd         :      4.19s CPU      3.45s WALL (      46 calls)
     mix_rho      :      0.38s CPU      0.33s WALL (      45 calls)

     Called by c_bands:
     init_us_2    :      1.54s CPU      1.29s WALL (    1196 calls)
     init_us_2:cp :      1.53s CPU      1.29s WALL (    1196 calls)
     cegterg      :    276.69s CPU    211.32s WALL (     585 calls)

     Called by sum_band:
     sum_band:wei :      0.00s CPU      0.00s WALL (      45 calls)
     sum_band:loo :     26.69s CPU     22.66s WALL (      45 calls)
     sum_band:buf :      0.12s CPU      0.12s WALL (     585 calls)
     sum_band:ini :      0.74s CPU      0.61s WALL (     585 calls)
     sum_band:cal :      4.29s CPU      2.31s WALL (     585 calls)
     sum_band:bec :      0.13s CPU      0.11s WALL (     585 calls)
     addusdens    :      5.17s CPU      3.82s WALL (      45 calls)
                                        0.00s GPU  (      45 calls)
     addusd:skk   :      0.04s CPU      0.04s WALL (      90 calls)
                                        0.00s GPU  (      90 calls)

     Called by *egterg:
     cdiaghg      :     37.65s CPU     29.23s WALL (    3318 calls)
     cegterg:over :     16.02s CPU      8.75s WALL (    2733 calls)
     cegterg:upda :      8.89s CPU      4.69s WALL (    2733 calls)
     cegterg:last :     21.39s CPU     10.99s WALL (    1882 calls)
     h_psi        :    172.74s CPU    147.07s WALL (    3331 calls)
     s_psi        :     15.88s CPU      8.32s WALL (    3331 calls)
     g_psi        :      0.83s CPU      0.62s WALL (    2733 calls)

     Called by h_psi:
     h_psi:calbec :     16.09s CPU      8.86s WALL (    3331 calls)
     vloc_psi     :    140.08s CPU    129.39s WALL (    3331 calls)
     add_vuspsi   :     16.07s CPU      8.43s WALL (    3331 calls)

     General routines
     calbec       :     20.73s CPU     11.36s WALL (    3968 calls)
     fft          :      1.77s CPU      1.71s WALL (     607 calls)
     ffts         :      0.21s CPU      0.21s WALL (      91 calls)
     fftw         :    142.03s CPU    132.46s WALL (  251988 calls)
     interpolate  :      0.29s CPU      0.28s WALL (      46 calls)

     Parallel routines

     PWSCF        :   5m39.21s CPU   4m24.13s WALL


   This run was terminated on:  17:12:23  17Jul2025            

=------------------------------------------------------------------------------=
   JOB DONE.
=------------------------------------------------------------------------------=
Note: The following floating-point exceptions are signalling: IEEE_INVALID_FLAG
Note: The following floating-point exceptions are signalling: IEEE_INVALID_FLAG
