Authorization required, but no authorization protocol specified

Authorization required, but no authorization protocol specified

Authorization required, but no authorization protocol specified

Authorization required, but no authorization protocol specified

Authorization required, but no authorization protocol specified

Authorization required, but no authorization protocol specified

Authorization required, but no authorization protocol specified

Authorization required, but no authorization protocol specified

Authorization required, but no authorization protocol specified

Authorization required, but no authorization protocol specified

Authorization required, but no authorization protocol specified

Authorization required, but no authorization protocol specified

Authorization required, but no authorization protocol specified

Authorization required, but no authorization protocol specified

Authorization required, but no authorization protocol specified

Authorization required, but no authorization protocol specified

Authorization required, but no authorization protocol specified

Authorization required, but no authorization protocol specified


     Program PWSCF v.7.2 starts on 17Jul2025 at 16:46:54 

     This program is part of the open-source Quantum ESPRESSO suite
     for quantum simulation of materials; please cite
         "P. Giannozzi et al., J. Phys.:Condens. Matter 21 395502 (2009);
         "P. Giannozzi et al., J. Phys.:Condens. Matter 29 465901 (2017);
         "P. Giannozzi et al., J. Chem. Phys. 152 154105 (2020);
          URL http://www.quantum-espresso.org", 
     in publications or presentations arising from this work. More details at
     http://www.quantum-espresso.org/quote

     Parallel version (MPI), running on    16 processors

     MPI processes distributed on     1 nodes
     80480 MiB available memory on the printing compute node when the environment starts

     Reading input from /home/jvc/QEspresso7.2/ZnO_database/scripts/cell311.in/ZnO-3.40-1.65-311.in
Warning: card &CELL ignored
Warning: card / ignored
Warning: card &FCP ignored
Warning: card / ignored
Warning: card &RISM ignored
Warning: card / ignored

     Current dimensions of program PWSCF are:
     Max number of different atomic species (ntypx) = 10
     Max number of k-points (npk) =  40000
     Max angular momentum in pseudopotentials (lmaxx) =  4
     file Zn.upf: wavefunction(s)  3D renormalized
     Found identity + (  0.3333  0.0000  0.0000) symmetry
     This is a supercell, fractional translations are disabled
     Message from routine setup:
     using ibrav=0 with symmetry is DISCOURAGED, use correct ibrav instead

     K-points division:     npool     =       2
     R & G space division:  proc/nbgrp/npool/nimage =       8
     Subspace diagonalization in iterative solution of the eigenvalue problem:
     a serial algorithm will be used


     Parallelization info
     --------------------
     sticks:   dense  smooth     PW     G-vecs:    dense   smooth      PW
     Min         394     196     59                16705     5900     971
     Max         395     197     60                16706     5903     974
     Sum        3153    1573    477               133647    47209    7785

     Using Slab Decomposition



     bravais-lattice index     =            0
     lattice parameter (alat)  =      18.5365  a.u.
     unit-cell volume          =     989.3930 (a.u.)^3
     number of atoms/cell      =           12
     number of atomic types    =            2
     number of electrons       =       108.00
     number of Kohn-Sham states=           54
     kinetic-energy cutoff     =      50.0000  Ry
     charge density cutoff     =     400.0000  Ry
     scf convergence threshold =      1.0E-08
     mixing beta               =       0.3000
     number of iterations used =            8  plain     mixing
     Exchange-correlation= PBE
                           (   1   4   3   4   0   0   0)

     celldm(1)=  18.536466  celldm(2)=   0.000000  celldm(3)=   0.000000
     celldm(4)=   0.000000  celldm(5)=   0.000000  celldm(6)=   0.000000

     crystal axes: (cart. coord. in units of alat)
               a(1) = (   1.000000   0.000000   0.000000 )  
               a(2) = (  -0.166667   0.288675   0.000000 )  
               a(3) = (   0.000000   0.000000   0.538119 )  

     reciprocal axes: (cart. coord. in units 2 pi/alat)
               b(1) = (  1.000000  0.577350 -0.000000 )  
               b(2) = (  0.000000  3.464102  0.000000 )  
               b(3) = (  0.000000 -0.000000  1.858323 )  


     PseudoPot. # 1 for Zn read from file:
     /home/jvc/QEspresso7.2/ZnO_database/pseudos/Zn.upf
     MD5 check sum: 7f56cabf9682ed8c977c2f7d0c5985c5
     Pseudo is Ultrasoft + core correction, Zval = 12.0
     Generated using &quot;atomic&quot; code by A. Dal Corso  v.6.2.2
     Using radial grid of 1201 points,  6 beta functions with: 
                l(1) =   0
                l(2) =   0
                l(3) =   1
                l(4) =   1
                l(5) =   2
                l(6) =   2
     Q(r) pseudized with 0 coefficients 


     PseudoPot. # 2 for O  read from file:
     /home/jvc/QEspresso7.2/ZnO_database/pseudos/O.upf
     MD5 check sum: 91400c9766925bcf19f520983a725ff0
     Pseudo is Ultrasoft + core correction, Zval =  6.0
     Generated using &quot;atomic&quot; code by A. Dal Corso  v.6.3MaX
     Using radial grid of 1095 points,  4 beta functions with: 
                l(1) =   0
                l(2) =   0
                l(3) =   1
                l(4) =   1
     Q(r) pseudized with 0 coefficients 


     atomic species   valence    mass     pseudopotential
        Zn            12.00    65.38000     Zn( 1.00)
        O              6.00    15.99900     O ( 1.00)

      2 Sym. Ops. (no inversion) found


                                    s                        frac. trans.

      isym =  1     identity                                     

 cryst.   s( 1) = (     1          0          0      )
                  (     0          1          0      )
                  (     0          0          1      )

 cart.    s( 1) = (  1.0000000  0.0000000  0.0000000 )
                  (  0.0000000  1.0000000  0.0000000 )
                  (  0.0000000  0.0000000  1.0000000 )


      isym =  2     inv. 180 deg rotation - cryst. axis [0,1,0]  

 cryst.   s( 2) = (     1          3          0      )
                  (     0         -1          0      )
                  (     0          0          1      )

 cart.    s( 2) = (  0.5000000  0.8660254  0.0000000 )
                  (  0.8660254 -0.5000000  0.0000000 )
                  (  0.0000000  0.0000000  1.0000000 )


   Cartesian axes

     site n.     atom                  positions (alat units)
         1           Zn  tau(   1) = (   0.1666667   0.0962250   0.2694007  )
         2           Zn  tau(   2) = (   0.0000000   0.1924501   0.0003409  )
         3           O   tau(   3) = (   0.1666667   0.0962250   0.4733710  )
         4           O   tau(   4) = (   0.0000000   0.1924501   0.2043113  )
         5           Zn  tau(   5) = (   0.5000000   0.0962250   0.2694007  )
         6           Zn  tau(   6) = (   0.3333333   0.1924501   0.0003409  )
         7           O   tau(   7) = (   0.5000000   0.0962250   0.4733710  )
         8           O   tau(   8) = (   0.3333333   0.1924501   0.2043113  )
         9           Zn  tau(   9) = (   0.8333333   0.0962250   0.2694007  )
        10           Zn  tau(  10) = (   0.6666667   0.1924501   0.0003409  )
        11           O   tau(  11) = (   0.8333333   0.0962250   0.4733710  )
        12           O   tau(  12) = (   0.6666667   0.1924501   0.2043113  )

   Crystallographic axes

     site n.     atom                  positions (cryst. coord.)
         1           Zn  tau(   1) = (  0.2222222  0.3333333  0.5006336  )
         2           Zn  tau(   2) = (  0.1111111  0.6666667  0.0006336  )
         3           O   tau(   3) = (  0.2222222  0.3333333  0.8796764  )
         4           O   tau(   4) = (  0.1111111  0.6666667  0.3796764  )
         5           Zn  tau(   5) = (  0.5555556  0.3333333  0.5006336  )
         6           Zn  tau(   6) = (  0.4444444  0.6666667  0.0006336  )
         7           O   tau(   7) = (  0.5555556  0.3333333  0.8796764  )
         8           O   tau(   8) = (  0.4444444  0.6666667  0.3796764  )
         9           Zn  tau(   9) = (  0.8888889  0.3333333  0.5006336  )
        10           Zn  tau(  10) = (  0.7777778  0.6666667  0.0006336  )
        11           O   tau(  11) = (  0.8888889  0.3333333  0.8796764  )
        12           O   tau(  12) = (  0.7777778  0.6666667  0.3796764  )

     number of k points=    26
                       cart. coord. in units 2pi/alat
        k(    1) = (   0.0000000   0.0000000   0.0000000), wk =   0.0277778
        k(    2) = (   0.0000000   0.0000000   0.3097206), wk =   0.0555556
        k(    3) = (   0.0000000   0.0000000   0.6194412), wk =   0.0555556
        k(    4) = (   0.0000000   0.0000000  -0.9291617), wk =   0.0277778
        k(    5) = (   0.0000000   0.5773503   0.0000000), wk =   0.1111111
        k(    6) = (   0.0000000   0.5773503   0.3097206), wk =   0.1111111
        k(    7) = (   0.0000000   0.5773503   0.6194412), wk =   0.1111111
        k(    8) = (   0.0000000   0.5773503  -0.9291617), wk =   0.1111111
        k(    9) = (   0.0000000   1.1547005   0.0000000), wk =   0.0555556
        k(   10) = (   0.0000000   1.1547005   0.3097206), wk =   0.1111111
        k(   11) = (   0.0000000   1.1547005   0.6194412), wk =   0.1111111
        k(   12) = (   0.0000000   1.1547005  -0.9291617), wk =   0.0555556
        k(   13) = (   0.0000000  -1.7320508   0.0000000), wk =   0.0555556
        k(   14) = (   0.0000000  -1.7320508   0.3097206), wk =   0.1111111
        k(   15) = (   0.0000000  -1.7320508   0.6194412), wk =   0.1111111
        k(   16) = (   0.0000000  -1.7320508  -0.9291617), wk =   0.0555556
        k(   17) = (  -0.5000000  -0.2886751   0.0000000), wk =   0.0277778
        k(   18) = (  -0.5000000  -0.2886751   0.3097206), wk =   0.0555556
        k(   19) = (  -0.5000000  -0.2886751   0.6194412), wk =   0.0555556
        k(   20) = (  -0.5000000  -0.2886751  -0.9291617), wk =   0.0277778
        k(   21) = (  -0.5000000   0.8660254   0.0000000), wk =   0.0555556
        k(   22) = (  -0.5000000   0.8660254   0.3097206), wk =   0.1111111
        k(   23) = (  -0.5000000   0.8660254   0.6194412), wk =   0.1111111
        k(   24) = (  -0.5000000   0.8660254  -0.9291617), wk =   0.0555556
        k(   25) = (   0.5000000  -0.2886751  -0.3097206), wk =   0.1111111
        k(   26) = (   0.5000000  -0.2886751  -0.6194412), wk =   0.1111111

                       cryst. coord.
        k(    1) = (   0.0000000   0.0000000   0.0000000), wk =   0.0277778
        k(    2) = (   0.0000000   0.0000000   0.1666667), wk =   0.0555556
        k(    3) = (   0.0000000   0.0000000   0.3333333), wk =   0.0555556
        k(    4) = (   0.0000000   0.0000000  -0.5000000), wk =   0.0277778
        k(    5) = (   0.0000000   0.1666667   0.0000000), wk =   0.1111111
        k(    6) = (   0.0000000   0.1666667   0.1666667), wk =   0.1111111
        k(    7) = (   0.0000000   0.1666667   0.3333333), wk =   0.1111111
        k(    8) = (   0.0000000   0.1666667  -0.5000000), wk =   0.1111111
        k(    9) = (   0.0000000   0.3333333   0.0000000), wk =   0.0555556
        k(   10) = (   0.0000000   0.3333333   0.1666667), wk =   0.1111111
        k(   11) = (   0.0000000   0.3333333   0.3333333), wk =   0.1111111
        k(   12) = (   0.0000000   0.3333333  -0.5000000), wk =   0.0555556
        k(   13) = (   0.0000000  -0.5000000   0.0000000), wk =   0.0555556
        k(   14) = (   0.0000000  -0.5000000   0.1666667), wk =   0.1111111
        k(   15) = (   0.0000000  -0.5000000   0.3333333), wk =   0.1111111
        k(   16) = (   0.0000000  -0.5000000  -0.5000000), wk =   0.0555556
        k(   17) = (  -0.5000000   0.0000000   0.0000000), wk =   0.0277778
        k(   18) = (  -0.5000000   0.0000000   0.1666667), wk =   0.0555556
        k(   19) = (  -0.5000000   0.0000000   0.3333333), wk =   0.0555556
        k(   20) = (  -0.5000000   0.0000000  -0.5000000), wk =   0.0277778
        k(   21) = (  -0.5000000   0.3333333   0.0000000), wk =   0.0555556
        k(   22) = (  -0.5000000   0.3333333   0.1666667), wk =   0.1111111
        k(   23) = (  -0.5000000   0.3333333   0.3333333), wk =   0.1111111
        k(   24) = (  -0.5000000   0.3333333  -0.5000000), wk =   0.0555556
        k(   25) = (   0.5000000  -0.1666667  -0.1666667), wk =   0.1111111
        k(   26) = (   0.5000000  -0.1666667  -0.3333333), wk =   0.1111111

     Dense  grid:   133647 G-vectors     FFT dimensions: ( 120,  40,  64)

     Smooth grid:    47209 G-vectors     FFT dimensions: (  90,  27,  45)

     Dynamical RAM for                 wfc:       0.61 MB

     Dynamical RAM for     wfc (w. buffer):       8.51 MB

     Dynamical RAM for           str. fact:       0.51 MB

     Dynamical RAM for           local pot:       0.00 MB

     Dynamical RAM for          nlocal pot:       1.76 MB

     Dynamical RAM for                qrad:       3.21 MB

     Dynamical RAM for          rho,v,vnew:       1.64 MB

     Dynamical RAM for               rhoin:       0.55 MB

     Dynamical RAM for            rho*nmix:       4.08 MB

     Dynamical RAM for           G-vectors:       1.00 MB

     Dynamical RAM for          h,s,v(r/c):       0.53 MB

     Dynamical RAM for          <psi|beta>:       0.13 MB

     Dynamical RAM for                 psi:       1.22 MB

     Dynamical RAM for                hpsi:       1.22 MB

     Dynamical RAM for                spsi:       1.22 MB

     Dynamical RAM for      wfcinit/wfcrot:       1.90 MB

     Dynamical RAM for           addusdens:      24.60 MB

     Dynamical RAM for          addusforce:      25.90 MB

     Estimated static dynamical RAM per process >      19.41 MB

     Estimated max dynamical RAM per process >      49.39 MB

     Estimated total dynamical RAM >     757.59 MB

     Check: negative core charge=   -0.000002

     Initial potential from superposition of free atoms

     starting charge     107.9776, renormalised to     108.0000
     Starting wfcs are   78 randomized atomic wfcs

     total cpu time spent up to now is        4.7 secs

     Self-consistent Calculation

     iteration #  1     ecut=    50.00 Ry     beta= 0.30
     Davidson diagonalization with overlap

---- Real-time Memory Report at c_bands before calling an iterative solver
            68 MiB given to the printing process from OS
             0 MiB allocation reported by mallinfo(arena+hblkhd)
         79704 MiB available memory on the node where the printing process lives
------------------
     ethr =  1.00E-02,  avg # of iterations =  2.0

     total cpu time spent up to now is        8.2 secs

     total energy              =   -1084.43799411 Ry
     estimated scf accuracy    <       2.07852747 Ry

     iteration #  2     ecut=    50.00 Ry     beta= 0.30
     Davidson diagonalization with overlap

---- Real-time Memory Report at c_bands before calling an iterative solver
            83 MiB given to the printing process from OS
             0 MiB allocation reported by mallinfo(arena+hblkhd)
         79544 MiB available memory on the node where the printing process lives
------------------
     ethr =  1.92E-03,  avg # of iterations =  2.1

     total cpu time spent up to now is       12.5 secs

     total energy              =   -1084.73296054 Ry
     estimated scf accuracy    <       0.26784124 Ry

     iteration #  3     ecut=    50.00 Ry     beta= 0.30
     Davidson diagonalization with overlap

---- Real-time Memory Report at c_bands before calling an iterative solver
            84 MiB given to the printing process from OS
             0 MiB allocation reported by mallinfo(arena+hblkhd)
         79546 MiB available memory on the node where the printing process lives
------------------
     ethr =  2.48E-04,  avg # of iterations =  6.5

     total cpu time spent up to now is       19.9 secs

     total energy              =   -1084.82709428 Ry
     estimated scf accuracy    <       0.18250655 Ry

     iteration #  4     ecut=    50.00 Ry     beta= 0.30
     Davidson diagonalization with overlap

---- Real-time Memory Report at c_bands before calling an iterative solver
            84 MiB given to the printing process from OS
             0 MiB allocation reported by mallinfo(arena+hblkhd)
         79565 MiB available memory on the node where the printing process lives
------------------
     ethr =  1.69E-04,  avg # of iterations =  8.8

     total cpu time spent up to now is       29.2 secs

     total energy              =   -1084.96282993 Ry
     estimated scf accuracy    <       0.80363702 Ry

     iteration #  5     ecut=    50.00 Ry     beta= 0.30
     Davidson diagonalization with overlap

---- Real-time Memory Report at c_bands before calling an iterative solver
            84 MiB given to the printing process from OS
             0 MiB allocation reported by mallinfo(arena+hblkhd)
         79567 MiB available memory on the node where the printing process lives
------------------
     ethr =  1.69E-04,  avg # of iterations =  2.0

     total cpu time spent up to now is       32.8 secs

     total energy              =   -1084.59598268 Ry
     estimated scf accuracy    <       0.47906097 Ry

     iteration #  6     ecut=    50.00 Ry     beta= 0.30
     Davidson diagonalization with overlap

---- Real-time Memory Report at c_bands before calling an iterative solver
            84 MiB given to the printing process from OS
             0 MiB allocation reported by mallinfo(arena+hblkhd)
         79567 MiB available memory on the node where the printing process lives
------------------
     ethr =  1.69E-04,  avg # of iterations = 10.6

     total cpu time spent up to now is       42.8 secs

     total energy              =   -1084.83337602 Ry
     estimated scf accuracy    <       1.33137085 Ry

     iteration #  7     ecut=    50.00 Ry     beta= 0.30
     Davidson diagonalization with overlap

---- Real-time Memory Report at c_bands before calling an iterative solver
            84 MiB given to the printing process from OS
             0 MiB allocation reported by mallinfo(arena+hblkhd)
         79569 MiB available memory on the node where the printing process lives
------------------
     ethr =  1.69E-04,  avg # of iterations =  5.0

     total cpu time spent up to now is       48.6 secs

     total energy              =   -1084.93625107 Ry
     estimated scf accuracy    <       0.18609178 Ry

     iteration #  8     ecut=    50.00 Ry     beta= 0.30
     Davidson diagonalization with overlap

---- Real-time Memory Report at c_bands before calling an iterative solver
            85 MiB given to the printing process from OS
             0 MiB allocation reported by mallinfo(arena+hblkhd)
         79570 MiB available memory on the node where the printing process lives
------------------
     ethr =  1.69E-04,  avg # of iterations =  1.3

     total cpu time spent up to now is       52.0 secs

     total energy              =   -1084.93060462 Ry
     estimated scf accuracy    <       0.17267167 Ry

     iteration #  9     ecut=    50.00 Ry     beta= 0.30
     Davidson diagonalization with overlap

---- Real-time Memory Report at c_bands before calling an iterative solver
            85 MiB given to the printing process from OS
             0 MiB allocation reported by mallinfo(arena+hblkhd)
         79569 MiB available memory on the node where the printing process lives
------------------
     ethr =  1.60E-04,  avg # of iterations =  1.3

     total cpu time spent up to now is       55.3 secs

     total energy              =   -1084.90035184 Ry
     estimated scf accuracy    <       0.14072773 Ry

     iteration # 10     ecut=    50.00 Ry     beta= 0.30
     Davidson diagonalization with overlap

---- Real-time Memory Report at c_bands before calling an iterative solver
            85 MiB given to the printing process from OS
             0 MiB allocation reported by mallinfo(arena+hblkhd)
         79569 MiB available memory on the node where the printing process lives
------------------
     ethr =  1.30E-04,  avg # of iterations =  1.9

     total cpu time spent up to now is       58.9 secs

     total energy              =   -1084.88441508 Ry
     estimated scf accuracy    <       0.06974072 Ry

     iteration # 11     ecut=    50.00 Ry     beta= 0.30
     Davidson diagonalization with overlap

---- Real-time Memory Report at c_bands before calling an iterative solver
            85 MiB given to the printing process from OS
             0 MiB allocation reported by mallinfo(arena+hblkhd)
         79570 MiB available memory on the node where the printing process lives
------------------
     ethr =  6.46E-05,  avg # of iterations =  4.8

     total cpu time spent up to now is       64.1 secs

     total energy              =   -1084.90957682 Ry
     estimated scf accuracy    <       0.00009035 Ry

     iteration # 12     ecut=    50.00 Ry     beta= 0.30
     Davidson diagonalization with overlap

---- Real-time Memory Report at c_bands before calling an iterative solver
            85 MiB given to the printing process from OS
             0 MiB allocation reported by mallinfo(arena+hblkhd)
         79570 MiB available memory on the node where the printing process lives
------------------
     c_bands:  1 eigenvalues not converged
     ethr =  8.37E-08,  avg # of iterations = 13.5

     total cpu time spent up to now is       77.3 secs

     total energy              =   -1084.91038587 Ry
     estimated scf accuracy    <       0.00240069 Ry

     iteration # 13     ecut=    50.00 Ry     beta= 0.30
     Davidson diagonalization with overlap

---- Real-time Memory Report at c_bands before calling an iterative solver
            85 MiB given to the printing process from OS
             0 MiB allocation reported by mallinfo(arena+hblkhd)
         79571 MiB available memory on the node where the printing process lives
------------------
     ethr =  8.37E-08,  avg # of iterations = 10.1

     total cpu time spent up to now is       87.6 secs

     total energy              =   -1084.91081755 Ry
     estimated scf accuracy    <       0.00008881 Ry

     iteration # 14     ecut=    50.00 Ry     beta= 0.30
     Davidson diagonalization with overlap

---- Real-time Memory Report at c_bands before calling an iterative solver
            85 MiB given to the printing process from OS
             0 MiB allocation reported by mallinfo(arena+hblkhd)
         79571 MiB available memory on the node where the printing process lives
------------------
     ethr =  8.22E-08,  avg # of iterations =  7.3

     total cpu time spent up to now is       95.3 secs

     total energy              =   -1084.91025012 Ry
     estimated scf accuracy    <       0.00082721 Ry

     iteration # 15     ecut=    50.00 Ry     beta= 0.30
     Davidson diagonalization with overlap

---- Real-time Memory Report at c_bands before calling an iterative solver
            85 MiB given to the printing process from OS
             0 MiB allocation reported by mallinfo(arena+hblkhd)
         79571 MiB available memory on the node where the printing process lives
------------------
     ethr =  8.22E-08,  avg # of iterations = 12.2

     total cpu time spent up to now is      107.7 secs

     total energy              =   -1084.91049670 Ry
     estimated scf accuracy    <       0.00155665 Ry

     iteration # 16     ecut=    50.00 Ry     beta= 0.30
     Davidson diagonalization with overlap

---- Real-time Memory Report at c_bands before calling an iterative solver
            85 MiB given to the printing process from OS
             0 MiB allocation reported by mallinfo(arena+hblkhd)
         79571 MiB available memory on the node where the printing process lives
------------------
     ethr =  8.22E-08,  avg # of iterations =  9.0

     total cpu time spent up to now is      117.2 secs

     total energy              =   -1084.91067859 Ry
     estimated scf accuracy    <       0.00007350 Ry

     iteration # 17     ecut=    50.00 Ry     beta= 0.30
     Davidson diagonalization with overlap

---- Real-time Memory Report at c_bands before calling an iterative solver
            85 MiB given to the printing process from OS
             0 MiB allocation reported by mallinfo(arena+hblkhd)
         79571 MiB available memory on the node where the printing process lives
------------------
     ethr =  6.81E-08,  avg # of iterations =  1.3

     total cpu time spent up to now is      120.5 secs

     total energy              =   -1084.91070262 Ry
     estimated scf accuracy    <       0.00007579 Ry

     iteration # 18     ecut=    50.00 Ry     beta= 0.30
     Davidson diagonalization with overlap

---- Real-time Memory Report at c_bands before calling an iterative solver
            85 MiB given to the printing process from OS
             0 MiB allocation reported by mallinfo(arena+hblkhd)
         79571 MiB available memory on the node where the printing process lives
------------------
     ethr =  6.81E-08,  avg # of iterations =  1.0

     total cpu time spent up to now is      123.8 secs

     total energy              =   -1084.91066163 Ry
     estimated scf accuracy    <       0.00012503 Ry

     iteration # 19     ecut=    50.00 Ry     beta= 0.30
     Davidson diagonalization with overlap

---- Real-time Memory Report at c_bands before calling an iterative solver
            85 MiB given to the printing process from OS
             0 MiB allocation reported by mallinfo(arena+hblkhd)
         79571 MiB available memory on the node where the printing process lives
------------------
     ethr =  6.81E-08,  avg # of iterations =  2.0

     total cpu time spent up to now is      127.3 secs

     total energy              =   -1084.91065022 Ry
     estimated scf accuracy    <       0.00005260 Ry

     iteration # 20     ecut=    50.00 Ry     beta= 0.30
     Davidson diagonalization with overlap

---- Real-time Memory Report at c_bands before calling an iterative solver
            85 MiB given to the printing process from OS
             0 MiB allocation reported by mallinfo(arena+hblkhd)
         79571 MiB available memory on the node where the printing process lives
------------------
     ethr =  4.87E-08,  avg # of iterations =  3.1

     total cpu time spent up to now is      131.6 secs

     total energy              =   -1084.91066231 Ry
     estimated scf accuracy    <       0.00001179 Ry

     iteration # 21     ecut=    50.00 Ry     beta= 0.30
     Davidson diagonalization with overlap

---- Real-time Memory Report at c_bands before calling an iterative solver
            85 MiB given to the printing process from OS
             0 MiB allocation reported by mallinfo(arena+hblkhd)
         79571 MiB available memory on the node where the printing process lives
------------------
     ethr =  1.09E-08,  avg # of iterations =  5.3

     total cpu time spent up to now is      136.6 secs

     total energy              =   -1084.91066626 Ry
     estimated scf accuracy    <       0.00000835 Ry

     iteration # 22     ecut=    50.00 Ry     beta= 0.30
     Davidson diagonalization with overlap

---- Real-time Memory Report at c_bands before calling an iterative solver
            85 MiB given to the printing process from OS
             0 MiB allocation reported by mallinfo(arena+hblkhd)
         79571 MiB available memory on the node where the printing process lives
------------------
     ethr =  7.73E-09,  avg # of iterations =  1.6

     total cpu time spent up to now is      140.0 secs

     total energy              =   -1084.91066684 Ry
     estimated scf accuracy    <       0.00001103 Ry

     iteration # 23     ecut=    50.00 Ry     beta= 0.30
     Davidson diagonalization with overlap

---- Real-time Memory Report at c_bands before calling an iterative solver
            85 MiB given to the printing process from OS
             0 MiB allocation reported by mallinfo(arena+hblkhd)
         79571 MiB available memory on the node where the printing process lives
------------------
     ethr =  7.73E-09,  avg # of iterations =  1.2

     total cpu time spent up to now is      143.3 secs

     total energy              =   -1084.91066477 Ry
     estimated scf accuracy    <       0.00001222 Ry

     iteration # 24     ecut=    50.00 Ry     beta= 0.30
     Davidson diagonalization with overlap

---- Real-time Memory Report at c_bands before calling an iterative solver
            85 MiB given to the printing process from OS
             0 MiB allocation reported by mallinfo(arena+hblkhd)
         79571 MiB available memory on the node where the printing process lives
------------------
     ethr =  7.73E-09,  avg # of iterations =  1.1

     total cpu time spent up to now is      146.6 secs

     total energy              =   -1084.91066104 Ry
     estimated scf accuracy    <       0.00000809 Ry

     iteration # 25     ecut=    50.00 Ry     beta= 0.30
     Davidson diagonalization with overlap

---- Real-time Memory Report at c_bands before calling an iterative solver
            85 MiB given to the printing process from OS
             0 MiB allocation reported by mallinfo(arena+hblkhd)
         79571 MiB available memory on the node where the printing process lives
------------------
     ethr =  7.49E-09,  avg # of iterations =  4.8

     total cpu time spent up to now is      151.9 secs

     total energy              =   -1084.91066396 Ry
     estimated scf accuracy    <       0.00000034 Ry

     iteration # 26     ecut=    50.00 Ry     beta= 0.30
     Davidson diagonalization with overlap

---- Real-time Memory Report at c_bands before calling an iterative solver
            85 MiB given to the printing process from OS
             0 MiB allocation reported by mallinfo(arena+hblkhd)
         79571 MiB available memory on the node where the printing process lives
------------------
     ethr =  3.17E-10,  avg # of iterations =  9.3

     total cpu time spent up to now is      161.9 secs

     total energy              =   -1084.91066238 Ry
     estimated scf accuracy    <       0.00000548 Ry

     iteration # 27     ecut=    50.00 Ry     beta= 0.30
     Davidson diagonalization with overlap

---- Real-time Memory Report at c_bands before calling an iterative solver
            85 MiB given to the printing process from OS
             0 MiB allocation reported by mallinfo(arena+hblkhd)
         79571 MiB available memory on the node where the printing process lives
------------------
     ethr =  3.17E-10,  avg # of iterations = 10.2

     total cpu time spent up to now is      172.7 secs

     total energy              =   -1084.91066448 Ry
     estimated scf accuracy    <       0.00000026 Ry

     iteration # 28     ecut=    50.00 Ry     beta= 0.30
     Davidson diagonalization with overlap

---- Real-time Memory Report at c_bands before calling an iterative solver
            85 MiB given to the printing process from OS
             0 MiB allocation reported by mallinfo(arena+hblkhd)
         79571 MiB available memory on the node where the printing process lives
------------------
     ethr =  2.36E-10,  avg # of iterations = 10.2

     total cpu time spent up to now is      182.6 secs

     total energy              =   -1084.91066524 Ry
     estimated scf accuracy    <       0.00000544 Ry

     iteration # 29     ecut=    50.00 Ry     beta= 0.30
     Davidson diagonalization with overlap

---- Real-time Memory Report at c_bands before calling an iterative solver
            85 MiB given to the printing process from OS
             0 MiB allocation reported by mallinfo(arena+hblkhd)
         79571 MiB available memory on the node where the printing process lives
------------------
     ethr =  2.36E-10,  avg # of iterations =  1.8

     total cpu time spent up to now is      186.1 secs

     total energy              =   -1084.91066565 Ry
     estimated scf accuracy    <       0.00000574 Ry

     iteration # 30     ecut=    50.00 Ry     beta= 0.30
     Davidson diagonalization with overlap

---- Real-time Memory Report at c_bands before calling an iterative solver
            85 MiB given to the printing process from OS
             0 MiB allocation reported by mallinfo(arena+hblkhd)
         79571 MiB available memory on the node where the printing process lives
------------------
     ethr =  2.36E-10,  avg # of iterations =  2.2

     total cpu time spent up to now is      190.0 secs

     total energy              =   -1084.91066301 Ry
     estimated scf accuracy    <       0.00000694 Ry

     iteration # 31     ecut=    50.00 Ry     beta= 0.30
     Davidson diagonalization with overlap

---- Real-time Memory Report at c_bands before calling an iterative solver
            85 MiB given to the printing process from OS
             0 MiB allocation reported by mallinfo(arena+hblkhd)
         79571 MiB available memory on the node where the printing process lives
------------------
     ethr =  2.36E-10,  avg # of iterations =  9.8

     total cpu time spent up to now is      200.2 secs

     total energy              =   -1084.91066362 Ry
     estimated scf accuracy    <       0.00000032 Ry

     iteration # 32     ecut=    50.00 Ry     beta= 0.30
     Davidson diagonalization with overlap

---- Real-time Memory Report at c_bands before calling an iterative solver
            85 MiB given to the printing process from OS
             0 MiB allocation reported by mallinfo(arena+hblkhd)
         79571 MiB available memory on the node where the printing process lives
------------------
     ethr =  2.36E-10,  avg # of iterations =  5.3

     total cpu time spent up to now is      205.3 secs

     total energy              =   -1084.91066370 Ry
     estimated scf accuracy    <       0.00000003 Ry

     iteration # 33     ecut=    50.00 Ry     beta= 0.30
     Davidson diagonalization with overlap

---- Real-time Memory Report at c_bands before calling an iterative solver
            85 MiB given to the printing process from OS
             0 MiB allocation reported by mallinfo(arena+hblkhd)
         79571 MiB available memory on the node where the printing process lives
------------------
     ethr =  2.92E-11,  avg # of iterations =  5.0

     total cpu time spent up to now is      211.3 secs

     total energy              =   -1084.91066373 Ry
     estimated scf accuracy    <       0.00000003 Ry

     iteration # 34     ecut=    50.00 Ry     beta= 0.30
     Davidson diagonalization with overlap

---- Real-time Memory Report at c_bands before calling an iterative solver
            85 MiB given to the printing process from OS
             0 MiB allocation reported by mallinfo(arena+hblkhd)
         79571 MiB available memory on the node where the printing process lives
------------------
     ethr =  2.92E-11,  avg # of iterations =  2.4

     total cpu time spent up to now is      215.1 secs

     total energy              =   -1084.91066372 Ry
     estimated scf accuracy    <       0.00000006 Ry

     iteration # 35     ecut=    50.00 Ry     beta= 0.30
     Davidson diagonalization with overlap

---- Real-time Memory Report at c_bands before calling an iterative solver
            85 MiB given to the printing process from OS
             0 MiB allocation reported by mallinfo(arena+hblkhd)
         79571 MiB available memory on the node where the printing process lives
------------------
     ethr =  2.92E-11,  avg # of iterations =  1.1

     total cpu time spent up to now is      218.3 secs

     total energy              =   -1084.91066372 Ry
     estimated scf accuracy    <       0.00000005 Ry

     iteration # 36     ecut=    50.00 Ry     beta= 0.30
     Davidson diagonalization with overlap

---- Real-time Memory Report at c_bands before calling an iterative solver
            85 MiB given to the printing process from OS
             0 MiB allocation reported by mallinfo(arena+hblkhd)
         79571 MiB available memory on the node where the printing process lives
------------------
     ethr =  2.92E-11,  avg # of iterations =  1.0

     total cpu time spent up to now is      221.6 secs

     total energy              =   -1084.91066372 Ry
     estimated scf accuracy    <       0.00000004 Ry

     iteration # 37     ecut=    50.00 Ry     beta= 0.30
     Davidson diagonalization with overlap

---- Real-time Memory Report at c_bands before calling an iterative solver
            85 MiB given to the printing process from OS
             0 MiB allocation reported by mallinfo(arena+hblkhd)
         79571 MiB available memory on the node where the printing process lives
------------------
     ethr =  2.92E-11,  avg # of iterations =  1.0

     total cpu time spent up to now is      224.8 secs

     total energy              =   -1084.91066371 Ry
     estimated scf accuracy    <       0.00000004 Ry

     iteration # 38     ecut=    50.00 Ry     beta= 0.30
     Davidson diagonalization with overlap

---- Real-time Memory Report at c_bands before calling an iterative solver
            85 MiB given to the printing process from OS
             0 MiB allocation reported by mallinfo(arena+hblkhd)
         79571 MiB available memory on the node where the printing process lives
------------------
     ethr =  2.92E-11,  avg # of iterations =  1.0

     total cpu time spent up to now is      228.1 secs

     total energy              =   -1084.91066371 Ry
     estimated scf accuracy    <       0.00000004 Ry

     iteration # 39     ecut=    50.00 Ry     beta= 0.30
     Davidson diagonalization with overlap

---- Real-time Memory Report at c_bands before calling an iterative solver
            85 MiB given to the printing process from OS
             0 MiB allocation reported by mallinfo(arena+hblkhd)
         79571 MiB available memory on the node where the printing process lives
------------------
     ethr =  2.92E-11,  avg # of iterations =  4.7

     total cpu time spent up to now is      234.0 secs

     total energy              =   -1084.91066370 Ry
     estimated scf accuracy    <       0.00000005 Ry

     iteration # 40     ecut=    50.00 Ry     beta= 0.30
     Davidson diagonalization with overlap

---- Real-time Memory Report at c_bands before calling an iterative solver
            85 MiB given to the printing process from OS
             0 MiB allocation reported by mallinfo(arena+hblkhd)
         79571 MiB available memory on the node where the printing process lives
------------------
     ethr =  2.92E-11,  avg # of iterations =  5.8

     total cpu time spent up to now is      241.0 secs

     total energy              =   -1084.91066371 Ry
     estimated scf accuracy    <       0.00000004 Ry

     iteration # 41     ecut=    50.00 Ry     beta= 0.30
     Davidson diagonalization with overlap

---- Real-time Memory Report at c_bands before calling an iterative solver
            85 MiB given to the printing process from OS
             0 MiB allocation reported by mallinfo(arena+hblkhd)
         79571 MiB available memory on the node where the printing process lives
------------------
     ethr =  2.92E-11,  avg # of iterations =  1.0

     total cpu time spent up to now is      244.2 secs

     total energy              =   -1084.91066370 Ry
     estimated scf accuracy    <       0.00000003 Ry

     iteration # 42     ecut=    50.00 Ry     beta= 0.30
     Davidson diagonalization with overlap

---- Real-time Memory Report at c_bands before calling an iterative solver
            85 MiB given to the printing process from OS
             0 MiB allocation reported by mallinfo(arena+hblkhd)
         79571 MiB available memory on the node where the printing process lives
------------------
     ethr =  2.84E-11,  avg # of iterations =  7.2

     total cpu time spent up to now is      252.3 secs

     total energy              =   -1084.91066371 Ry
     estimated scf accuracy    <       0.00000008 Ry

     iteration # 43     ecut=    50.00 Ry     beta= 0.30
     Davidson diagonalization with overlap

---- Real-time Memory Report at c_bands before calling an iterative solver
            85 MiB given to the printing process from OS
             0 MiB allocation reported by mallinfo(arena+hblkhd)
         79571 MiB available memory on the node where the printing process lives
------------------
     ethr =  2.84E-11,  avg # of iterations =  2.2

     total cpu time spent up to now is      256.0 secs

     total energy              =   -1084.91066372 Ry
     estimated scf accuracy    <       0.00000005 Ry

     iteration # 44     ecut=    50.00 Ry     beta= 0.30
     Davidson diagonalization with overlap

---- Real-time Memory Report at c_bands before calling an iterative solver
            85 MiB given to the printing process from OS
             0 MiB allocation reported by mallinfo(arena+hblkhd)
         79571 MiB available memory on the node where the printing process lives
------------------
     ethr =  2.84E-11,  avg # of iterations =  1.0

     total cpu time spent up to now is      259.3 secs

     total energy              =   -1084.91066371 Ry
     estimated scf accuracy    <       0.00000006 Ry

     iteration # 45     ecut=    50.00 Ry     beta= 0.30
     Davidson diagonalization with overlap

---- Real-time Memory Report at c_bands before calling an iterative solver
            85 MiB given to the printing process from OS
             0 MiB allocation reported by mallinfo(arena+hblkhd)
         79571 MiB available memory on the node where the printing process lives
------------------
     ethr =  2.84E-11,  avg # of iterations =  1.5

     total cpu time spent up to now is      262.6 secs

     total energy              =   -1084.91066369 Ry
     estimated scf accuracy    <       0.00000003 Ry

     iteration # 46     ecut=    50.00 Ry     beta= 0.30
     Davidson diagonalization with overlap

---- Real-time Memory Report at c_bands before calling an iterative solver
            85 MiB given to the printing process from OS
             0 MiB allocation reported by mallinfo(arena+hblkhd)
         79571 MiB available memory on the node where the printing process lives
------------------
     ethr =  2.84E-11,  avg # of iterations =  7.4

     total cpu time spent up to now is      270.4 secs

     total energy              =   -1084.91066370 Ry
     estimated scf accuracy    <       0.00000005 Ry

     iteration # 47     ecut=    50.00 Ry     beta= 0.30
     Davidson diagonalization with overlap

---- Real-time Memory Report at c_bands before calling an iterative solver
            85 MiB given to the printing process from OS
             0 MiB allocation reported by mallinfo(arena+hblkhd)
         79571 MiB available memory on the node where the printing process lives
------------------
     ethr =  2.84E-11,  avg # of iterations =  5.8

     total cpu time spent up to now is      275.5 secs

     End of self-consistent calculation

          k = 0.0000 0.0000 0.0000 (  5905 PWs)   bands (ev):

   -10.9986 -10.5471 -10.5470 -10.3183 -10.1576 -10.1575   1.0419   1.0419
     1.3159   1.3159   1.3565   1.3780   1.3780   1.4392   1.5014   1.5014
     1.5195   1.5196   1.7197   1.7197   1.9005   1.9005   2.0312   2.0312
     2.3484   2.3484   2.4282   2.4282   2.4988   2.4988   2.6249   2.6249
     2.6552   2.6552   2.8130   2.8131   2.8918   3.0837   3.0838   3.7941
     3.7941   4.6506   4.6506   5.0972   5.0972   6.0930   6.0931   6.1250
     6.1250   6.3015   6.3016   6.8049   6.8873   6.8873

     occupation numbers 
     1.0000   1.0000   1.0000   1.0000   1.0000   1.0000   1.0000   1.0000
     1.0000   1.0000   1.0000   1.0000   1.0000   1.0000   1.0000   1.0000
     1.0000   1.0000   1.0000   1.0000   1.0000   1.0000   1.0000   1.0000
     1.0000   1.0000   1.0000   1.0000   1.0000   1.0000   1.0000   1.0000
     1.0000   1.0000   1.0000   1.0000   1.0000   1.0000   1.0000   1.0000
     1.0000   1.0000   1.0000   1.0000   1.0000   1.0000   1.0000   1.0000
     1.0000   1.0000   1.0000   1.0000   1.0000   1.0000

          k = 0.0000 0.0000 0.3097 (  5867 PWs)   bands (ev):

   -10.9552 -10.5202 -10.5201 -10.3662 -10.1827 -10.1825   1.0113   1.0114
     1.2878   1.2878   1.3102   1.3169   1.3225   1.3225   1.4826   1.4826
     1.5394   1.5395   1.6945   1.6945   1.8679   1.8679   1.8969   1.8969
     2.3853   2.3853   2.4460   2.4460   2.5083   2.5083   2.6172   2.6172
     2.6425   2.6425   2.7606   2.7607   3.2007   3.3424   3.3424   3.9351
     3.9351   4.6229   4.6229   5.1855   5.1856   6.1084   6.1085   6.1771
     6.1771   6.2254   6.2254   6.2429   6.8374   6.8374

     occupation numbers 
     1.0000   1.0000   1.0000   1.0000   1.0000   1.0000   1.0000   1.0000
     1.0000   1.0000   1.0000   1.0000   1.0000   1.0000   1.0000   1.0000
     1.0000   1.0000   1.0000   1.0000   1.0000   1.0000   1.0000   1.0000
     1.0000   1.0000   1.0000   1.0000   1.0000   1.0000   1.0000   1.0000
     1.0000   1.0000   1.0000   1.0000   1.0000   1.0000   1.0000   1.0000
     1.0000   1.0000   1.0000   1.0000   1.0000   1.0000   1.0000   1.0000
     1.0000   1.0000   1.0000   1.0000   1.0000   1.0000

          k = 0.0000 0.0000 0.6194 (  5886 PWs)   bands (ev):

   -10.8352 -10.4952 -10.4473 -10.4472 -10.2521 -10.2520   0.9558   0.9558
     1.0906   1.0906   1.1614   1.2062   1.3450   1.3451   1.4366   1.4366
     1.5967   1.5967   1.6673   1.6674   1.7583   1.7583   1.7846   1.7846
     2.4787   2.4787   2.4918   2.4918   2.5339   2.5339   2.5918   2.5918
     2.6097   2.6097   2.6819   2.6820   3.6415   3.6415   3.8753   4.0473
     4.0473   4.9083   4.9084   5.4184   5.4185   5.4566   5.9792   5.9792
     6.0153   6.0154   6.3189   6.3189   6.7003   6.7003

     occupation numbers 
     1.0000   1.0000   1.0000   1.0000   1.0000   1.0000   1.0000   1.0000
     1.0000   1.0000   1.0000   1.0000   1.0000   1.0000   1.0000   1.0000
     1.0000   1.0000   1.0000   1.0000   1.0000   1.0000   1.0000   1.0000
     1.0000   1.0000   1.0000   1.0000   1.0000   1.0000   1.0000   1.0000
     1.0000   1.0000   1.0000   1.0000   1.0000   1.0000   1.0000   1.0000
     1.0000   1.0000   1.0000   1.0000   1.0000   1.0000   1.0000   1.0000
     1.0000   1.0000   1.0000   1.0000   1.0000   1.0000

          k = 0.0000 0.0000-0.9292 (  5890 PWs)   bands (ev):

   -10.6676 -10.6674 -10.3489 -10.3487 -10.3486 -10.3486   0.9619   0.9620
     0.9620   0.9620   1.1297   1.1298   1.3852   1.3852   1.3852   1.3852
     1.6841   1.6841   1.6841   1.6842   1.6874   1.6874   1.6874   1.6875
     2.5469   2.5469   2.5469   2.5469   2.5702   2.5702   2.5702   2.5702
     2.5851   2.5851   2.5851   2.5851   3.8757   3.8757   3.8758   3.8758
     4.6600   4.6601   5.5302   5.5303   5.5303   5.5303   5.7222   5.7223
     5.7224   5.7224   6.5107   6.5107   6.5108   6.5108

     occupation numbers 
     1.0000   1.0000   1.0000   1.0000   1.0000   1.0000   1.0000   1.0000
     1.0000   1.0000   1.0000   1.0000   1.0000   1.0000   1.0000   1.0000
     1.0000   1.0000   1.0000   1.0000   1.0000   1.0000   1.0000   1.0000
     1.0000   1.0000   1.0000   1.0000   1.0000   1.0000   1.0000   1.0000
     1.0000   1.0000   1.0000   1.0000   1.0000   1.0000   1.0000   1.0000
     1.0000   1.0000   1.0000   1.0000   1.0000   1.0000   1.0000   1.0000
     1.0000   1.0000   1.0000   1.0000   1.0000   1.0000

          k = 0.0000 0.5774 0.0000 (  5897 PWs)   bands (ev):

   -10.8594 -10.6323 -10.3568 -10.2582 -10.1783 -10.1368   1.1448   1.1787
     1.2098   1.3347   1.3939   1.4175   1.4529   1.4978   1.5272   1.5839
     1.5845   1.6182   1.6647   1.7926   1.8373   1.9688   2.0460   2.1149
     2.3226   2.3719   2.4055   2.4269   2.4473   2.4731   2.6359   2.6485
     2.6836   2.7479   2.8199   2.8614   2.8732   3.0203   3.0747   3.6813
     4.1030   4.4220   4.4226   4.6354   5.2256   5.2289   5.6134   5.7793
     5.7884   5.7975   6.2536   6.2863   6.6255   6.7029

     occupation numbers 
     1.0000   1.0000   1.0000   1.0000   1.0000   1.0000   1.0000   1.0000
     1.0000   1.0000   1.0000   1.0000   1.0000   1.0000   1.0000   1.0000
     1.0000   1.0000   1.0000   1.0000   1.0000   1.0000   1.0000   1.0000
     1.0000   1.0000   1.0000   1.0000   1.0000   1.0000   1.0000   1.0000
     1.0000   1.0000   1.0000   1.0000   1.0000   1.0000   1.0000   1.0000
     1.0000   1.0000   1.0000   1.0000   1.0000   1.0000   1.0000   1.0000
     1.0000   1.0000   1.0000   1.0000   1.0000   1.0000

          k = 0.0000 0.5774 0.3097 (  5895 PWs)   bands (ev):

   -10.8204 -10.6016 -10.3402 -10.2997 -10.2082 -10.1496   1.1086   1.1496
     1.1780   1.2850   1.3367   1.3762   1.4035   1.4548   1.5188   1.5573
     1.5637   1.5905   1.5969   1.7730   1.8092   1.8094   1.9824   2.0290
     2.3643   2.4014   2.4172   2.4441   2.4789   2.5393   2.6256   2.6364
     2.6725   2.6804   2.7501   2.8697   3.1154   3.2560   3.3752   3.6971
     4.2091   4.5550   4.6101   4.6167   5.2327   5.2750   5.5972   5.6314
     5.7986   5.8519   6.1732   6.2738   6.5472   6.6435

     occupation numbers 
     1.0000   1.0000   1.0000   1.0000   1.0000   1.0000   1.0000   1.0000
     1.0000   1.0000   1.0000   1.0000   1.0000   1.0000   1.0000   1.0000
     1.0000   1.0000   1.0000   1.0000   1.0000   1.0000   1.0000   1.0000
     1.0000   1.0000   1.0000   1.0000   1.0000   1.0000   1.0000   1.0000
     1.0000   1.0000   1.0000   1.0000   1.0000   1.0000   1.0000   1.0000
     1.0000   1.0000   1.0000   1.0000   1.0000   1.0000   1.0000   1.0000
     1.0000   1.0000   1.0000   1.0000   1.0000   1.0000

          k = 0.0000 0.5774 0.6194 (  5905 PWs)   bands (ev):

   -10.7129 -10.5179 -10.4121 -10.2962 -10.2906 -10.1859   1.0368   1.0820
     1.1038   1.1268   1.1443   1.1968   1.4331   1.4425   1.5169   1.5220
     1.5381   1.5437   1.5839   1.6853   1.7338   1.7417   1.8904   1.9133
     2.4609   2.4696   2.4884   2.4958   2.5183   2.5677   2.5935   2.6056
     2.6172   2.6725   2.6913   2.8116   3.2568   3.5916   3.8659   3.9342
     4.4657   4.5349   4.9824   5.0816   5.1229   5.3663   5.3813   5.5974
     5.8447   5.9569   6.0234   6.0903   6.2836   6.4800

     occupation numbers 
     1.0000   1.0000   1.0000   1.0000   1.0000   1.0000   1.0000   1.0000
     1.0000   1.0000   1.0000   1.0000   1.0000   1.0000   1.0000   1.0000
     1.0000   1.0000   1.0000   1.0000   1.0000   1.0000   1.0000   1.0000
     1.0000   1.0000   1.0000   1.0000   1.0000   1.0000   1.0000   1.0000
     1.0000   1.0000   1.0000   1.0000   1.0000   1.0000   1.0000   1.0000
     1.0000   1.0000   1.0000   1.0000   1.0000   1.0000   1.0000   1.0000
     1.0000   1.0000   1.0000   1.0000   1.0000   1.0000

          k = 0.0000 0.5774-0.9292 (  5908 PWs)   bands (ev):

   -10.5638 -10.5636 -10.4040 -10.4038 -10.2393 -10.2391   1.0209   1.0209
     1.0549   1.0549   1.0856   1.0856   1.4697   1.4698   1.4827   1.4827
     1.5328   1.5328   1.6623   1.6623   1.6781   1.6781   1.8597   1.8597
     2.5440   2.5440   2.5485   2.5486   2.5519   2.5519   2.5532   2.5532
     2.5835   2.5835   2.7390   2.7390   3.4275   3.4275   4.2134   4.2135
     4.6007   4.6007   4.9298   4.9299   5.5300   5.5300   5.6422   5.6422
     5.7235   5.7236   5.9118   5.9119   6.2536   6.2537

     occupation numbers 
     1.0000   1.0000   1.0000   1.0000   1.0000   1.0000   1.0000   1.0000
     1.0000   1.0000   1.0000   1.0000   1.0000   1.0000   1.0000   1.0000
     1.0000   1.0000   1.0000   1.0000   1.0000   1.0000   1.0000   1.0000
     1.0000   1.0000   1.0000   1.0000   1.0000   1.0000   1.0000   1.0000
     1.0000   1.0000   1.0000   1.0000   1.0000   1.0000   1.0000   1.0000
     1.0000   1.0000   1.0000   1.0000   1.0000   1.0000   1.0000   1.0000
     1.0000   1.0000   1.0000   1.0000   1.0000   1.0000

          k = 0.0000 1.1547 0.0000 (  5927 PWs)   bands (ev):

   -10.5471 -10.5470 -10.1945 -10.1943 -10.1576 -10.1575   1.0419   1.0419
     1.2800   1.3780   1.3780   1.5195   1.5196   1.6688   1.6688   1.7197
     1.7197   1.9005   1.9005   2.0258   2.0312   2.0312   2.2690   2.2690
     2.3484   2.3484   2.3628   2.4858   2.4988   2.4988   2.5315   2.5316
     2.6552   2.6552   2.8130   2.8131   3.0837   3.0838   3.2410   3.4119
     3.4120   3.7941   3.7941   4.6506   4.6506   5.0282   5.0283   5.0972
     5.0972   5.2182   6.0930   6.0931   6.3015   6.3015

     occupation numbers 
     1.0000   1.0000   1.0000   1.0000   1.0000   1.0000   1.0000   1.0000
     1.0000   1.0000   1.0000   1.0000   1.0000   1.0000   1.0000   1.0000
     1.0000   1.0000   1.0000   1.0000   1.0000   1.0000   1.0000   1.0000
     1.0000   1.0000   1.0000   1.0000   1.0000   1.0000   1.0000   1.0000
     1.0000   1.0000   1.0000   1.0000   1.0000   1.0000   1.0000   1.0000
     1.0000   1.0000   1.0000   1.0000   1.0000   1.0000   1.0000   1.0000
     1.0000   1.0000   1.0000   1.0000   1.0000   1.0000

          k = 0.0000 1.1547 0.3097 (  5889 PWs)   bands (ev):

   -10.5202 -10.5201 -10.1921 -10.1919 -10.1826 -10.1826   1.0113   1.0113
     1.2878   1.2878   1.3081   1.5395   1.5395   1.5787   1.5787   1.6945
     1.6945   1.8679   1.8679   1.8969   1.8969   1.9187   2.1585   2.1585
     2.3794   2.3853   2.3853   2.4792   2.5083   2.5083   2.6425   2.6425
     2.6812   2.6812   2.7606   2.7607   3.3424   3.3424   3.3685   3.3685
     3.4090   3.9351   3.9351   4.6229   4.6229   5.0893   5.1855   5.1856
     5.1981   5.1982   6.1084   6.1085   6.2254   6.2254

     occupation numbers 
     1.0000   1.0000   1.0000   1.0000   1.0000   1.0000   1.0000   1.0000
     1.0000   1.0000   1.0000   1.0000   1.0000   1.0000   1.0000   1.0000
     1.0000   1.0000   1.0000   1.0000   1.0000   1.0000   1.0000   1.0000
     1.0000   1.0000   1.0000   1.0000   1.0000   1.0000   1.0000   1.0000
     1.0000   1.0000   1.0000   1.0000   1.0000   1.0000   1.0000   1.0000
     1.0000   1.0000   1.0000   1.0000   1.0000   1.0000   1.0000   1.0000
     1.0000   1.0000   1.0000   1.0000   1.0000   1.0000

          k = 0.0000 1.1547 0.6194 (  5909 PWs)   bands (ev):

   -10.4472 -10.4472 -10.2521 -10.2520 -10.1874 -10.1872   0.9558   0.9558
     1.0906   1.0906   1.3917   1.4031   1.4031   1.5967   1.5967   1.6673
     1.6674   1.7170   1.7583   1.7583   1.7846   1.7846   2.0771   2.0771
     2.4065   2.4608   2.4787   2.4787   2.5339   2.5339   2.6097   2.6097
     2.6819   2.6820   2.8530   2.8530   3.2872   3.2873   3.6415   3.6415
     3.8035   4.0473   4.0473   4.7452   4.9083   4.9084   5.4185   5.4185
     5.5233   5.5234   5.9792   5.9792   6.0154   6.0154

     occupation numbers 
     1.0000   1.0000   1.0000   1.0000   1.0000   1.0000   1.0000   1.0000
     1.0000   1.0000   1.0000   1.0000   1.0000   1.0000   1.0000   1.0000
     1.0000   1.0000   1.0000   1.0000   1.0000   1.0000   1.0000   1.0000
     1.0000   1.0000   1.0000   1.0000   1.0000   1.0000   1.0000   1.0000
     1.0000   1.0000   1.0000   1.0000   1.0000   1.0000   1.0000   1.0000
     1.0000   1.0000   1.0000   1.0000   1.0000   1.0000   1.0000   1.0000
     1.0000   1.0000   1.0000   1.0000   1.0000   1.0000

          k = 0.0000 1.1547-0.9292 (  5928 PWs)   bands (ev):

   -10.3489 -10.3487 -10.3486 -10.3486 -10.1851 -10.1848   0.9620   0.9620
     0.9620   0.9620   1.3211   1.3212   1.5305   1.5306   1.6841   1.6841
     1.6842   1.6842   1.6874   1.6874   1.6875   1.6875   2.0556   2.0556
     2.4346   2.4346   2.5702   2.5702   2.5702   2.5702   2.5851   2.5851
     2.5851   2.5851   2.9255   2.9255   3.2429   3.2429   3.8757   3.8757
     3.8758   3.8758   4.2826   4.2827   5.5302   5.5303   5.5303   5.5303
     5.6817   5.6818   5.7222   5.7223   5.7224   5.7224

     occupation numbers 
     1.0000   1.0000   1.0000   1.0000   1.0000   1.0000   1.0000   1.0000
     1.0000   1.0000   1.0000   1.0000   1.0000   1.0000   1.0000   1.0000
     1.0000   1.0000   1.0000   1.0000   1.0000   1.0000   1.0000   1.0000
     1.0000   1.0000   1.0000   1.0000   1.0000   1.0000   1.0000   1.0000
     1.0000   1.0000   1.0000   1.0000   1.0000   1.0000   1.0000   1.0000
     1.0000   1.0000   1.0000   1.0000   1.0000   1.0000   1.0000   1.0000
     1.0000   1.0000   1.0000   1.0000   1.0000   1.0000

          k = 0.0000-1.7321 0.0000 (  5910 PWs)   bands (ev):

   -10.3568 -10.3567 -10.3494 -10.1408 -10.1369 -10.1368   1.1141   1.2097
     1.2098   1.3230   1.4529   1.4530   1.5609   1.5839   1.5839   1.7926
     1.7926   1.9413   1.9538   2.0460   2.0460   2.0753   2.1149   2.1149
     2.4055   2.4055   2.4642   2.4731   2.4731   2.5909   2.6706   2.6836
     2.6836   2.7418   2.8732   2.8732   3.0747   3.0747   3.2047   3.4268
     3.6813   3.6813   4.1030   4.1030   4.1405   4.4220   4.4220   4.7139
     5.6134   5.6135   5.6402   5.7975   5.7975   6.0829

     occupation numbers 
     1.0000   1.0000   1.0000   1.0000   1.0000   1.0000   1.0000   1.0000
     1.0000   1.0000   1.0000   1.0000   1.0000   1.0000   1.0000   1.0000
     1.0000   1.0000   1.0000   1.0000   1.0000   1.0000   1.0000   1.0000
     1.0000   1.0000   1.0000   1.0000   1.0000   1.0000   1.0000   1.0000
     1.0000   1.0000   1.0000   1.0000   1.0000   1.0000   1.0000   1.0000
     1.0000   1.0000   1.0000   1.0000   1.0000   1.0000   1.0000   1.0000
     1.0000   1.0000   1.0000   1.0000   1.0000   1.0000

          k = 0.0000-1.7321 0.3097 (  5936 PWs)   bands (ev):

   -10.3403 -10.3402 -10.3335 -10.1527 -10.1496 -10.1495   1.0697   1.1780
     1.1780   1.2255   1.3762   1.3762   1.5636   1.5637   1.5871   1.7730
     1.7730   1.9133   1.9195   1.9824   1.9824   2.0290   2.0291   2.0308
     2.4172   2.4172   2.5267   2.5393   2.5393   2.5930   2.6574   2.6804
     2.6804   2.7411   2.8696   2.8697   3.1154   3.1154   3.1660   3.3761
     3.6971   3.6971   4.2091   4.2091   4.4237   4.6167   4.6167   4.8200
     5.5971   5.5972   5.7266   5.7985   5.7986   5.9986

     occupation numbers 
     1.0000   1.0000   1.0000   1.0000   1.0000   1.0000   1.0000   1.0000
     1.0000   1.0000   1.0000   1.0000   1.0000   1.0000   1.0000   1.0000
     1.0000   1.0000   1.0000   1.0000   1.0000   1.0000   1.0000   1.0000
     1.0000   1.0000   1.0000   1.0000   1.0000   1.0000   1.0000   1.0000
     1.0000   1.0000   1.0000   1.0000   1.0000   1.0000   1.0000   1.0000
     1.0000   1.0000   1.0000   1.0000   1.0000   1.0000   1.0000   1.0000
     1.0000   1.0000   1.0000   1.0000   1.0000   1.0000

          k = 0.0000-1.7321 0.6194 (  5928 PWs)   bands (ev):

   -10.2963 -10.2962 -10.2915 -10.1869 -10.1860 -10.1859   0.9825   1.0471
     1.1038   1.1038   1.1967   1.1968   1.5839   1.5839   1.6641   1.7338
     1.7338   1.8687   1.8803   1.8903   1.8904   1.9133   1.9134   1.9178
     2.4958   2.4958   2.5677   2.5677   2.6003   2.6268   2.6330   2.6913
     2.6913   2.7318   2.8116   2.8116   3.1456   3.2568   3.2568   3.2754
     3.5916   3.5916   4.5349   4.5350   5.0140   5.0816   5.0817   5.0927
     5.3813   5.3813   5.7658   5.7926   5.8446   5.8447

     occupation numbers 
     1.0000   1.0000   1.0000   1.0000   1.0000   1.0000   1.0000   1.0000
     1.0000   1.0000   1.0000   1.0000   1.0000   1.0000   1.0000   1.0000
     1.0000   1.0000   1.0000   1.0000   1.0000   1.0000   1.0000   1.0000
     1.0000   1.0000   1.0000   1.0000   1.0000   1.0000   1.0000   1.0000
     1.0000   1.0000   1.0000   1.0000   1.0000   1.0000   1.0000   1.0000
     1.0000   1.0000   1.0000   1.0000   1.0000   1.0000   1.0000   1.0000
     1.0000   1.0000   1.0000   1.0000   1.0000   1.0000

          k = 0.0000-1.7321-0.9292 (  5916 PWs)   bands (ev):

   -10.2394 -10.2392 -10.2391 -10.2391 -10.2373 -10.2371   0.9526   0.9527
     1.0856   1.0856   1.0856   1.0857   1.6623   1.6623   1.6623   1.6624
     1.7820   1.7821   1.8586   1.8587   1.8597   1.8597   1.8597   1.8597
     2.5532   2.5532   2.5532   2.5532   2.6133   2.6133   2.6978   2.6978
     2.7390   2.7390   2.7390   2.7390   3.1877   3.1878   3.4274   3.4275
     3.4275   3.4275   4.9297   4.9298   4.9299   4.9299   5.4384   5.4385
     5.5538   5.5539   5.6421   5.6422   5.6422   5.6423

     occupation numbers 
     1.0000   1.0000   1.0000   1.0000   1.0000   1.0000   1.0000   1.0000
     1.0000   1.0000   1.0000   1.0000   1.0000   1.0000   1.0000   1.0000
     1.0000   1.0000   1.0000   1.0000   1.0000   1.0000   1.0000   1.0000
     1.0000   1.0000   1.0000   1.0000   1.0000   1.0000   1.0000   1.0000
     1.0000   1.0000   1.0000   1.0000   1.0000   1.0000   1.0000   1.0000
     1.0000   1.0000   1.0000   1.0000   1.0000   1.0000   1.0000   1.0000
     1.0000   1.0000   1.0000   1.0000   1.0000   1.0000

          k =-0.5000-0.2887 0.0000 (  5862 PWs)   bands (ev):

   -10.8595 -10.8594 -10.3494 -10.2582 -10.2582 -10.1408   1.1141   1.1787
     1.1787   1.3230   1.3939   1.3939   1.4175   1.4175   1.4978   1.4978
     1.5609   1.6182   1.6182   1.6646   1.6647   1.9413   1.9538   2.0753
     2.3719   2.3719   2.4269   2.4270   2.4642   2.5909   2.6358   2.6359
     2.6706   2.7418   2.7479   2.7480   2.8614   2.8614   3.2047   3.4268
     4.1405   4.7139   5.2256   5.2256   5.6402   5.7793   5.7793   5.7884
     5.7885   6.0829   6.6255   6.6256   6.7029   6.7030

     occupation numbers 
     1.0000   1.0000   1.0000   1.0000   1.0000   1.0000   1.0000   1.0000
     1.0000   1.0000   1.0000   1.0000   1.0000   1.0000   1.0000   1.0000
     1.0000   1.0000   1.0000   1.0000   1.0000   1.0000   1.0000   1.0000
     1.0000   1.0000   1.0000   1.0000   1.0000   1.0000   1.0000   1.0000
     1.0000   1.0000   1.0000   1.0000   1.0000   1.0000   1.0000   1.0000
     1.0000   1.0000   1.0000   1.0000   1.0000   1.0000   1.0000   1.0000
     1.0000   1.0000   1.0000   1.0000   1.0000   1.0000

          k =-0.5000-0.2887 0.3097 (  5870 PWs)   bands (ev):

   -10.8204 -10.8204 -10.3335 -10.2997 -10.2996 -10.1527   1.0697   1.1496
     1.1496   1.2255   1.3367   1.3367   1.4034   1.4035   1.4548   1.4548
     1.5871   1.5904   1.5905   1.5968   1.5969   1.9133   1.9195   2.0308
     2.4014   2.4014   2.4440   2.4441   2.5267   2.5930   2.6255   2.6256
     2.6574   2.6725   2.6725   2.7411   3.1660   3.2560   3.2560   3.3761
     4.4237   4.8200   5.2750   5.2750   5.6314   5.6314   5.7266   5.8519
     5.8520   5.9986   6.5471   6.5472   6.6435   6.6436

     occupation numbers 
     1.0000   1.0000   1.0000   1.0000   1.0000   1.0000   1.0000   1.0000
     1.0000   1.0000   1.0000   1.0000   1.0000   1.0000   1.0000   1.0000
     1.0000   1.0000   1.0000   1.0000   1.0000   1.0000   1.0000   1.0000
     1.0000   1.0000   1.0000   1.0000   1.0000   1.0000   1.0000   1.0000
     1.0000   1.0000   1.0000   1.0000   1.0000   1.0000   1.0000   1.0000
     1.0000   1.0000   1.0000   1.0000   1.0000   1.0000   1.0000   1.0000
     1.0000   1.0000   1.0000   1.0000   1.0000   1.0000

          k =-0.5000-0.2887 0.6194 (  5898 PWs)   bands (ev):

   -10.7129 -10.7128 -10.4122 -10.4121 -10.2915 -10.1869   0.9825   1.0471
     1.0820   1.0820   1.1442   1.1443   1.4331   1.4332   1.4425   1.4425
     1.5220   1.5221   1.5437   1.5438   1.6641   1.8687   1.8803   1.9178
     2.4695   2.4696   2.4884   2.4885   2.5935   2.5935   2.6003   2.6172
     2.6172   2.6268   2.6330   2.7318   3.1456   3.2754   3.9342   3.9343
     5.0140   5.0927   5.1229   5.1229   5.5973   5.5974   5.7658   5.7926
     6.0233   6.0234   6.2836   6.2837   6.4799   6.4800

     occupation numbers 
     1.0000   1.0000   1.0000   1.0000   1.0000   1.0000   1.0000   1.0000
     1.0000   1.0000   1.0000   1.0000   1.0000   1.0000   1.0000   1.0000
     1.0000   1.0000   1.0000   1.0000   1.0000   1.0000   1.0000   1.0000
     1.0000   1.0000   1.0000   1.0000   1.0000   1.0000   1.0000   1.0000
     1.0000   1.0000   1.0000   1.0000   1.0000   1.0000   1.0000   1.0000
     1.0000   1.0000   1.0000   1.0000   1.0000   1.0000   1.0000   1.0000
     1.0000   1.0000   1.0000   1.0000   1.0000   1.0000

          k =-0.5000-0.2887-0.9292 (  5900 PWs)   bands (ev):

   -10.5639 -10.5638 -10.5637 -10.5636 -10.2373 -10.2371   0.9526   0.9527
     1.0548   1.0549   1.0549   1.0549   1.4697   1.4698   1.4698   1.4698
     1.4826   1.4827   1.4827   1.4827   1.7820   1.7821   1.8586   1.8587
     2.5440   2.5440   2.5441   2.5441   2.5485   2.5485   2.5486   2.5486
     2.6133   2.6133   2.6978   2.6978   3.1877   3.1878   4.6007   4.6007
     4.6007   4.6007   5.4384   5.4385   5.5538   5.5539   5.9118   5.9119
     5.9119   5.9120   6.2535   6.2536   6.2537   6.2537

     occupation numbers 
     1.0000   1.0000   1.0000   1.0000   1.0000   1.0000   1.0000   1.0000
     1.0000   1.0000   1.0000   1.0000   1.0000   1.0000   1.0000   1.0000
     1.0000   1.0000   1.0000   1.0000   1.0000   1.0000   1.0000   1.0000
     1.0000   1.0000   1.0000   1.0000   1.0000   1.0000   1.0000   1.0000
     1.0000   1.0000   1.0000   1.0000   1.0000   1.0000   1.0000   1.0000
     1.0000   1.0000   1.0000   1.0000   1.0000   1.0000   1.0000   1.0000
     1.0000   1.0000   1.0000   1.0000   1.0000   1.0000

          k =-0.5000 0.8660 0.0000 (  5921 PWs)   bands (ev):

   -10.6323 -10.3568 -10.3567 -10.1783 -10.1369 -10.1368   1.1448   1.2098
     1.2098   1.3347   1.4529   1.4530   1.5272   1.5839   1.5839   1.5845
     1.7926   1.7926   1.8373   1.9688   2.0460   2.0460   2.1149   2.1149
     2.3226   2.4055   2.4055   2.4473   2.4731   2.4731   2.6485   2.6836
     2.6836   2.8199   2.8732   2.8732   3.0203   3.0747   3.0747   3.6813
     3.6813   4.1030   4.1030   4.4220   4.4220   4.4226   4.6354   5.2289
     5.6134   5.6135   5.7975   5.7975   6.2536   6.2863

     occupation numbers 
     1.0000   1.0000   1.0000   1.0000   1.0000   1.0000   1.0000   1.0000
     1.0000   1.0000   1.0000   1.0000   1.0000   1.0000   1.0000   1.0000
     1.0000   1.0000   1.0000   1.0000   1.0000   1.0000   1.0000   1.0000
     1.0000   1.0000   1.0000   1.0000   1.0000   1.0000   1.0000   1.0000
     1.0000   1.0000   1.0000   1.0000   1.0000   1.0000   1.0000   1.0000
     1.0000   1.0000   1.0000   1.0000   1.0000   1.0000   1.0000   1.0000
     1.0000   1.0000   1.0000   1.0000   1.0000   1.0000

          k =-0.5000 0.8660 0.3097 (  5928 PWs)   bands (ev):

   -10.6016 -10.3403 -10.3402 -10.2082 -10.1496 -10.1495   1.1086   1.1780
     1.1780   1.2850   1.3762   1.3762   1.5188   1.5573   1.5636   1.5637
     1.7730   1.7730   1.8092   1.8094   1.9824   1.9824   2.0290   2.0290
     2.3643   2.4172   2.4172   2.4789   2.5393   2.5393   2.6364   2.6804
     2.6804   2.7501   2.8696   2.8697   3.1154   3.1154   3.3752   3.6971
     3.6971   4.2091   4.2091   4.5550   4.6101   4.6167   4.6167   5.2327
     5.5971   5.5972   5.7985   5.7986   6.1731   6.2738

     occupation numbers 
     1.0000   1.0000   1.0000   1.0000   1.0000   1.0000   1.0000   1.0000
     1.0000   1.0000   1.0000   1.0000   1.0000   1.0000   1.0000   1.0000
     1.0000   1.0000   1.0000   1.0000   1.0000   1.0000   1.0000   1.0000
     1.0000   1.0000   1.0000   1.0000   1.0000   1.0000   1.0000   1.0000
     1.0000   1.0000   1.0000   1.0000   1.0000   1.0000   1.0000   1.0000
     1.0000   1.0000   1.0000   1.0000   1.0000   1.0000   1.0000   1.0000
     1.0000   1.0000   1.0000   1.0000   1.0000   1.0000

          k =-0.5000 0.8660 0.6194 (  5920 PWs)   bands (ev):

   -10.5179 -10.2963 -10.2962 -10.2906 -10.1860 -10.1859   1.0368   1.1038
     1.1038   1.1268   1.1967   1.1968   1.5169   1.5381   1.5839   1.5839
     1.6853   1.7338   1.7338   1.7417   1.8903   1.8904   1.9133   1.9133
     2.4609   2.4958   2.4958   2.5183   2.5677   2.5677   2.6056   2.6725
     2.6913   2.6913   2.8116   2.8117   3.2568   3.2568   3.5916   3.5916
     3.8659   4.4657   4.5349   4.5350   4.9824   5.0816   5.0817   5.3663
     5.3813   5.3813   5.8447   5.8447   5.9569   6.0903

     occupation numbers 
     1.0000   1.0000   1.0000   1.0000   1.0000   1.0000   1.0000   1.0000
     1.0000   1.0000   1.0000   1.0000   1.0000   1.0000   1.0000   1.0000
     1.0000   1.0000   1.0000   1.0000   1.0000   1.0000   1.0000   1.0000
     1.0000   1.0000   1.0000   1.0000   1.0000   1.0000   1.0000   1.0000
     1.0000   1.0000   1.0000   1.0000   1.0000   1.0000   1.0000   1.0000
     1.0000   1.0000   1.0000   1.0000   1.0000   1.0000   1.0000   1.0000
     1.0000   1.0000   1.0000   1.0000   1.0000   1.0000

          k =-0.5000 0.8660-0.9292 (  5916 PWs)   bands (ev):

   -10.4040 -10.4038 -10.2394 -10.2392 -10.2391 -10.2391   1.0209   1.0209
     1.0856   1.0856   1.0856   1.0857   1.5328   1.5328   1.6623   1.6623
     1.6623   1.6623   1.6781   1.6781   1.8597   1.8597   1.8597   1.8597
     2.5519   2.5519   2.5532   2.5532   2.5532   2.5532   2.5835   2.5835
     2.7390   2.7390   2.7390   2.7390   3.4274   3.4275   3.4275   3.4275
     4.2134   4.2135   4.9298   4.9298   4.9299   4.9299   5.5300   5.5300
     5.6421   5.6422   5.6422   5.6423   5.7235   5.7236

     occupation numbers 
     1.0000   1.0000   1.0000   1.0000   1.0000   1.0000   1.0000   1.0000
     1.0000   1.0000   1.0000   1.0000   1.0000   1.0000   1.0000   1.0000
     1.0000   1.0000   1.0000   1.0000   1.0000   1.0000   1.0000   1.0000
     1.0000   1.0000   1.0000   1.0000   1.0000   1.0000   1.0000   1.0000
     1.0000   1.0000   1.0000   1.0000   1.0000   1.0000   1.0000   1.0000
     1.0000   1.0000   1.0000   1.0000   1.0000   1.0000   1.0000   1.0000
     1.0000   1.0000   1.0000   1.0000   1.0000   1.0000

          k = 0.5000-0.2887-0.3097 (  5895 PWs)   bands (ev):

   -10.8204 -10.6016 -10.3402 -10.2997 -10.2082 -10.1496   1.1086   1.1496
     1.1780   1.2850   1.3367   1.3762   1.4035   1.4548   1.5188   1.5573
     1.5636   1.5905   1.5969   1.7730   1.8092   1.8094   1.9824   2.0290
     2.3643   2.4014   2.4172   2.4441   2.4789   2.5393   2.6256   2.6364
     2.6725   2.6804   2.7501   2.8697   3.1154   3.2560   3.3752   3.6971
     4.2091   4.5550   4.6101   4.6167   5.2327   5.2750   5.5972   5.6314
     5.7986   5.8519   6.1732   6.2738   6.5472   6.6435

     occupation numbers 
     1.0000   1.0000   1.0000   1.0000   1.0000   1.0000   1.0000   1.0000
     1.0000   1.0000   1.0000   1.0000   1.0000   1.0000   1.0000   1.0000
     1.0000   1.0000   1.0000   1.0000   1.0000   1.0000   1.0000   1.0000
     1.0000   1.0000   1.0000   1.0000   1.0000   1.0000   1.0000   1.0000
     1.0000   1.0000   1.0000   1.0000   1.0000   1.0000   1.0000   1.0000
     1.0000   1.0000   1.0000   1.0000   1.0000   1.0000   1.0000   1.0000
     1.0000   1.0000   1.0000   1.0000   1.0000   1.0000

          k = 0.5000-0.2887-0.6194 (  5905 PWs)   bands (ev):

   -10.7129 -10.5179 -10.4121 -10.2962 -10.2906 -10.1859   1.0368   1.0820
     1.1038   1.1268   1.1443   1.1967   1.4331   1.4425   1.5169   1.5221
     1.5381   1.5437   1.5839   1.6853   1.7338   1.7417   1.8904   1.9133
     2.4609   2.4696   2.4884   2.4958   2.5183   2.5677   2.5935   2.6056
     2.6172   2.6725   2.6913   2.8116   3.2568   3.5916   3.8659   3.9342
     4.4657   4.5349   4.9824   5.0817   5.1229   5.3663   5.3813   5.5973
     5.8447   5.9569   6.0234   6.0903   6.2837   6.4800

     occupation numbers 
     1.0000   1.0000   1.0000   1.0000   1.0000   1.0000   1.0000   1.0000
     1.0000   1.0000   1.0000   1.0000   1.0000   1.0000   1.0000   1.0000
     1.0000   1.0000   1.0000   1.0000   1.0000   1.0000   1.0000   1.0000
     1.0000   1.0000   1.0000   1.0000   1.0000   1.0000   1.0000   1.0000
     1.0000   1.0000   1.0000   1.0000   1.0000   1.0000   1.0000   1.0000
     1.0000   1.0000   1.0000   1.0000   1.0000   1.0000   1.0000   1.0000
     1.0000   1.0000   1.0000   1.0000   1.0000   1.0000

     highest occupied level (ev):     6.8873

!    total energy              =   -1084.91066370 Ry
     estimated scf accuracy    <          7.5E-09 Ry

     The total energy is the sum of the following terms:
     one-electron contribution =    -463.57570055 Ry
     hartree contribution      =     354.86761281 Ry
     xc contribution           =    -328.63838000 Ry
     ewald contribution        =    -647.56419596 Ry

     convergence has been achieved in  47 iterations

     Forces acting on atoms (cartesian axes, Ry/au):

     atom    1 type  1   force =     0.00001824    0.00001053    0.00006702
     atom    2 type  1   force =     0.00000232    0.00000134    0.00004896
     atom    3 type  2   force =     0.00000364    0.00000210   -0.00006007
     atom    4 type  2   force =     0.00000432    0.00000249   -0.00005983
     atom    5 type  1   force =    -0.00001748   -0.00001009    0.00005914
     atom    6 type  1   force =    -0.00001138   -0.00000657    0.00005701
     atom    7 type  2   force =     0.00000008    0.00000004   -0.00006038
     atom    8 type  2   force =    -0.00000048   -0.00000028   -0.00005963
     atom    9 type  1   force =    -0.00000053   -0.00000031    0.00007634
     atom   10 type  1   force =     0.00000660    0.00000381    0.00005219
     atom   11 type  2   force =    -0.00000231   -0.00000133   -0.00006049
     atom   12 type  2   force =    -0.00000301   -0.00000174   -0.00006026
     The non-local contrib.  to forces
     atom    1 type  1   force =     0.00000751    0.00000434   -0.00483082
     atom    2 type  1   force =    -0.00000179   -0.00000103   -0.00484180
     atom    3 type  2   force =     0.00000288    0.00000166    0.00575432
     atom    4 type  2   force =     0.00000108    0.00000062    0.00575275
     atom    5 type  1   force =    -0.00001120   -0.00000647   -0.00483638
     atom    6 type  1   force =    -0.00000533   -0.00000308   -0.00483259
     atom    7 type  2   force =     0.00000575    0.00000332    0.00575320
     atom    8 type  2   force =     0.00000220    0.00000127    0.00575549
     atom    9 type  1   force =     0.00000382    0.00000220   -0.00482376
     atom   10 type  1   force =     0.00000902    0.00000521   -0.00483887
     atom   11 type  2   force =    -0.00000427   -0.00000247    0.00575435
     atom   12 type  2   force =    -0.00000184   -0.00000106    0.00575389
     The ionic contribution  to forces
     atom    1 type  1   force =     0.00000001    0.00000000    0.06271747
     atom    2 type  1   force =     0.00000000    0.00000000    0.06271747
     atom    3 type  2   force =     0.00000001    0.00000000   -0.06271747
     atom    4 type  2   force =     0.00000000    0.00000000   -0.06271747
     atom    5 type  1   force =    -0.00000001    0.00000000    0.06271747
     atom    6 type  1   force =     0.00000001   -0.00000000    0.06271747
     atom    7 type  2   force =    -0.00000000    0.00000000   -0.06271747
     atom    8 type  2   force =     0.00000000   -0.00000000   -0.06271747
     atom    9 type  1   force =    -0.00000000   -0.00000000    0.06271747
     atom   10 type  1   force =    -0.00000001   -0.00000000    0.06271747
     atom   11 type  2   force =    -0.00000000   -0.00000000   -0.06271747
     atom   12 type  2   force =    -0.00000001   -0.00000000   -0.06271747
     The local contribution  to forces
     atom    1 type  1   force =    -0.00002773   -0.00001601   -0.05830145
     atom    2 type  1   force =     0.00000319    0.00000179   -0.05825858
     atom    3 type  2   force =    -0.00000985   -0.00000568    0.05696113
     atom    4 type  2   force =    -0.00000871   -0.00000504    0.05696113
     atom    5 type  1   force =     0.00003129    0.00001817   -0.05828552
     atom    6 type  1   force =     0.00001229    0.00000700   -0.05828934
     atom    7 type  2   force =     0.00000755    0.00000439    0.05695810
     atom    8 type  2   force =     0.00000461    0.00000264    0.05696561
     atom    9 type  1   force =    -0.00000443   -0.00000250   -0.05832114
     atom   10 type  1   force =    -0.00001869   -0.00001079   -0.05826436
     atom   11 type  2   force =    -0.00000250   -0.00000143    0.05695988
     atom   12 type  2   force =     0.00000516    0.00000298    0.05696405
     The core correction contribution to forces
     atom    1 type  1   force =     0.00000028    0.00000016    0.00046443
     atom    2 type  1   force =    -0.00000024   -0.00000014    0.00046357
     atom    3 type  2   force =    -0.00000005   -0.00000003   -0.00006505
     atom    4 type  2   force =    -0.00000003   -0.00000002   -0.00006503
     atom    5 type  1   force =    -0.00000025   -0.00000013    0.00046421
     atom    6 type  1   force =    -0.00000009   -0.00000006    0.00046420
     atom    7 type  2   force =    -0.00000006   -0.00000004   -0.00006504
     atom    8 type  2   force =    -0.00000002   -0.00000001   -0.00006505
     atom    9 type  1   force =    -0.00000012   -0.00000007    0.00046476
     atom   10 type  1   force =     0.00000018    0.00000010    0.00046346
     atom   11 type  2   force =     0.00000005    0.00000003   -0.00006506
     atom   12 type  2   force =     0.00000006    0.00000003   -0.00006503
     The Hubbard contrib.    to forces
     atom    1 type  1   force =     0.00000000    0.00000000    0.00000000
     atom    2 type  1   force =     0.00000000    0.00000000    0.00000000
     atom    3 type  2   force =     0.00000000    0.00000000    0.00000000
     atom    4 type  2   force =     0.00000000    0.00000000    0.00000000
     atom    5 type  1   force =     0.00000000    0.00000000    0.00000000
     atom    6 type  1   force =     0.00000000    0.00000000    0.00000000
     atom    7 type  2   force =     0.00000000    0.00000000    0.00000000
     atom    8 type  2   force =     0.00000000    0.00000000    0.00000000
     atom    9 type  1   force =     0.00000000    0.00000000    0.00000000
     atom   10 type  1   force =     0.00000000    0.00000000    0.00000000
     atom   11 type  2   force =     0.00000000    0.00000000    0.00000000
     atom   12 type  2   force =     0.00000000    0.00000000    0.00000000
     The SCF correction term to forces
     atom    1 type  1   force =     0.00003848    0.00002222    0.00001447
     atom    2 type  1   force =     0.00000149    0.00000086   -0.00003460
     atom    3 type  2   force =     0.00001097    0.00000633    0.00000408
     atom    4 type  2   force =     0.00001231    0.00000710    0.00000588
     atom    5 type  1   force =    -0.00003705   -0.00002139   -0.00000355
     atom    6 type  1   force =    -0.00001790   -0.00001033   -0.00000564
     atom    7 type  2   force =    -0.00001286   -0.00000742    0.00000792
     atom    8 type  2   force =    -0.00000694   -0.00000401   -0.00000113
     atom    9 type  1   force =     0.00000051    0.00000029    0.00003610
     atom   10 type  1   force =     0.00001643    0.00000948   -0.00002844
     atom   11 type  2   force =     0.00000473    0.00000273    0.00000491
     atom   12 type  2   force =    -0.00000606   -0.00000350    0.00000139

     Total force =     0.000212     Total SCF correction =     0.000095
     SCF correction compared to forces is large: reduce conv_thr to get better values

     init_run     :      4.67s CPU      4.31s WALL (       1 calls)
     electrons    :    346.54s CPU    270.82s WALL (       1 calls)
     forces       :      1.77s CPU      1.51s WALL (       1 calls)

     Called by init_run:
     wfcinit      :      2.15s CPU      1.75s WALL (       1 calls)
     wfcinit:atom :      0.02s CPU      0.02s WALL (      13 calls)
     wfcinit:wfcr :      1.99s CPU      1.63s WALL (      13 calls)
     potinit      :      0.76s CPU      0.77s WALL (       1 calls)
     hinit0       :      1.39s CPU      1.41s WALL (       1 calls)

     Called by electrons:
     c_bands      :    306.08s CPU    236.62s WALL (      47 calls)
     sum_band     :     33.29s CPU     28.13s WALL (      47 calls)
     v_of_rho     :      2.37s CPU      2.07s WALL (      48 calls)
     v_h          :      0.14s CPU      0.13s WALL (      48 calls)
     v_xc         :      2.28s CPU      1.99s WALL (      49 calls)
     newd         :      4.36s CPU      3.64s WALL (      48 calls)
     mix_rho      :      0.39s CPU      0.35s WALL (      47 calls)

     Called by c_bands:
     init_us_2    :      1.61s CPU      1.35s WALL (    1248 calls)
     init_us_2:cp :      1.60s CPU      1.34s WALL (    1248 calls)
     cegterg      :    289.57s CPU    222.60s WALL (     611 calls)

     Called by sum_band:
     sum_band:wei :      0.00s CPU      0.00s WALL (      47 calls)
     sum_band:loo :     27.49s CPU     23.68s WALL (      47 calls)
     sum_band:buf :      0.13s CPU      0.12s WALL (     611 calls)
     sum_band:ini :      0.77s CPU      0.64s WALL (     611 calls)
     sum_band:cal :      4.51s CPU      2.45s WALL (     611 calls)
     sum_band:bec :      0.13s CPU      0.11s WALL (     611 calls)
     addusdens    :      5.35s CPU      4.00s WALL (      47 calls)
                                        0.00s GPU  (      47 calls)
     addusd:skk   :      0.04s CPU      0.04s WALL (      94 calls)
                                        0.00s GPU  (      94 calls)

     Called by *egterg:
     cdiaghg      :     38.95s CPU     30.58s WALL (    3458 calls)
     cegterg:over :     16.79s CPU      9.20s WALL (    2847 calls)
     cegterg:upda :      9.37s CPU      4.95s WALL (    2847 calls)
     cegterg:last :     22.51s CPU     11.57s WALL (    1981 calls)
     h_psi        :    180.72s CPU    155.08s WALL (    3471 calls)
     s_psi        :     16.81s CPU      8.78s WALL (    3471 calls)
     g_psi        :      0.89s CPU      0.66s WALL (    2847 calls)

     Called by h_psi:
     h_psi:calbec :     17.03s CPU      9.35s WALL (    3471 calls)
     vloc_psi     :    146.18s CPU    136.43s WALL (    3471 calls)
     add_vuspsi   :     17.01s CPU      8.89s WALL (    3471 calls)

     General routines
     calbec       :     21.90s CPU     11.99s WALL (    4134 calls)
     fft          :      1.63s CPU      1.54s WALL (     633 calls)
     ffts         :      0.21s CPU      0.21s WALL (      95 calls)
     fftw         :    148.13s CPU    139.67s WALL (  265050 calls)
     interpolate  :      0.28s CPU      0.28s WALL (      48 calls)

     Parallel routines

     PWSCF        :   5m53.42s CPU   4m37.11s WALL


   This run was terminated on:  16:51:31  17Jul2025            

=------------------------------------------------------------------------------=
   JOB DONE.
=------------------------------------------------------------------------------=
Note: The following floating-point exceptions are signalling: IEEE_INVALID_FLAG
Note: The following floating-point exceptions are signalling: IEEE_INVALID_FLAG
