
     Program PWSCF v.7.2 starts on  4Sep2025 at 14:28:21 

     This program is part of the open-source Quantum ESPRESSO suite
     for quantum simulation of materials; please cite
         "P. Giannozzi et al., J. Phys.:Condens. Matter 21 395502 (2009);
         "P. Giannozzi et al., J. Phys.:Condens. Matter 29 465901 (2017);
         "P. Giannozzi et al., J. Chem. Phys. 152 154105 (2020);
          URL http://www.quantum-espresso.org", 
     in publications or presentations arising from this work. More details at
     http://www.quantum-espresso.org/quote

     Parallel version (MPI), running on    64 processors

     MPI processes distributed on     1 nodes
     119203 MiB available memory on the printing compute node when the environment starts

     Reading input from /home/jvc/QEspresso7.2/ZnO_database/scripts/cell312.in/ZnO-2.94-1.61-312.in
Warning: card &CELL ignored
Warning: card / ignored
Warning: card &FCP ignored
Warning: card / ignored
Warning: card &RISM ignored
Warning: card / ignored

     Current dimensions of program PWSCF are:
     Max number of different atomic species (ntypx) = 10
     Max number of k-points (npk) =  40000
     Max angular momentum in pseudopotentials (lmaxx) =  4
     file Zn.upf: wavefunction(s)  3D renormalized
     Found identity + (  0.0000  0.0000  0.5000) symmetry
     This is a supercell, fractional translations are disabled
     Message from routine setup:
     using ibrav=0 with symmetry is DISCOURAGED, use correct ibrav instead

     K-points division:     npool     =       8
     R & G space division:  proc/nbgrp/npool/nimage =       8
     Subspace diagonalization in iterative solution of the eigenvalue problem:
     a serial algorithm will be used


     Parallelization info
     --------------------
     sticks:   dense  smooth     PW     G-vecs:    dense   smooth      PW
     Min         318     160     47                24348     8624    1411
     Max         319     162     48                24353     8627    1416
     Sum        2551    1289    381               194805    68997   11309

     Using Slab Decomposition



     bravais-lattice index     =            0
     lattice parameter (alat)  =      16.6829  a.u.
     unit-cell volume          =    1442.5576 (a.u.)^3
     number of atoms/cell      =           24
     number of atomic types    =            2
     number of electrons       =       216.00
     number of Kohn-Sham states=          108
     kinetic-energy cutoff     =      50.0000  Ry
     charge density cutoff     =     400.0000  Ry
     scf convergence threshold =      1.0E-08
     mixing beta               =       0.3000
     number of iterations used =            8  plain     mixing
     Exchange-correlation= PBE
                           (   1   4   3   4   0   0   0)

     celldm(1)=  16.682906  celldm(2)=   0.000000  celldm(3)=   0.000000
     celldm(4)=   0.000000  celldm(5)=   0.000000  celldm(6)=   0.000000

     crystal axes: (cart. coord. in units of alat)
               a(1) = (   1.000000   0.000000   0.000000 )  
               a(2) = (  -0.166667   0.288675   0.000000 )  
               a(3) = (   0.000000   0.000000   1.076239 )  

     reciprocal axes: (cart. coord. in units 2 pi/alat)
               b(1) = (  1.000000  0.577350 -0.000000 )  
               b(2) = (  0.000000  3.464102  0.000000 )  
               b(3) = (  0.000000 -0.000000  0.929162 )  


     PseudoPot. # 1 for Zn read from file:
     /home/jvc/QEspresso7.2/ZnO_database/pseudos/Zn.upf
     MD5 check sum: 7f56cabf9682ed8c977c2f7d0c5985c5
     Pseudo is Ultrasoft + core correction, Zval = 12.0
     Generated using &quot;atomic&quot; code by A. Dal Corso  v.6.2.2
     Using radial grid of 1201 points,  6 beta functions with: 
                l(1) =   0
                l(2) =   0
                l(3) =   1
                l(4) =   1
                l(5) =   2
                l(6) =   2
     Q(r) pseudized with 0 coefficients 


     PseudoPot. # 2 for O  read from file:
     /home/jvc/QEspresso7.2/ZnO_database/pseudos/O.upf
     MD5 check sum: 91400c9766925bcf19f520983a725ff0
     Pseudo is Ultrasoft + core correction, Zval =  6.0
     Generated using &quot;atomic&quot; code by A. Dal Corso  v.6.3MaX
     Using radial grid of 1095 points,  4 beta functions with: 
                l(1) =   0
                l(2) =   0
                l(3) =   1
                l(4) =   1
     Q(r) pseudized with 0 coefficients 


     atomic species   valence    mass     pseudopotential
        Zn            12.00    65.38000     Zn( 1.00)
        O              6.00    15.99900     O ( 1.00)

      2 Sym. Ops. (no inversion) found


                                    s                        frac. trans.

      isym =  1     identity                                     

 cryst.   s( 1) = (     1          0          0      )
                  (     0          1          0      )
                  (     0          0          1      )

 cart.    s( 1) = (  1.0000000 -0.0000000  0.0000000 )
                  (  0.0000000  1.0000000  0.0000000 )
                  (  0.0000000  0.0000000  1.0000000 )


      isym =  2     inv. 180 deg rotation - cryst. axis [0,1,0]  

 cryst.   s( 2) = (     1          3          0      )
                  (     0         -1          0      )
                  (     0          0          1      )

 cart.    s( 2) = (  0.5000000  0.8660254  0.0000000 )
                  (  0.8660254 -0.5000000  0.0000000 )
                  (  0.0000000  0.0000000  1.0000000 )


   Cartesian axes

     site n.     atom                  positions (alat units)
         1           Zn  tau(   1) = (   0.1666667   0.0962250   0.2694007  )
         2           Zn  tau(   2) = (  -0.0000000   0.1924501   0.0003409  )
         3           O   tau(   3) = (   0.1666667   0.0962250   0.4733710  )
         4           O   tau(   4) = (  -0.0000000   0.1924501   0.2043113  )
         5           Zn  tau(   5) = (   0.1666667   0.0962250   0.8075201  )
         6           Zn  tau(   6) = (  -0.0000000   0.1924501   0.5384604  )
         7           O   tau(   7) = (   0.1666667   0.0962250   1.0114904  )
         8           O   tau(   8) = (  -0.0000000   0.1924501   0.7424307  )
         9           Zn  tau(   9) = (   0.5000000   0.0962250   0.2694007  )
        10           Zn  tau(  10) = (   0.3333333   0.1924501   0.0003409  )
        11           O   tau(  11) = (   0.5000000   0.0962250   0.4733710  )
        12           O   tau(  12) = (   0.3333333   0.1924501   0.2043113  )
        13           Zn  tau(  13) = (   0.5000000   0.0962250   0.8075201  )
        14           Zn  tau(  14) = (   0.3333333   0.1924501   0.5384604  )
        15           O   tau(  15) = (   0.5000000   0.0962250   1.0114904  )
        16           O   tau(  16) = (   0.3333333   0.1924501   0.7424307  )
        17           Zn  tau(  17) = (   0.8333333   0.0962250   0.2694007  )
        18           Zn  tau(  18) = (   0.6666667   0.1924501   0.0003409  )
        19           O   tau(  19) = (   0.8333333   0.0962250   0.4733710  )
        20           O   tau(  20) = (   0.6666667   0.1924501   0.2043113  )
        21           Zn  tau(  21) = (   0.8333333   0.0962250   0.8075201  )
        22           Zn  tau(  22) = (   0.6666667   0.1924501   0.5384604  )
        23           O   tau(  23) = (   0.8333333   0.0962250   1.0114904  )
        24           O   tau(  24) = (   0.6666667   0.1924501   0.7424307  )

   Crystallographic axes

     site n.     atom                  positions (cryst. coord.)
         1           Zn  tau(   1) = (  0.2222222  0.3333333  0.2503168  )
         2           Zn  tau(   2) = (  0.1111111  0.6666667  0.0003168  )
         3           O   tau(   3) = (  0.2222222  0.3333333  0.4398382  )
         4           O   tau(   4) = (  0.1111111  0.6666667  0.1898382  )
         5           Zn  tau(   5) = (  0.2222222  0.3333333  0.7503168  )
         6           Zn  tau(   6) = (  0.1111111  0.6666667  0.5003168  )
         7           O   tau(   7) = (  0.2222222  0.3333333  0.9398382  )
         8           O   tau(   8) = (  0.1111111  0.6666667  0.6898382  )
         9           Zn  tau(   9) = (  0.5555556  0.3333333  0.2503168  )
        10           Zn  tau(  10) = (  0.4444444  0.6666667  0.0003168  )
        11           O   tau(  11) = (  0.5555556  0.3333333  0.4398382  )
        12           O   tau(  12) = (  0.4444444  0.6666667  0.1898382  )
        13           Zn  tau(  13) = (  0.5555556  0.3333333  0.7503168  )
        14           Zn  tau(  14) = (  0.4444444  0.6666667  0.5003168  )
        15           O   tau(  15) = (  0.5555556  0.3333333  0.9398382  )
        16           O   tau(  16) = (  0.4444444  0.6666667  0.6898382  )
        17           Zn  tau(  17) = (  0.8888889  0.3333333  0.2503168  )
        18           Zn  tau(  18) = (  0.7777778  0.6666667  0.0003168  )
        19           O   tau(  19) = (  0.8888889  0.3333333  0.4398382  )
        20           O   tau(  20) = (  0.7777778  0.6666667  0.1898382  )
        21           Zn  tau(  21) = (  0.8888889  0.3333333  0.7503168  )
        22           Zn  tau(  22) = (  0.7777778  0.6666667  0.5003168  )
        23           O   tau(  23) = (  0.8888889  0.3333333  0.9398382  )
        24           O   tau(  24) = (  0.7777778  0.6666667  0.6898382  )

     number of k points=    68
                       cart. coord. in units 2pi/alat
        k(    1) = (   0.0000000   0.0000000   0.0000000), wk =   0.0092593
        k(    2) = (   0.0000000   0.0000000   0.1548603), wk =   0.0185185
        k(    3) = (   0.0000000   0.0000000   0.3097206), wk =   0.0185185
        k(    4) = (   0.0000000   0.0000000  -0.4645809), wk =   0.0092593
        k(    5) = (   0.0000000   0.5773503   0.0000000), wk =   0.0370370
        k(    6) = (   0.0000000   0.5773503   0.1548603), wk =   0.0370370
        k(    7) = (   0.0000000   0.5773503   0.3097206), wk =   0.0370370
        k(    8) = (   0.0000000   0.5773503  -0.4645809), wk =   0.0370370
        k(    9) = (   0.0000000   1.1547005   0.0000000), wk =   0.0185185
        k(   10) = (   0.0000000   1.1547005   0.1548603), wk =   0.0370370
        k(   11) = (   0.0000000   1.1547005   0.3097206), wk =   0.0370370
        k(   12) = (   0.0000000   1.1547005  -0.4645809), wk =   0.0185185
        k(   13) = (   0.0000000  -1.7320508   0.0000000), wk =   0.0185185
        k(   14) = (   0.0000000  -1.7320508   0.1548603), wk =   0.0370370
        k(   15) = (   0.0000000  -1.7320508   0.3097206), wk =   0.0370370
        k(   16) = (   0.0000000  -1.7320508  -0.4645809), wk =   0.0185185
        k(   17) = (   0.1666667   0.0962250   0.0000000), wk =   0.0185185
        k(   18) = (   0.1666667   0.0962250   0.1548603), wk =   0.0185185
        k(   19) = (   0.1666667   0.0962250   0.3097206), wk =   0.0185185
        k(   20) = (   0.1666667   0.0962250  -0.4645809), wk =   0.0185185
        k(   21) = (   0.1666667   0.6735753   0.0000000), wk =   0.0370370
        k(   22) = (   0.1666667   0.6735753   0.1548603), wk =   0.0370370
        k(   23) = (   0.1666667   0.6735753   0.3097206), wk =   0.0370370
        k(   24) = (   0.1666667   0.6735753  -0.4645809), wk =   0.0370370
        k(   25) = (   0.1666667   1.2509256   0.0000000), wk =   0.0370370
        k(   26) = (   0.1666667   1.2509256   0.1548603), wk =   0.0370370
        k(   27) = (   0.1666667   1.2509256   0.3097206), wk =   0.0370370
        k(   28) = (   0.1666667   1.2509256  -0.4645809), wk =   0.0370370
        k(   29) = (   0.1666667  -1.6358258   0.0000000), wk =   0.0370370
        k(   30) = (   0.1666667  -1.6358258   0.1548603), wk =   0.0370370
        k(   31) = (   0.1666667  -1.6358258   0.3097206), wk =   0.0370370
        k(   32) = (   0.1666667  -1.6358258  -0.4645809), wk =   0.0370370
        k(   33) = (   0.1666667  -0.4811252   0.0000000), wk =   0.0370370
        k(   34) = (   0.1666667  -0.4811252   0.1548603), wk =   0.0370370
        k(   35) = (   0.1666667  -0.4811252   0.3097206), wk =   0.0370370
        k(   36) = (   0.1666667  -0.4811252  -0.4645809), wk =   0.0370370
        k(   37) = (   0.3333333   0.1924501   0.0000000), wk =   0.0185185
        k(   38) = (   0.3333333   0.1924501   0.1548603), wk =   0.0185185
        k(   39) = (   0.3333333   0.1924501   0.3097206), wk =   0.0185185
        k(   40) = (   0.3333333   0.1924501  -0.4645809), wk =   0.0185185
        k(   41) = (   0.3333333   1.3471506   0.0000000), wk =   0.0370370
        k(   42) = (   0.3333333   1.3471506   0.1548603), wk =   0.0370370
        k(   43) = (   0.3333333   1.3471506   0.3097206), wk =   0.0370370
        k(   44) = (   0.3333333   1.3471506  -0.4645809), wk =   0.0370370
        k(   45) = (  -0.5000000  -0.2886751   0.0000000), wk =   0.0092593
        k(   46) = (  -0.5000000  -0.2886751   0.1548603), wk =   0.0185185
        k(   47) = (  -0.5000000  -0.2886751   0.3097206), wk =   0.0185185
        k(   48) = (  -0.5000000  -0.2886751  -0.4645809), wk =   0.0092593
        k(   49) = (  -0.5000000   0.8660254   0.0000000), wk =   0.0185185
        k(   50) = (  -0.5000000   0.8660254   0.1548603), wk =   0.0370370
        k(   51) = (  -0.5000000   0.8660254   0.3097206), wk =   0.0370370
        k(   52) = (  -0.5000000   0.8660254  -0.4645809), wk =   0.0185185
        k(   53) = (   0.5000000  -0.2886751  -0.1548603), wk =   0.0370370
        k(   54) = (   0.5000000  -0.2886751  -0.3097206), wk =   0.0370370
        k(   55) = (   0.1666667   0.0962250  -0.1548603), wk =   0.0185185
        k(   56) = (   0.1666667   0.0962250  -0.3097206), wk =   0.0185185
        k(   57) = (   0.6666667  -0.1924501  -0.1548603), wk =   0.0370370
        k(   58) = (   0.6666667  -0.1924501  -0.3097206), wk =   0.0370370
        k(   59) = (   1.1666667  -0.4811252  -0.1548603), wk =   0.0370370
        k(   60) = (   1.1666667  -0.4811252  -0.3097206), wk =   0.0370370
        k(   61) = (  -1.3333333   0.9622504  -0.1548603), wk =   0.0370370
        k(   62) = (  -1.3333333   0.9622504  -0.3097206), wk =   0.0370370
        k(   63) = (  -0.3333333   0.3849002  -0.1548603), wk =   0.0370370
        k(   64) = (  -0.3333333   0.3849002  -0.3097206), wk =   0.0370370
        k(   65) = (   0.3333333   0.1924501  -0.1548603), wk =   0.0185185
        k(   66) = (   0.3333333   0.1924501  -0.3097206), wk =   0.0185185
        k(   67) = (   1.3333333  -0.3849002  -0.1548603), wk =   0.0370370
        k(   68) = (   1.3333333  -0.3849002  -0.3097206), wk =   0.0370370

                       cryst. coord.
        k(    1) = (   0.0000000   0.0000000   0.0000000), wk =   0.0092593
        k(    2) = (   0.0000000   0.0000000   0.1666667), wk =   0.0185185
        k(    3) = (   0.0000000   0.0000000   0.3333333), wk =   0.0185185
        k(    4) = (   0.0000000   0.0000000  -0.5000000), wk =   0.0092593
        k(    5) = (   0.0000000   0.1666667   0.0000000), wk =   0.0370370
        k(    6) = (   0.0000000   0.1666667   0.1666667), wk =   0.0370370
        k(    7) = (   0.0000000   0.1666667   0.3333333), wk =   0.0370370
        k(    8) = (   0.0000000   0.1666667  -0.5000000), wk =   0.0370370
        k(    9) = (   0.0000000   0.3333333   0.0000000), wk =   0.0185185
        k(   10) = (   0.0000000   0.3333333   0.1666667), wk =   0.0370370
        k(   11) = (   0.0000000   0.3333333   0.3333333), wk =   0.0370370
        k(   12) = (   0.0000000   0.3333333  -0.5000000), wk =   0.0185185
        k(   13) = (   0.0000000  -0.5000000   0.0000000), wk =   0.0185185
        k(   14) = (   0.0000000  -0.5000000   0.1666667), wk =   0.0370370
        k(   15) = (   0.0000000  -0.5000000   0.3333333), wk =   0.0370370
        k(   16) = (   0.0000000  -0.5000000  -0.5000000), wk =   0.0185185
        k(   17) = (   0.1666667  -0.0000000   0.0000000), wk =   0.0185185
        k(   18) = (   0.1666667  -0.0000000   0.1666667), wk =   0.0185185
        k(   19) = (   0.1666667  -0.0000000   0.3333333), wk =   0.0185185
        k(   20) = (   0.1666667  -0.0000000  -0.5000000), wk =   0.0185185
        k(   21) = (   0.1666667   0.1666667   0.0000000), wk =   0.0370370
        k(   22) = (   0.1666667   0.1666667   0.1666667), wk =   0.0370370
        k(   23) = (   0.1666667   0.1666667   0.3333333), wk =   0.0370370
        k(   24) = (   0.1666667   0.1666667  -0.5000000), wk =   0.0370370
        k(   25) = (   0.1666667   0.3333333   0.0000000), wk =   0.0370370
        k(   26) = (   0.1666667   0.3333333   0.1666667), wk =   0.0370370
        k(   27) = (   0.1666667   0.3333333   0.3333333), wk =   0.0370370
        k(   28) = (   0.1666667   0.3333333  -0.5000000), wk =   0.0370370
        k(   29) = (   0.1666667  -0.5000000   0.0000000), wk =   0.0370370
        k(   30) = (   0.1666667  -0.5000000   0.1666667), wk =   0.0370370
        k(   31) = (   0.1666667  -0.5000000   0.3333333), wk =   0.0370370
        k(   32) = (   0.1666667  -0.5000000  -0.5000000), wk =   0.0370370
        k(   33) = (   0.1666667  -0.1666667   0.0000000), wk =   0.0370370
        k(   34) = (   0.1666667  -0.1666667   0.1666667), wk =   0.0370370
        k(   35) = (   0.1666667  -0.1666667   0.3333333), wk =   0.0370370
        k(   36) = (   0.1666667  -0.1666667  -0.5000000), wk =   0.0370370
        k(   37) = (   0.3333333  -0.0000000   0.0000000), wk =   0.0185185
        k(   38) = (   0.3333333  -0.0000000   0.1666667), wk =   0.0185185
        k(   39) = (   0.3333333  -0.0000000   0.3333333), wk =   0.0185185
        k(   40) = (   0.3333333  -0.0000000  -0.5000000), wk =   0.0185185
        k(   41) = (   0.3333333   0.3333333   0.0000000), wk =   0.0370370
        k(   42) = (   0.3333333   0.3333333   0.1666667), wk =   0.0370370
        k(   43) = (   0.3333333   0.3333333   0.3333333), wk =   0.0370370
        k(   44) = (   0.3333333   0.3333333  -0.5000000), wk =   0.0370370
        k(   45) = (  -0.5000000   0.0000000   0.0000000), wk =   0.0092593
        k(   46) = (  -0.5000000   0.0000000   0.1666667), wk =   0.0185185
        k(   47) = (  -0.5000000   0.0000000   0.3333333), wk =   0.0185185
        k(   48) = (  -0.5000000   0.0000000  -0.5000000), wk =   0.0092593
        k(   49) = (  -0.5000000   0.3333333   0.0000000), wk =   0.0185185
        k(   50) = (  -0.5000000   0.3333333   0.1666667), wk =   0.0370370
        k(   51) = (  -0.5000000   0.3333333   0.3333333), wk =   0.0370370
        k(   52) = (  -0.5000000   0.3333333  -0.5000000), wk =   0.0185185
        k(   53) = (   0.5000000  -0.1666667  -0.1666667), wk =   0.0370370
        k(   54) = (   0.5000000  -0.1666667  -0.3333333), wk =   0.0370370
        k(   55) = (   0.1666667   0.0000000  -0.1666667), wk =   0.0185185
        k(   56) = (   0.1666667   0.0000000  -0.3333333), wk =   0.0185185
        k(   57) = (   0.6666667  -0.1666667  -0.1666667), wk =   0.0370370
        k(   58) = (   0.6666667  -0.1666667  -0.3333333), wk =   0.0370370
        k(   59) = (   1.1666667  -0.3333333  -0.1666667), wk =   0.0370370
        k(   60) = (   1.1666667  -0.3333333  -0.3333333), wk =   0.0370370
        k(   61) = (  -1.3333333   0.5000000  -0.1666667), wk =   0.0370370
        k(   62) = (  -1.3333333   0.5000000  -0.3333333), wk =   0.0370370
        k(   63) = (  -0.3333333   0.1666667  -0.1666667), wk =   0.0370370
        k(   64) = (  -0.3333333   0.1666667  -0.3333333), wk =   0.0370370
        k(   65) = (   0.3333333   0.0000000  -0.1666667), wk =   0.0185185
        k(   66) = (   0.3333333   0.0000000  -0.3333333), wk =   0.0185185
        k(   67) = (   1.3333333  -0.3333333  -0.1666667), wk =   0.0370370
        k(   68) = (   1.3333333  -0.3333333  -0.3333333), wk =   0.0370370

     Dense  grid:   194805 G-vectors     FFT dimensions: ( 108,  36, 120)

     Smooth grid:    68997 G-vectors     FFT dimensions: (  75,  25,  81)

     Dynamical RAM for                 wfc:       1.77 MB

     Dynamical RAM for     wfc (w. buffer):      17.73 MB

     Dynamical RAM for           str. fact:       0.74 MB

     Dynamical RAM for           local pot:       0.00 MB

     Dynamical RAM for          nlocal pot:       5.12 MB

     Dynamical RAM for                qrad:       3.21 MB

     Dynamical RAM for          rho,v,vnew:       2.45 MB

     Dynamical RAM for               rhoin:       0.82 MB

     Dynamical RAM for            rho*nmix:       5.95 MB

     Dynamical RAM for           G-vectors:       1.46 MB

     Dynamical RAM for          h,s,v(r/c):       2.14 MB

     Dynamical RAM for          <psi|beta>:       0.51 MB

     Dynamical RAM for                 psi:       3.55 MB

     Dynamical RAM for                hpsi:       3.55 MB

     Dynamical RAM for                spsi:       3.55 MB

     Dynamical RAM for      wfcinit/wfcrot:       5.68 MB

     Dynamical RAM for           addusdens:       9.52 MB

     Dynamical RAM for          addusforce:      10.45 MB

     Estimated static dynamical RAM per process >      34.87 MB

     Estimated max dynamical RAM per process >      54.11 MB

     Estimated total dynamical RAM >       3.06 GB

     Check: negative core charge=   -0.000001

     Initial potential from superposition of free atoms

     starting charge     215.9553, renormalised to     216.0000
     Starting wfcs are  156 randomized atomic wfcs

     total cpu time spent up to now is       11.7 secs

     Self-consistent Calculation

     iteration #  1     ecut=    50.00 Ry     beta= 0.30
     Davidson diagonalization with overlap

---- Real-time Memory Report at c_bands before calling an iterative solver
            79 MiB given to the printing process from OS
             0 MiB allocation reported by mallinfo(arena+hblkhd)
        115687 MiB available memory on the node where the printing process lives
------------------
     ethr =  1.00E-02,  avg # of iterations =  2.4

     total cpu time spent up to now is       26.1 secs

     total energy              =   -2167.83799259 Ry
     estimated scf accuracy    <       4.09548761 Ry

     iteration #  2     ecut=    50.00 Ry     beta= 0.30
     Davidson diagonalization with overlap

---- Real-time Memory Report at c_bands before calling an iterative solver
            89 MiB given to the printing process from OS
             0 MiB allocation reported by mallinfo(arena+hblkhd)
        115133 MiB available memory on the node where the printing process lives
------------------
     ethr =  1.90E-03,  avg # of iterations =  2.0

     total cpu time spent up to now is       42.4 secs

     total energy              =   -2167.98210561 Ry
     estimated scf accuracy    <       0.89974625 Ry

     iteration #  3     ecut=    50.00 Ry     beta= 0.30
     Davidson diagonalization with overlap

---- Real-time Memory Report at c_bands before calling an iterative solver
            90 MiB given to the printing process from OS
             0 MiB allocation reported by mallinfo(arena+hblkhd)
        115228 MiB available memory on the node where the printing process lives
------------------
     ethr =  4.17E-04,  avg # of iterations =  6.8

     total cpu time spent up to now is       72.0 secs

     total energy              =   -2168.55719379 Ry
     estimated scf accuracy    <       0.60614816 Ry

     iteration #  4     ecut=    50.00 Ry     beta= 0.30
     Davidson diagonalization with overlap

---- Real-time Memory Report at c_bands before calling an iterative solver
            90 MiB given to the printing process from OS
             0 MiB allocation reported by mallinfo(arena+hblkhd)
        115238 MiB available memory on the node where the printing process lives
------------------
     ethr =  2.81E-04,  avg # of iterations =  2.0

     total cpu time spent up to now is       85.7 secs

     total energy              =   -2168.50473730 Ry
     estimated scf accuracy    <       0.19829452 Ry

     iteration #  5     ecut=    50.00 Ry     beta= 0.30
     Davidson diagonalization with overlap

---- Real-time Memory Report at c_bands before calling an iterative solver
            91 MiB given to the printing process from OS
             0 MiB allocation reported by mallinfo(arena+hblkhd)
        115238 MiB available memory on the node where the printing process lives
------------------
     ethr =  9.18E-05,  avg # of iterations =  9.9

     total cpu time spent up to now is      126.9 secs

     total energy              =   -2168.84373352 Ry
     estimated scf accuracy    <       2.99503964 Ry

     iteration #  6     ecut=    50.00 Ry     beta= 0.30
     Davidson diagonalization with overlap

---- Real-time Memory Report at c_bands before calling an iterative solver
            91 MiB given to the printing process from OS
             0 MiB allocation reported by mallinfo(arena+hblkhd)
        115247 MiB available memory on the node where the printing process lives
------------------
     ethr =  9.18E-05,  avg # of iterations =  6.0

     total cpu time spent up to now is      150.4 secs

     total energy              =   -2168.39638456 Ry
     estimated scf accuracy    <       1.24271365 Ry

     iteration #  7     ecut=    50.00 Ry     beta= 0.30
     Davidson diagonalization with overlap

---- Real-time Memory Report at c_bands before calling an iterative solver
            91 MiB given to the printing process from OS
             0 MiB allocation reported by mallinfo(arena+hblkhd)
        115247 MiB available memory on the node where the printing process lives
------------------
     ethr =  9.18E-05,  avg # of iterations =  6.5

     total cpu time spent up to now is      179.7 secs

     total energy              =   -2168.57876545 Ry
     estimated scf accuracy    <       0.02797522 Ry

     iteration #  8     ecut=    50.00 Ry     beta= 0.30
     Davidson diagonalization with overlap

---- Real-time Memory Report at c_bands before calling an iterative solver
            91 MiB given to the printing process from OS
             0 MiB allocation reported by mallinfo(arena+hblkhd)
        115247 MiB available memory on the node where the printing process lives
------------------
     ethr =  1.30E-05,  avg # of iterations =  7.3

     total cpu time spent up to now is      208.1 secs

     total energy              =   -2168.59991761 Ry
     estimated scf accuracy    <       0.00770070 Ry

     iteration #  9     ecut=    50.00 Ry     beta= 0.30
     Davidson diagonalization with overlap

---- Real-time Memory Report at c_bands before calling an iterative solver
            92 MiB given to the printing process from OS
             0 MiB allocation reported by mallinfo(arena+hblkhd)
        115246 MiB available memory on the node where the printing process lives
------------------
     ethr =  3.57E-06,  avg # of iterations =  2.4

     total cpu time spent up to now is      223.0 secs

     total energy              =   -2168.59629302 Ry
     estimated scf accuracy    <       0.00660240 Ry

     iteration # 10     ecut=    50.00 Ry     beta= 0.30
     Davidson diagonalization with overlap

---- Real-time Memory Report at c_bands before calling an iterative solver
            92 MiB given to the printing process from OS
             0 MiB allocation reported by mallinfo(arena+hblkhd)
        115246 MiB available memory on the node where the printing process lives
------------------
     ethr =  3.06E-06,  avg # of iterations =  4.8

     total cpu time spent up to now is      243.3 secs

     total energy              =   -2168.59805478 Ry
     estimated scf accuracy    <       0.00000788 Ry

     iteration # 11     ecut=    50.00 Ry     beta= 0.30
     Davidson diagonalization with overlap

---- Real-time Memory Report at c_bands before calling an iterative solver
            92 MiB given to the printing process from OS
             0 MiB allocation reported by mallinfo(arena+hblkhd)
        115243 MiB available memory on the node where the printing process lives
------------------
     c_bands:  1 eigenvalues not converged
     c_bands:  1 eigenvalues not converged
     ethr =  3.65E-09,  avg # of iterations = 15.1

     total cpu time spent up to now is      308.7 secs

     total energy              =   -2168.59833071 Ry
     estimated scf accuracy    <       0.00137131 Ry

     iteration # 12     ecut=    50.00 Ry     beta= 0.30
     Davidson diagonalization with overlap

---- Real-time Memory Report at c_bands before calling an iterative solver
            92 MiB given to the printing process from OS
             0 MiB allocation reported by mallinfo(arena+hblkhd)
        115243 MiB available memory on the node where the printing process lives
------------------
     ethr =  3.65E-09,  avg # of iterations = 12.1

     total cpu time spent up to now is      357.1 secs

     total energy              =   -2168.59834255 Ry
     estimated scf accuracy    <       0.00023634 Ry

     iteration # 13     ecut=    50.00 Ry     beta= 0.30
     Davidson diagonalization with overlap

---- Real-time Memory Report at c_bands before calling an iterative solver
            92 MiB given to the printing process from OS
             0 MiB allocation reported by mallinfo(arena+hblkhd)
        115243 MiB available memory on the node where the printing process lives
------------------
     ethr =  3.65E-09,  avg # of iterations =  9.6

     total cpu time spent up to now is      393.9 secs

     total energy              =   -2168.59834104 Ry
     estimated scf accuracy    <       0.00003363 Ry

     iteration # 14     ecut=    50.00 Ry     beta= 0.30
     Davidson diagonalization with overlap

---- Real-time Memory Report at c_bands before calling an iterative solver
            92 MiB given to the printing process from OS
             0 MiB allocation reported by mallinfo(arena+hblkhd)
        115243 MiB available memory on the node where the printing process lives
------------------
     ethr =  3.65E-09,  avg # of iterations =  8.1

     total cpu time spent up to now is      426.5 secs

     total energy              =   -2168.59835134 Ry
     estimated scf accuracy    <       0.00000292 Ry

     iteration # 15     ecut=    50.00 Ry     beta= 0.30
     Davidson diagonalization with overlap

---- Real-time Memory Report at c_bands before calling an iterative solver
            92 MiB given to the printing process from OS
             0 MiB allocation reported by mallinfo(arena+hblkhd)
        115243 MiB available memory on the node where the printing process lives
------------------
     ethr =  1.35E-09,  avg # of iterations =  2.0

     total cpu time spent up to now is      441.2 secs

     total energy              =   -2168.59835134 Ry
     estimated scf accuracy    <       0.00000093 Ry

     iteration # 16     ecut=    50.00 Ry     beta= 0.30
     Davidson diagonalization with overlap

---- Real-time Memory Report at c_bands before calling an iterative solver
            92 MiB given to the printing process from OS
             0 MiB allocation reported by mallinfo(arena+hblkhd)
        115243 MiB available memory on the node where the printing process lives
------------------
     ethr =  4.29E-10,  avg # of iterations =  3.9

     total cpu time spent up to now is      459.7 secs

     total energy              =   -2168.59835158 Ry
     estimated scf accuracy    <       0.00000014 Ry

     iteration # 17     ecut=    50.00 Ry     beta= 0.30
     Davidson diagonalization with overlap

---- Real-time Memory Report at c_bands before calling an iterative solver
            92 MiB given to the printing process from OS
             0 MiB allocation reported by mallinfo(arena+hblkhd)
        115243 MiB available memory on the node where the printing process lives
------------------
     ethr =  6.42E-11,  avg # of iterations =  5.2

     total cpu time spent up to now is      481.5 secs

     total energy              =   -2168.59835161 Ry
     estimated scf accuracy    <       0.00000006 Ry

     iteration # 18     ecut=    50.00 Ry     beta= 0.30
     Davidson diagonalization with overlap

---- Real-time Memory Report at c_bands before calling an iterative solver
            92 MiB given to the printing process from OS
             0 MiB allocation reported by mallinfo(arena+hblkhd)
        115242 MiB available memory on the node where the printing process lives
------------------
     ethr =  2.95E-11,  avg # of iterations =  2.8

     total cpu time spent up to now is      498.5 secs

     total energy              =   -2168.59835161 Ry
     estimated scf accuracy    <       0.00000002 Ry

     iteration # 19     ecut=    50.00 Ry     beta= 0.30
     Davidson diagonalization with overlap

---- Real-time Memory Report at c_bands before calling an iterative solver
            92 MiB given to the printing process from OS
             0 MiB allocation reported by mallinfo(arena+hblkhd)
        115243 MiB available memory on the node where the printing process lives
------------------
     ethr =  1.02E-11,  avg # of iterations =  5.7

     total cpu time spent up to now is      522.5 secs

     End of self-consistent calculation

          k = 0.0000 0.0000 0.0000 (  8647 PWs)   bands (ev):

    -8.5232  -7.9199  -7.9199  -7.6946  -7.6946  -7.3187  -7.3187  -7.3187
    -7.3187  -7.2594  -6.9622  -6.9622   3.8384   3.8384   3.8384   3.8384
     4.0273   4.0273   4.0767   4.2153   4.2153   4.5440   4.5440   4.7630
     4.7632   4.8493   4.8700   4.8700   4.8702   4.8702   5.0599   5.0600
     5.0931   5.0931   5.1493   5.1493   5.2528   5.2528   5.2528   5.2528
     5.3391   5.3391   5.3391   5.3391   5.5710   5.5710   5.6836   5.6836
     6.7227   6.7227   6.9938   6.9938   7.1277   7.1277   7.2367   7.2367
     7.2367   7.2367   7.2632   7.2632   7.2632   7.2632   7.2800   7.2800
     7.2800   7.2800   7.3398   7.3398   7.3921   7.3922   7.4565   7.4565
     7.8436   8.0736   8.0736   8.4525   8.4525   8.9060   8.9060   8.9060
     8.9060   9.7506   9.7506   9.8302   9.8302   9.9401   9.9401  10.4675
    10.4675  10.4675  10.4675  10.6982  10.6982  10.6982  10.6982  11.2322
    11.2322  11.2814  11.2816  11.5511  11.5511  11.8712  11.8712  11.8714
    11.8714  12.2426  12.4631  12.4634

     occupation numbers 
     1.0000   1.0000   1.0000   1.0000   1.0000   1.0000   1.0000   1.0000
     1.0000   1.0000   1.0000   1.0000   1.0000   1.0000   1.0000   1.0000
     1.0000   1.0000   1.0000   1.0000   1.0000   1.0000   1.0000   1.0000
     1.0000   1.0000   1.0000   1.0000   1.0000   1.0000   1.0000   1.0000
     1.0000   1.0000   1.0000   1.0000   1.0000   1.0000   1.0000   1.0000
     1.0000   1.0000   1.0000   1.0000   1.0000   1.0000   1.0000   1.0000
     1.0000   1.0000   1.0000   1.0000   1.0000   1.0000   1.0000   1.0000
     1.0000   1.0000   1.0000   1.0000   1.0000   1.0000   1.0000   1.0000
     1.0000   1.0000   1.0000   1.0000   1.0000   1.0000   1.0000   1.0000
     1.0000   1.0000   1.0000   1.0000   1.0000   1.0000   1.0000   1.0000
     1.0000   1.0000   1.0000   1.0000   1.0000   1.0000   1.0000   1.0000
     1.0000   1.0000   1.0000   1.0000   1.0000   1.0000   1.0000   1.0000
     1.0000   1.0000   1.0000   1.0000   1.0000   1.0000   1.0000   1.0000
     1.0000   1.0000   1.0000   1.0000

          k = 0.0000 0.0000 0.1549 (  8627 PWs)   bands (ev):

    -8.5035  -8.0812  -7.7548  -7.6816  -7.6816  -7.4147  -7.4147  -7.2830
    -7.2239  -7.2239  -6.9738  -6.9738   3.8267   3.8267   3.8996   3.8996
     4.0118   4.0118   4.0678   4.1200   4.3412   4.4826   4.4826   4.7656
     4.7657   4.8209   4.8352   4.8353   4.9105   4.9107   5.0518   5.0520
     5.1004   5.1004   5.1548   5.1548   5.2141   5.2141   5.2678   5.2678
     5.3035   5.3035   5.4167   5.4167   5.5491   5.5491   5.6696   5.6696
     6.7518   6.7518   7.0034   7.0034   7.1329   7.1329   7.1527   7.1527
     7.1813   7.1813   7.2398   7.2398   7.2871   7.2871   7.3214   7.3214
     7.3635   7.3635   7.3891   7.3892   7.3923   7.3923   7.4496   7.4496
     7.9270   8.0945   8.0945   8.4978   8.4978   8.7599   8.7599   9.0106
     9.0106   9.4457   9.7860   9.7860   9.8030   9.8030  10.0733  10.0733
    10.4264  10.4662  10.4662  10.8222  10.8222  10.9244  10.9244  11.2439
    11.2439  11.3012  11.3014  11.5228  11.5228  11.7176  11.7178  12.0249
    12.0251  12.0854  12.4431  12.4434

     occupation numbers 
     1.0000   1.0000   1.0000   1.0000   1.0000   1.0000   1.0000   1.0000
     1.0000   1.0000   1.0000   1.0000   1.0000   1.0000   1.0000   1.0000
     1.0000   1.0000   1.0000   1.0000   1.0000   1.0000   1.0000   1.0000
     1.0000   1.0000   1.0000   1.0000   1.0000   1.0000   1.0000   1.0000
     1.0000   1.0000   1.0000   1.0000   1.0000   1.0000   1.0000   1.0000
     1.0000   1.0000   1.0000   1.0000   1.0000   1.0000   1.0000   1.0000
     1.0000   1.0000   1.0000   1.0000   1.0000   1.0000   1.0000   1.0000
     1.0000   1.0000   1.0000   1.0000   1.0000   1.0000   1.0000   1.0000
     1.0000   1.0000   1.0000   1.0000   1.0000   1.0000   1.0000   1.0000
     1.0000   1.0000   1.0000   1.0000   1.0000   1.0000   1.0000   1.0000
     1.0000   1.0000   1.0000   1.0000   1.0000   1.0000   1.0000   1.0000
     1.0000   1.0000   1.0000   1.0000   1.0000   1.0000   1.0000   1.0000
     1.0000   1.0000   1.0000   1.0000   1.0000   1.0000   1.0000   1.0000
     1.0000   1.0000   1.0000   1.0000

          k = 0.0000 0.0000 0.3097 (  8642 PWs)   bands (ev):

    -8.4454  -8.2282  -7.6436  -7.6436  -7.5974  -7.5051  -7.5051  -7.3516
    -7.1370  -7.1370  -7.0082  -7.0082   3.8564   3.8564   3.9690   3.9690
     4.0104   4.0104   4.0499   4.0623   4.3345   4.3345   4.4823   4.7412
     4.7728   4.7730   4.8069   4.8071   4.9532   4.9534   5.0287   5.0289
     5.1219   5.1219   5.1641   5.1641   5.1883   5.1883   5.2065   5.2065
     5.3638   5.3638   5.4956   5.4956   5.4956   5.4956   5.6296   5.6296
     6.8263   6.8263   7.0306   7.0306   7.0383   7.0383   7.1242   7.1243
     7.1479   7.1479   7.2031   7.2031   7.3276   7.3276   7.3620   7.3620
     7.3780   7.3780   7.4293   7.4293   7.4460   7.4460   7.4783   7.4783
     8.1653   8.1964   8.1964   8.5884   8.5884   8.6266   8.6267   8.9636
     9.0057   9.0057   9.7382   9.7382   9.7672   9.7672   9.8878   9.8878
    10.2433  10.2433  10.8919  11.0779  11.0779  11.1313  11.1313  11.2558
    11.2558  11.3595  11.3597  11.4396  11.4396  11.5748  11.5750  11.7413
    12.1679  12.1681  12.3842  12.3845

     occupation numbers 
     1.0000   1.0000   1.0000   1.0000   1.0000   1.0000   1.0000   1.0000
     1.0000   1.0000   1.0000   1.0000   1.0000   1.0000   1.0000   1.0000
     1.0000   1.0000   1.0000   1.0000   1.0000   1.0000   1.0000   1.0000
     1.0000   1.0000   1.0000   1.0000   1.0000   1.0000   1.0000   1.0000
     1.0000   1.0000   1.0000   1.0000   1.0000   1.0000   1.0000   1.0000
     1.0000   1.0000   1.0000   1.0000   1.0000   1.0000   1.0000   1.0000
     1.0000   1.0000   1.0000   1.0000   1.0000   1.0000   1.0000   1.0000
     1.0000   1.0000   1.0000   1.0000   1.0000   1.0000   1.0000   1.0000
     1.0000   1.0000   1.0000   1.0000   1.0000   1.0000   1.0000   1.0000
     1.0000   1.0000   1.0000   1.0000   1.0000   1.0000   1.0000   1.0000
     1.0000   1.0000   1.0000   1.0000   1.0000   1.0000   1.0000   1.0000
     1.0000   1.0000   1.0000   1.0000   1.0000   1.0000   1.0000   1.0000
     1.0000   1.0000   1.0000   1.0000   1.0000   1.0000   1.0000   1.0000
     1.0000   1.0000   1.0000   1.0000

          k = 0.0000 0.0000-0.4646 (  8636 PWs)   bands (ev):

    -8.3520  -8.3520  -7.5833  -7.5833  -7.5833  -7.5833  -7.4593  -7.4593
    -7.0636  -7.0636  -7.0636  -7.0636   3.9109   3.9109   3.9109   3.9109
     4.0421   4.0421   4.1625   4.1625   4.1625   4.1625   4.6221   4.6221
     4.7864   4.7864   4.7866   4.7866   4.9943   4.9943   4.9944   4.9945
     5.1577   5.1577   5.1577   5.1577   5.1734   5.1734   5.1734   5.1734
     5.4300   5.4300   5.4300   5.4300   5.5691   5.5691   5.5691   5.5691
     6.9264   6.9264   6.9264   6.9265   7.0722   7.0722   7.0722   7.0722
     7.1720   7.1720   7.1720   7.1720   7.3580   7.3580   7.3580   7.3580
     7.3991   7.3991   7.3991   7.3991   7.4948   7.4948   7.4948   7.4948
     8.3896   8.3896   8.3896   8.3896   8.5244   8.5244   8.8278   8.8278
     8.8278   8.8278   9.6869   9.6869   9.6869   9.6869  10.0452  10.0452
    10.0452  10.0452  11.2163  11.2163  11.2163  11.2163  11.3065  11.3065
    11.3065  11.3065  11.3324  11.3324  11.4527  11.4527  11.4529  11.4529
    12.2904  12.2904  12.2907  12.2907

     occupation numbers 
     1.0000   1.0000   1.0000   1.0000   1.0000   1.0000   1.0000   1.0000
     1.0000   1.0000   1.0000   1.0000   1.0000   1.0000   1.0000   1.0000
     1.0000   1.0000   1.0000   1.0000   1.0000   1.0000   1.0000   1.0000
     1.0000   1.0000   1.0000   1.0000   1.0000   1.0000   1.0000   1.0000
     1.0000   1.0000   1.0000   1.0000   1.0000   1.0000   1.0000   1.0000
     1.0000   1.0000   1.0000   1.0000   1.0000   1.0000   1.0000   1.0000
     1.0000   1.0000   1.0000   1.0000   1.0000   1.0000   1.0000   1.0000
     1.0000   1.0000   1.0000   1.0000   1.0000   1.0000   1.0000   1.0000
     1.0000   1.0000   1.0000   1.0000   1.0000   1.0000   1.0000   1.0000
     1.0000   1.0000   1.0000   1.0000   1.0000   1.0000   1.0000   1.0000
     1.0000   1.0000   1.0000   1.0000   1.0000   1.0000   1.0000   1.0000
     1.0000   1.0000   1.0000   1.0000   1.0000   1.0000   1.0000   1.0000
     1.0000   1.0000   1.0000   1.0000   1.0000   1.0000   1.0000   1.0000
     1.0000   1.0000   1.0000   1.0000

          k = 0.0000 0.5774 0.0000 (  8605 PWs)   bands (ev):

    -8.2720  -7.8546  -7.7270  -7.7270  -7.4251  -7.4251  -7.3364  -7.1492
    -7.1078  -7.1078  -7.0012  -6.9241   3.9618   3.9618   3.9706   3.9706
     4.0915   4.0915   4.2431   4.2653   4.3054   4.5135   4.5209   4.5486
     4.8881   4.9117   4.9565   4.9565   5.0225   5.0225   5.0270   5.0270
     5.0633   5.0654   5.0864   5.0958   5.1177   5.1177   5.2400   5.2469
     5.2859   5.3329   5.3329   5.5806   5.6386   5.6386   5.8019   5.9402
     6.7528   6.8514   6.8631   6.9872   7.0054   7.0088   7.2149   7.2149
     7.2267   7.2267   7.2294   7.2294   7.2342   7.2342   7.2771   7.2771
     7.4167   7.4318   7.4400   7.4461   7.4960   7.5208   7.5562   7.5562
     7.8325   7.9017   8.0099   8.2557   8.2557   8.3786   8.5926   9.0809
     9.1706   9.4308   9.4308   9.5965   9.6291   9.6291   9.9295   9.9295
    10.1930  10.3387  10.3716  10.3716  10.5462  10.5524  10.5524  10.7568
    10.7568  10.7875  10.8724  11.0033  11.0033  11.3444  11.4951  11.4951
    11.5063  11.5354  11.9857  12.1831

     occupation numbers 
     1.0000   1.0000   1.0000   1.0000   1.0000   1.0000   1.0000   1.0000
     1.0000   1.0000   1.0000   1.0000   1.0000   1.0000   1.0000   1.0000
     1.0000   1.0000   1.0000   1.0000   1.0000   1.0000   1.0000   1.0000
     1.0000   1.0000   1.0000   1.0000   1.0000   1.0000   1.0000   1.0000
     1.0000   1.0000   1.0000   1.0000   1.0000   1.0000   1.0000   1.0000
     1.0000   1.0000   1.0000   1.0000   1.0000   1.0000   1.0000   1.0000
     1.0000   1.0000   1.0000   1.0000   1.0000   1.0000   1.0000   1.0000
     1.0000   1.0000   1.0000   1.0000   1.0000   1.0000   1.0000   1.0000
     1.0000   1.0000   1.0000   1.0000   1.0000   1.0000   1.0000   1.0000
     1.0000   1.0000   1.0000   1.0000   1.0000   1.0000   1.0000   1.0000
     1.0000   1.0000   1.0000   1.0000   1.0000   1.0000   1.0000   1.0000
     1.0000   1.0000   1.0000   1.0000   1.0000   1.0000   1.0000   1.0000
     1.0000   1.0000   1.0000   1.0000   1.0000   1.0000   1.0000   1.0000
     1.0000   1.0000   1.0000   1.0000

          k = 0.0000 0.5774 0.1549 (  8604 PWs)   bands (ev):

    -8.2540  -7.8712  -7.8400  -7.5805  -7.5362  -7.3280  -7.3142  -7.1694
    -7.1632  -7.0555  -7.0154  -6.9295   3.9782   3.9850   3.9864   4.0165
     4.0580   4.1625   4.2269   4.2448   4.2771   4.4643   4.4838   4.5178
     4.8914   4.9186   4.9355   4.9806   4.9837   5.0244   5.0298   5.0582
     5.0598   5.0697   5.0718   5.0783   5.0858   5.1496   5.2309   5.2642
     5.2730   5.3033   5.3783   5.5690   5.6315   5.6706   5.7785   5.9181
     6.7743   6.8597   6.8787   6.9961   7.0284   7.0773   7.1371   7.1462
     7.1535   7.1715   7.2122   7.2518   7.2839   7.3001   7.3099   7.3535
     7.4116   7.4337   7.4467   7.4627   7.4918   7.5130   7.5457   7.6170
     7.8850   7.9185   8.0619   8.1198   8.3711   8.4178   8.6179   9.1107
     9.1991   9.2217   9.3771   9.4857   9.5988   9.6225   9.8227  10.0017
    10.2148  10.2967  10.3087  10.3241  10.3822  10.5503  10.7438  10.7917
    10.8120  10.8604  10.9074  10.9361  11.2603  11.2885  11.3139  11.5053
    11.5074  11.6750  11.9686  12.1599

     occupation numbers 
     1.0000   1.0000   1.0000   1.0000   1.0000   1.0000   1.0000   1.0000
     1.0000   1.0000   1.0000   1.0000   1.0000   1.0000   1.0000   1.0000
     1.0000   1.0000   1.0000   1.0000   1.0000   1.0000   1.0000   1.0000
     1.0000   1.0000   1.0000   1.0000   1.0000   1.0000   1.0000   1.0000
     1.0000   1.0000   1.0000   1.0000   1.0000   1.0000   1.0000   1.0000
     1.0000   1.0000   1.0000   1.0000   1.0000   1.0000   1.0000   1.0000
     1.0000   1.0000   1.0000   1.0000   1.0000   1.0000   1.0000   1.0000
     1.0000   1.0000   1.0000   1.0000   1.0000   1.0000   1.0000   1.0000
     1.0000   1.0000   1.0000   1.0000   1.0000   1.0000   1.0000   1.0000
     1.0000   1.0000   1.0000   1.0000   1.0000   1.0000   1.0000   1.0000
     1.0000   1.0000   1.0000   1.0000   1.0000   1.0000   1.0000   1.0000
     1.0000   1.0000   1.0000   1.0000   1.0000   1.0000   1.0000   1.0000
     1.0000   1.0000   1.0000   1.0000   1.0000   1.0000   1.0000   1.0000
     1.0000   1.0000   1.0000   1.0000

          k = 0.0000 0.5774 0.3097 (  8617 PWs)   bands (ev):

    -8.2009  -8.0037  -7.7971  -7.6399  -7.4420  -7.3036  -7.2284  -7.2173
    -7.2115  -7.0571  -7.0096  -6.9457   4.0304   4.0421   4.0647   4.0700
     4.1128   4.1809   4.1878   4.2051   4.2566   4.3390   4.3816   4.4465
     4.9018   4.9243   4.9243   4.9462   5.0120   5.0274   5.0297   5.0423
     5.0463   5.0510   5.0591   5.0593   5.1192   5.1798   5.2049   5.2433
     5.2830   5.2909   5.4329   5.5364   5.6468   5.7251   5.7284   5.8631
     6.8344   6.9067   6.9224   7.0224   7.0270   7.0642   7.0727   7.0741
     7.1146   7.1667   7.1874   7.2642   7.3312   7.3508   7.3618   7.3956
     7.4152   7.4367   7.4371   7.4831   7.4885   7.5046   7.6350   7.6878
     7.8384   7.9650   8.1710   8.2540   8.4620   8.4993   8.6971   8.9414
     9.0103   9.1171   9.2012   9.3059   9.6252   9.6896   9.7215   9.7620
    10.2380  10.2414  10.2786  10.2876  10.4697  10.5253  10.7441  10.8422
    10.8491  10.8835  11.1028  11.1427  11.1439  11.2171  11.4174  11.4885
    11.5232  11.8415  11.8973  12.0920

     occupation numbers 
     1.0000   1.0000   1.0000   1.0000   1.0000   1.0000   1.0000   1.0000
     1.0000   1.0000   1.0000   1.0000   1.0000   1.0000   1.0000   1.0000
     1.0000   1.0000   1.0000   1.0000   1.0000   1.0000   1.0000   1.0000
     1.0000   1.0000   1.0000   1.0000   1.0000   1.0000   1.0000   1.0000
     1.0000   1.0000   1.0000   1.0000   1.0000   1.0000   1.0000   1.0000
     1.0000   1.0000   1.0000   1.0000   1.0000   1.0000   1.0000   1.0000
     1.0000   1.0000   1.0000   1.0000   1.0000   1.0000   1.0000   1.0000
     1.0000   1.0000   1.0000   1.0000   1.0000   1.0000   1.0000   1.0000
     1.0000   1.0000   1.0000   1.0000   1.0000   1.0000   1.0000   1.0000
     1.0000   1.0000   1.0000   1.0000   1.0000   1.0000   1.0000   1.0000
     1.0000   1.0000   1.0000   1.0000   1.0000   1.0000   1.0000   1.0000
     1.0000   1.0000   1.0000   1.0000   1.0000   1.0000   1.0000   1.0000
     1.0000   1.0000   1.0000   1.0000   1.0000   1.0000   1.0000   1.0000
     1.0000   1.0000   1.0000   1.0000

          k = 0.0000 0.5774-0.4646 (  8612 PWs)   bands (ev):

    -8.1158  -8.1158  -7.7289  -7.7289  -7.3216  -7.3216  -7.2655  -7.2655
    -7.1239  -7.1238  -6.9726  -6.9726   4.1086   4.1086   4.1141   4.1141
     4.1248   4.1248   4.1903   4.1903   4.2446   4.2446   4.3562   4.3562
     4.9200   4.9200   4.9226   4.9226   5.0307   5.0307   5.0355   5.0355
     5.0395   5.0395   5.0450   5.0450   5.1661   5.1661   5.2105   5.2105
     5.2884   5.2884   5.4884   5.4884   5.6805   5.6805   5.7936   5.7936
     6.9226   6.9226   6.9849   6.9849   6.9869   6.9869   7.0632   7.0633
     7.1209   7.1209   7.2484   7.2484   7.3689   7.3689   7.3870   7.3870
     7.4081   7.4081   7.4799   7.4799   7.4940   7.4941   7.7468   7.7468
     7.8119   7.8119   8.5158   8.5158   8.5536   8.5536   8.5849   8.5849
     8.8747   8.8747   9.3621   9.3621   9.5114   9.5114   9.7518   9.7518
    10.1859  10.1859  10.3782  10.3782  10.4228  10.4228  10.8598  10.8598
    10.9435  10.9435  10.9970  10.9970  11.2793  11.2793  11.4034  11.4034
    11.7469  11.7469  11.9835  11.9835

     occupation numbers 
     1.0000   1.0000   1.0000   1.0000   1.0000   1.0000   1.0000   1.0000
     1.0000   1.0000   1.0000   1.0000   1.0000   1.0000   1.0000   1.0000
     1.0000   1.0000   1.0000   1.0000   1.0000   1.0000   1.0000   1.0000
     1.0000   1.0000   1.0000   1.0000   1.0000   1.0000   1.0000   1.0000
     1.0000   1.0000   1.0000   1.0000   1.0000   1.0000   1.0000   1.0000
     1.0000   1.0000   1.0000   1.0000   1.0000   1.0000   1.0000   1.0000
     1.0000   1.0000   1.0000   1.0000   1.0000   1.0000   1.0000   1.0000
     1.0000   1.0000   1.0000   1.0000   1.0000   1.0000   1.0000   1.0000
     1.0000   1.0000   1.0000   1.0000   1.0000   1.0000   1.0000   1.0000
     1.0000   1.0000   1.0000   1.0000   1.0000   1.0000   1.0000   1.0000
     1.0000   1.0000   1.0000   1.0000   1.0000   1.0000   1.0000   1.0000
     1.0000   1.0000   1.0000   1.0000   1.0000   1.0000   1.0000   1.0000
     1.0000   1.0000   1.0000   1.0000   1.0000   1.0000   1.0000   1.0000
     1.0000   1.0000   1.0000   1.0000

          k = 0.0000 1.1547 0.0000 (  8618 PWs)   bands (ev):

    -7.6946  -7.6946  -7.3187  -7.3187  -7.3187  -7.3187  -7.0320  -7.0320
    -7.0040  -7.0040  -6.9622  -6.9622   3.8384   3.8384   3.8384   3.8384
     4.0274   4.0274   4.3939   4.3939   4.5410   4.5441   4.5441   4.7594
     4.7594   5.0707   5.0708   5.0930   5.0930   5.0952   5.1493   5.1493
     5.2529   5.2529   5.2529   5.2529   5.3390   5.3390   5.3390   5.3390
     5.5710   5.5710   5.6835   5.6835   5.9040   5.9040   6.0056   6.0056
     6.7227   6.7227   6.7984   6.9548   6.9548   6.9838   6.9839   7.0869
     7.1277   7.1277   7.2632   7.2632   7.2632   7.2632   7.2800   7.2800
     7.2800   7.2800   7.3398   7.3398   7.4565   7.4565   7.7747   7.9099
     7.9099   8.0336   8.0336   8.0736   8.0736   8.4526   8.4526   8.4782
     8.4782   8.7919   8.7919   8.9061   8.9061   8.9061   8.9061   9.7505
     9.7505   9.8178   9.8179   9.8303   9.8303   9.9078  10.4675  10.4675
    10.4675  10.4675  10.5547  10.5547  10.6981  10.6981  10.6981  10.6981
    11.2321  11.2321  11.5509  11.5509

     occupation numbers 
     1.0000   1.0000   1.0000   1.0000   1.0000   1.0000   1.0000   1.0000
     1.0000   1.0000   1.0000   1.0000   1.0000   1.0000   1.0000   1.0000
     1.0000   1.0000   1.0000   1.0000   1.0000   1.0000   1.0000   1.0000
     1.0000   1.0000   1.0000   1.0000   1.0000   1.0000   1.0000   1.0000
     1.0000   1.0000   1.0000   1.0000   1.0000   1.0000   1.0000   1.0000
     1.0000   1.0000   1.0000   1.0000   1.0000   1.0000   1.0000   1.0000
     1.0000   1.0000   1.0000   1.0000   1.0000   1.0000   1.0000   1.0000
     1.0000   1.0000   1.0000   1.0000   1.0000   1.0000   1.0000   1.0000
     1.0000   1.0000   1.0000   1.0000   1.0000   1.0000   1.0000   1.0000
     1.0000   1.0000   1.0000   1.0000   1.0000   1.0000   1.0000   1.0000
     1.0000   1.0000   1.0000   1.0000   1.0000   1.0000   1.0000   1.0000
     1.0000   1.0000   1.0000   1.0000   1.0000   1.0000   1.0000   1.0000
     1.0000   1.0000   1.0000   1.0000   1.0000   1.0000   1.0000   1.0000
     1.0000   1.0000   1.0000   1.0000

          k = 0.0000 1.1547 0.1549 (  8634 PWs)   bands (ev):

    -7.6816  -7.6816  -7.4147  -7.4147  -7.2239  -7.2239  -7.0302  -7.0302
    -7.0059  -7.0059  -6.9738  -6.9738   3.8267   3.8267   3.8996   3.8996
     4.0119   4.0119   4.4306   4.4306   4.4827   4.4827   4.5471   4.6952
     4.8307   5.0130   5.0130   5.0801   5.1002   5.1002   5.1548   5.1548
     5.2142   5.2142   5.2677   5.2677   5.3035   5.3035   5.4165   5.4165
     5.5491   5.5491   5.6695   5.6695   5.9074   5.9074   5.9900   5.9900
     6.7518   6.7518   6.8047   6.9182   6.9901   7.0555   7.0556   7.0824
     7.1329   7.1329   7.1527   7.1527   7.2398   7.2398   7.3214   7.3214
     7.3635   7.3635   7.3923   7.3923   7.4496   7.4496   7.8047   7.8047
     7.8093   8.0945   8.0945   8.1170   8.1170   8.4575   8.4575   8.4978
     8.4978   8.5260   8.7600   8.7600   9.0107   9.0107   9.0641   9.7858
     9.7858   9.8031   9.8031   9.8660   9.8674   9.8675  10.0733  10.0733
    10.4661  10.4661  10.5046  10.5046  10.8222  10.8222  10.9243  10.9243
    11.2439  11.2439  11.5226  11.5226

     occupation numbers 
     1.0000   1.0000   1.0000   1.0000   1.0000   1.0000   1.0000   1.0000
     1.0000   1.0000   1.0000   1.0000   1.0000   1.0000   1.0000   1.0000
     1.0000   1.0000   1.0000   1.0000   1.0000   1.0000   1.0000   1.0000
     1.0000   1.0000   1.0000   1.0000   1.0000   1.0000   1.0000   1.0000
     1.0000   1.0000   1.0000   1.0000   1.0000   1.0000   1.0000   1.0000
     1.0000   1.0000   1.0000   1.0000   1.0000   1.0000   1.0000   1.0000
     1.0000   1.0000   1.0000   1.0000   1.0000   1.0000   1.0000   1.0000
     1.0000   1.0000   1.0000   1.0000   1.0000   1.0000   1.0000   1.0000
     1.0000   1.0000   1.0000   1.0000   1.0000   1.0000   1.0000   1.0000
     1.0000   1.0000   1.0000   1.0000   1.0000   1.0000   1.0000   1.0000
     1.0000   1.0000   1.0000   1.0000   1.0000   1.0000   1.0000   1.0000
     1.0000   1.0000   1.0000   1.0000   1.0000   1.0000   1.0000   1.0000
     1.0000   1.0000   1.0000   1.0000   1.0000   1.0000   1.0000   1.0000
     1.0000   1.0000   1.0000   1.0000

          k = 0.0000 1.1547 0.3097 (  8608 PWs)   bands (ev):

    -7.6436  -7.6436  -7.5051  -7.5051  -7.1370  -7.1370  -7.0251  -7.0251
    -7.0111  -7.0111  -7.0082  -7.0082   3.8565   3.8565   3.9691   3.9691
     4.0105   4.0105   4.3345   4.3345   4.5355   4.5355   4.5663   4.6408
     4.8676   4.8677   4.9052   5.0383   5.1217   5.1217   5.1641   5.1641
     5.1883   5.1883   5.2064   5.2064   5.3638   5.3638   5.4955   5.4955
     5.4957   5.4957   5.6294   5.6294   5.9176   5.9176   5.9604   5.9604
     6.8228   6.8264   6.8264   6.8825   7.0222   7.0384   7.0384   7.0697
     7.1479   7.1480   7.2031   7.2031   7.2285   7.2285   7.3620   7.3620
     7.4293   7.4293   7.4461   7.4461   7.4783   7.4783   7.6325   7.6325
     7.9112   8.1965   8.1965   8.2252   8.2252   8.2815   8.4015   8.4015
     8.5885   8.5885   8.6267   8.6267   9.0058   9.0058   9.3262   9.7383
     9.7383   9.7457   9.7672   9.7672   9.8877   9.8877  10.0020  10.0020
    10.2432  10.2432  10.3687  10.3687  11.0780  11.0780  11.1311  11.1311
    11.2558  11.2558  11.4394  11.4394

     occupation numbers 
     1.0000   1.0000   1.0000   1.0000   1.0000   1.0000   1.0000   1.0000
     1.0000   1.0000   1.0000   1.0000   1.0000   1.0000   1.0000   1.0000
     1.0000   1.0000   1.0000   1.0000   1.0000   1.0000   1.0000   1.0000
     1.0000   1.0000   1.0000   1.0000   1.0000   1.0000   1.0000   1.0000
     1.0000   1.0000   1.0000   1.0000   1.0000   1.0000   1.0000   1.0000
     1.0000   1.0000   1.0000   1.0000   1.0000   1.0000   1.0000   1.0000
     1.0000   1.0000   1.0000   1.0000   1.0000   1.0000   1.0000   1.0000
     1.0000   1.0000   1.0000   1.0000   1.0000   1.0000   1.0000   1.0000
     1.0000   1.0000   1.0000   1.0000   1.0000   1.0000   1.0000   1.0000
     1.0000   1.0000   1.0000   1.0000   1.0000   1.0000   1.0000   1.0000
     1.0000   1.0000   1.0000   1.0000   1.0000   1.0000   1.0000   1.0000
     1.0000   1.0000   1.0000   1.0000   1.0000   1.0000   1.0000   1.0000
     1.0000   1.0000   1.0000   1.0000   1.0000   1.0000   1.0000   1.0000
     1.0000   1.0000   1.0000   1.0000

          k = 0.0000 1.1547-0.4646 (  8566 PWs)   bands (ev):

    -7.5833  -7.5833  -7.5833  -7.5833  -7.0636  -7.0636  -7.0636  -7.0636
    -7.0181  -7.0181  -7.0180  -7.0180   3.9110   3.9110   3.9110   3.9110
     4.1626   4.1626   4.1626   4.1626   4.5977   4.5977   4.6919   4.6919
     4.6919   4.6919   4.9770   4.9771   5.1575   5.1575   5.1575   5.1576
     5.1734   5.1734   5.1734   5.1734   5.4300   5.4300   5.4300   5.4300
     5.5690   5.5690   5.5690   5.5690   5.9352   5.9352   5.9352   5.9352
     6.8499   6.8499   6.9265   6.9265   6.9265   6.9265   7.0494   7.0494
     7.1720   7.1720   7.1720   7.1720   7.3991   7.3991   7.3991   7.3991
     7.4346   7.4346   7.4346   7.4346   7.4948   7.4948   7.4948   7.4948
     8.0725   8.0725   8.3216   8.3216   8.3216   8.3216   8.3896   8.3896
     8.3896   8.3896   8.8278   8.8278   8.8278   8.8278   9.5599   9.5599
     9.6869   9.6869   9.6869   9.6869  10.0451  10.0451  10.0451  10.0451
    10.1849  10.1850  10.1850  10.1850  11.2163  11.2163  11.2163  11.2163
    11.3063  11.3063  11.3063  11.3063

     occupation numbers 
     1.0000   1.0000   1.0000   1.0000   1.0000   1.0000   1.0000   1.0000
     1.0000   1.0000   1.0000   1.0000   1.0000   1.0000   1.0000   1.0000
     1.0000   1.0000   1.0000   1.0000   1.0000   1.0000   1.0000   1.0000
     1.0000   1.0000   1.0000   1.0000   1.0000   1.0000   1.0000   1.0000
     1.0000   1.0000   1.0000   1.0000   1.0000   1.0000   1.0000   1.0000
     1.0000   1.0000   1.0000   1.0000   1.0000   1.0000   1.0000   1.0000
     1.0000   1.0000   1.0000   1.0000   1.0000   1.0000   1.0000   1.0000
     1.0000   1.0000   1.0000   1.0000   1.0000   1.0000   1.0000   1.0000
     1.0000   1.0000   1.0000   1.0000   1.0000   1.0000   1.0000   1.0000
     1.0000   1.0000   1.0000   1.0000   1.0000   1.0000   1.0000   1.0000
     1.0000   1.0000   1.0000   1.0000   1.0000   1.0000   1.0000   1.0000
     1.0000   1.0000   1.0000   1.0000   1.0000   1.0000   1.0000   1.0000
     1.0000   1.0000   1.0000   1.0000   1.0000   1.0000   1.0000   1.0000
     1.0000   1.0000   1.0000   1.0000

          k = 0.0000-1.7321 0.0000 (  8636 PWs)   bands (ev):

    -7.3364  -7.3364  -7.3178  -7.1078  -7.1078  -7.1078  -7.1078  -7.1019
    -7.1019  -6.9327  -6.9242  -6.9241   3.7450   3.7450   3.9707   3.9707
     3.9707   3.9707   4.1455   4.1520   4.2654   4.2654   4.5210   4.5210
     5.0653   5.0653   5.1177   5.1177   5.1177   5.1177   5.1603   5.2858
     5.2858   5.3599   5.4426   5.4426   5.4976   5.4976   5.6386   5.6386
     5.6386   5.6386   5.7726   5.8020   5.8020   5.9401   5.9401   5.9801
     6.8514   6.8514   7.0087   7.0087   7.0128   7.2149   7.2149   7.2149
     7.2149   7.3212   7.3685   7.3685   7.4635   7.4635   7.4869   7.4960
     7.4960   7.5209   7.5209   7.5563   7.5563   7.5563   7.5563   7.5766
     7.7272   7.9017   7.9017   7.9424   7.9424   8.2203   8.2558   8.2558
     8.2558   8.2558   8.3785   8.3785   8.5927   8.5927   8.7181   9.1344
     9.1706   9.1706   9.6290   9.6290   9.6290   9.6290  10.2497  10.2497
    10.4740  10.4740  10.5461  10.5461  10.5524  10.5524  10.5524  10.5524
    10.6631  10.8724  10.8724  11.1858

     occupation numbers 
     1.0000   1.0000   1.0000   1.0000   1.0000   1.0000   1.0000   1.0000
     1.0000   1.0000   1.0000   1.0000   1.0000   1.0000   1.0000   1.0000
     1.0000   1.0000   1.0000   1.0000   1.0000   1.0000   1.0000   1.0000
     1.0000   1.0000   1.0000   1.0000   1.0000   1.0000   1.0000   1.0000
     1.0000   1.0000   1.0000   1.0000   1.0000   1.0000   1.0000   1.0000
     1.0000   1.0000   1.0000   1.0000   1.0000   1.0000   1.0000   1.0000
     1.0000   1.0000   1.0000   1.0000   1.0000   1.0000   1.0000   1.0000
     1.0000   1.0000   1.0000   1.0000   1.0000   1.0000   1.0000   1.0000
     1.0000   1.0000   1.0000   1.0000   1.0000   1.0000   1.0000   1.0000
     1.0000   1.0000   1.0000   1.0000   1.0000   1.0000   1.0000   1.0000
     1.0000   1.0000   1.0000   1.0000   1.0000   1.0000   1.0000   1.0000
     1.0000   1.0000   1.0000   1.0000   1.0000   1.0000   1.0000   1.0000
     1.0000   1.0000   1.0000   1.0000   1.0000   1.0000   1.0000   1.0000
     1.0000   1.0000   1.0000   1.0000

          k = 0.0000-1.7321 0.1549 (  8608 PWs)   bands (ev):

    -7.3280  -7.3280  -7.3098  -7.1632  -7.1632  -7.1538  -7.0555  -7.0555
    -7.0532  -6.9376  -6.9295  -6.9295   3.7591   3.7806   3.9783   3.9783
     4.0165   4.0165   4.1186   4.1201   4.2449   4.2449   4.4840   4.4840
     5.0581   5.0581   5.0857   5.0857   5.1496   5.1496   5.1704   5.2730
     5.2730   5.3556   5.3983   5.4002   5.4987   5.6042   5.6314   5.6314
     5.6705   5.6705   5.7532   5.7785   5.7785   5.9179   5.9179   5.9599
     6.8597   6.8597   7.0444   7.0773   7.0773   7.1536   7.1536   7.2518
     7.2518   7.3226   7.3538   7.3867   7.3959   7.4792   7.4919   7.4919
     7.5131   7.5131   7.5173   7.5458   7.5458   7.5820   7.6170   7.6170
     7.7361   7.8850   7.8850   7.9028   7.9790   8.1198   8.1198   8.1835
     8.3712   8.3712   8.4178   8.4178   8.6179   8.6179   8.8210   9.1797
     9.1991   9.1991   9.3770   9.3770   9.8226   9.8226   9.9885  10.1634
    10.3241  10.3241  10.5009  10.5502  10.5502  10.6866  10.6881  10.7437
    10.7437  10.8603  10.8603  11.1551

     occupation numbers 
     1.0000   1.0000   1.0000   1.0000   1.0000   1.0000   1.0000   1.0000
     1.0000   1.0000   1.0000   1.0000   1.0000   1.0000   1.0000   1.0000
     1.0000   1.0000   1.0000   1.0000   1.0000   1.0000   1.0000   1.0000
     1.0000   1.0000   1.0000   1.0000   1.0000   1.0000   1.0000   1.0000
     1.0000   1.0000   1.0000   1.0000   1.0000   1.0000   1.0000   1.0000
     1.0000   1.0000   1.0000   1.0000   1.0000   1.0000   1.0000   1.0000
     1.0000   1.0000   1.0000   1.0000   1.0000   1.0000   1.0000   1.0000
     1.0000   1.0000   1.0000   1.0000   1.0000   1.0000   1.0000   1.0000
     1.0000   1.0000   1.0000   1.0000   1.0000   1.0000   1.0000   1.0000
     1.0000   1.0000   1.0000   1.0000   1.0000   1.0000   1.0000   1.0000
     1.0000   1.0000   1.0000   1.0000   1.0000   1.0000   1.0000   1.0000
     1.0000   1.0000   1.0000   1.0000   1.0000   1.0000   1.0000   1.0000
     1.0000   1.0000   1.0000   1.0000   1.0000   1.0000   1.0000   1.0000
     1.0000   1.0000   1.0000   1.0000

          k = 0.0000-1.7321 0.3097 (  8618 PWs)   bands (ev):

    -7.3036  -7.3036  -7.2866  -7.2173  -7.2173  -7.2047  -7.0108  -7.0096
    -7.0096  -6.9523  -6.9457  -6.9457   3.8220   3.8564   4.0305   4.0305
     4.0312   4.0502   4.1129   4.1129   4.1879   4.1879   4.3817   4.3817
     5.0462   5.0462   5.0592   5.0592   5.1798   5.1798   5.2000   5.2432
     5.2432   5.3162   5.3490   5.3674   5.5641   5.6467   5.6467   5.7021
     5.7135   5.7250   5.7250   5.7284   5.7284   5.8630   5.8630   5.9024
     6.9067   6.9067   7.0727   7.0727   7.1235   7.1874   7.1874   7.2642
     7.2642   7.3140   7.3264   7.3417   7.4085   7.4589   7.4832   7.4832
     7.4885   7.4885   7.5565   7.5878   7.6351   7.6351   7.6878   7.6878
     7.7645   7.8384   7.8384   7.8578   7.9651   7.9651   8.0169   8.1185
     8.4620   8.4620   8.4993   8.4993   8.6972   8.6972   9.0749   9.1170
     9.1170   9.3059   9.3059   9.3075   9.7325   9.7619   9.7619   9.7946
    10.2875  10.2875  10.5252  10.5252  10.7282  10.7428  10.7896  10.8422
    10.8422  10.8490  10.8490  11.0646

     occupation numbers 
     1.0000   1.0000   1.0000   1.0000   1.0000   1.0000   1.0000   1.0000
     1.0000   1.0000   1.0000   1.0000   1.0000   1.0000   1.0000   1.0000
     1.0000   1.0000   1.0000   1.0000   1.0000   1.0000   1.0000   1.0000
     1.0000   1.0000   1.0000   1.0000   1.0000   1.0000   1.0000   1.0000
     1.0000   1.0000   1.0000   1.0000   1.0000   1.0000   1.0000   1.0000
     1.0000   1.0000   1.0000   1.0000   1.0000   1.0000   1.0000   1.0000
     1.0000   1.0000   1.0000   1.0000   1.0000   1.0000   1.0000   1.0000
     1.0000   1.0000   1.0000   1.0000   1.0000   1.0000   1.0000   1.0000
     1.0000   1.0000   1.0000   1.0000   1.0000   1.0000   1.0000   1.0000
     1.0000   1.0000   1.0000   1.0000   1.0000   1.0000   1.0000   1.0000
     1.0000   1.0000   1.0000   1.0000   1.0000   1.0000   1.0000   1.0000
     1.0000   1.0000   1.0000   1.0000   1.0000   1.0000   1.0000   1.0000
     1.0000   1.0000   1.0000   1.0000   1.0000   1.0000   1.0000   1.0000
     1.0000   1.0000   1.0000   1.0000

          k = 0.0000-1.7321-0.4646 (  8616 PWs)   bands (ev):

    -7.2656  -7.2655  -7.2655  -7.2655  -7.2504  -7.2504  -6.9768  -6.9767
    -6.9726  -6.9726  -6.9726  -6.9726   3.9211   3.9211   3.9541   3.9541
     4.1087   4.1087   4.1087   4.1087   4.2447   4.2447   4.2447   4.2447
     5.0449   5.0449   5.0449   5.0449   5.2105   5.2105   5.2105   5.2105
     5.2492   5.2492   5.3512   5.3512   5.6344   5.6344   5.6806   5.6806
     5.6806   5.6806   5.7935   5.7935   5.7935   5.7935   5.8166   5.8166
     6.9849   6.9849   6.9849   6.9849   7.2203   7.2203   7.2484   7.2484
     7.2484   7.2484   7.3328   7.3328   7.4335   7.4335   7.4799   7.4799
     7.4799   7.4799   7.5803   7.5803   7.7468   7.7468   7.7468   7.7468
     7.8087   7.8087   7.8119   7.8119   7.8119   7.8119   8.0619   8.0619
     8.5158   8.5158   8.5158   8.5158   8.8746   8.8746   8.8746   8.8746
     9.4155   9.4155   9.4990   9.4990   9.5114   9.5114   9.5114   9.5114
    10.4227  10.4227  10.4227  10.4227  10.7938  10.7938  10.8598  10.8598
    10.8598  10.8598  10.9197  10.9197

     occupation numbers 
     1.0000   1.0000   1.0000   1.0000   1.0000   1.0000   1.0000   1.0000
     1.0000   1.0000   1.0000   1.0000   1.0000   1.0000   1.0000   1.0000
     1.0000   1.0000   1.0000   1.0000   1.0000   1.0000   1.0000   1.0000
     1.0000   1.0000   1.0000   1.0000   1.0000   1.0000   1.0000   1.0000
     1.0000   1.0000   1.0000   1.0000   1.0000   1.0000   1.0000   1.0000
     1.0000   1.0000   1.0000   1.0000   1.0000   1.0000   1.0000   1.0000
     1.0000   1.0000   1.0000   1.0000   1.0000   1.0000   1.0000   1.0000
     1.0000   1.0000   1.0000   1.0000   1.0000   1.0000   1.0000   1.0000
     1.0000   1.0000   1.0000   1.0000   1.0000   1.0000   1.0000   1.0000
     1.0000   1.0000   1.0000   1.0000   1.0000   1.0000   1.0000   1.0000
     1.0000   1.0000   1.0000   1.0000   1.0000   1.0000   1.0000   1.0000
     1.0000   1.0000   1.0000   1.0000   1.0000   1.0000   1.0000   1.0000
     1.0000   1.0000   1.0000   1.0000   1.0000   1.0000   1.0000   1.0000
     1.0000   1.0000   1.0000   1.0000

          k = 0.1667 0.0962 0.0000 (  8637 PWs)   bands (ev):

    -8.4939  -7.8981  -7.8970  -7.8970  -7.5095  -7.4554  -7.4554  -7.2458
    -7.2045  -7.2045  -7.0148  -6.9333   3.7847   3.7847   3.9141   3.9141
     4.0036   4.1122   4.1127   4.2022   4.2022   4.4227   4.6303   4.7221
     4.7787   4.8688   4.8766   4.8766   4.8882   4.8882   5.0066   5.0354
     5.0490   5.0809   5.1323   5.1435   5.1435   5.2348   5.2348   5.2618
     5.3501   5.3501   5.3605   5.4240   5.4240   5.5218   5.7168   5.8329
     6.7189   6.8471   6.9779   6.9908   7.0546   7.2147   7.2350   7.2350
     7.2351   7.2351   7.2364   7.2364   7.2502   7.2502   7.3172   7.3172
     7.3189   7.3189   7.3290   7.3933   7.3959   7.4020   7.4425   7.4711
     7.8387   7.9403   7.9703   8.3043   8.4531   8.4531   8.9597   9.3072
     9.3865   9.3865   9.4388   9.9462   9.9462  10.1048  10.3549  10.4662
    10.4662  10.4675  10.4675  10.4993  10.4993  10.9539  10.9685  10.9685
    11.1415  11.2219  11.3622  11.5208  11.7483  11.7483  11.7694  11.8264
    11.8264  12.2119  12.2383  12.4308

     occupation numbers 
     1.0000   1.0000   1.0000   1.0000   1.0000   1.0000   1.0000   1.0000
     1.0000   1.0000   1.0000   1.0000   1.0000   1.0000   1.0000   1.0000
     1.0000   1.0000   1.0000   1.0000   1.0000   1.0000   1.0000   1.0000
     1.0000   1.0000   1.0000   1.0000   1.0000   1.0000   1.0000   1.0000
     1.0000   1.0000   1.0000   1.0000   1.0000   1.0000   1.0000   1.0000
     1.0000   1.0000   1.0000   1.0000   1.0000   1.0000   1.0000   1.0000
     1.0000   1.0000   1.0000   1.0000   1.0000   1.0000   1.0000   1.0000
     1.0000   1.0000   1.0000   1.0000   1.0000   1.0000   1.0000   1.0000
     1.0000   1.0000   1.0000   1.0000   1.0000   1.0000   1.0000   1.0000
     1.0000   1.0000   1.0000   1.0000   1.0000   1.0000   1.0000   1.0000
     1.0000   1.0000   1.0000   1.0000   1.0000   1.0000   1.0000   1.0000
     1.0000   1.0000   1.0000   1.0000   1.0000   1.0000   1.0000   1.0000
     1.0000   1.0000   1.0000   1.0000   1.0000   1.0000   1.0000   1.0000
     1.0000   1.0000   1.0000   1.0000

          k = 0.1667 0.0962 0.1549 (  8621 PWs)   bands (ev):

    -8.4743  -8.0564  -7.8831  -7.7340  -7.5703  -7.4987  -7.3406  -7.2808
    -7.2690  -7.1304  -7.0296  -6.9418   3.7766   3.8430   3.9050   3.9707
     3.9858   4.0969   4.1009   4.1154   4.3197   4.3733   4.5534   4.7141
     4.7813   4.8445   4.8511   4.8526   4.9144   4.9293   5.0292   5.0412
     5.0424   5.0727   5.1122   5.1409   5.1762   5.1841   5.2603   5.2991
     5.3067   5.3399   5.3494   5.4071   5.5101   5.5156   5.6911   5.8161
     6.7461   6.8672   6.9880   7.0003   7.0616   7.1296   7.1761   7.1787
     7.2006   7.2168   7.2179   7.2861   7.2879   7.2900   7.2996   7.3336
     7.3504   7.3893   7.3923   7.3981   7.4091   7.4289   7.4359   7.4638
     7.9234   7.9290   8.0259   8.3271   8.3592   8.5562   8.9869   9.1993
     9.3045   9.4536   9.4785   9.4844  10.0998  10.1360  10.1362  10.2195
    10.3176  10.4255  10.7051  10.7533  10.7622  10.8892  10.9731  11.1615
    11.1799  11.2423  11.3326  11.5218  11.5887  11.6693  11.7427  11.9096
    11.9834  12.0075  12.3036  12.4104

     occupation numbers 
     1.0000   1.0000   1.0000   1.0000   1.0000   1.0000   1.0000   1.0000
     1.0000   1.0000   1.0000   1.0000   1.0000   1.0000   1.0000   1.0000
     1.0000   1.0000   1.0000   1.0000   1.0000   1.0000   1.0000   1.0000
     1.0000   1.0000   1.0000   1.0000   1.0000   1.0000   1.0000   1.0000
     1.0000   1.0000   1.0000   1.0000   1.0000   1.0000   1.0000   1.0000
     1.0000   1.0000   1.0000   1.0000   1.0000   1.0000   1.0000   1.0000
     1.0000   1.0000   1.0000   1.0000   1.0000   1.0000   1.0000   1.0000
     1.0000   1.0000   1.0000   1.0000   1.0000   1.0000   1.0000   1.0000
     1.0000   1.0000   1.0000   1.0000   1.0000   1.0000   1.0000   1.0000
     1.0000   1.0000   1.0000   1.0000   1.0000   1.0000   1.0000   1.0000
     1.0000   1.0000   1.0000   1.0000   1.0000   1.0000   1.0000   1.0000
     1.0000   1.0000   1.0000   1.0000   1.0000   1.0000   1.0000   1.0000
     1.0000   1.0000   1.0000   1.0000   1.0000   1.0000   1.0000   1.0000
     1.0000   1.0000   1.0000   1.0000

          k = 0.1667 0.0962 0.3097 (  8630 PWs)   bands (ev):

    -8.4168  -8.2018  -7.8391  -7.6773  -7.5787  -7.4672  -7.3537  -7.3365
    -7.2340  -7.0731  -7.0637  -6.9671   3.8112   3.9371   3.9373   3.9495
     4.0540   4.0673   4.0735   4.0752   4.2475   4.3899   4.4526   4.6744
     4.7891   4.8194   4.8211   4.8239   4.9545   4.9727   5.0228   5.0494
     5.0581   5.0589   5.0909   5.1263   5.1667   5.2303   5.2586   5.2673
     5.2777   5.3194   5.3648   5.4752   5.4766   5.6088   5.6279   5.7682
     6.8163   6.9257   7.0169   7.0189   7.0276   7.0816   7.1129   7.1163
     7.1216   7.1539   7.2277   7.2644   7.3280   7.3318   7.3455   7.3806
     7.3833   7.3861   7.4139   7.4162   7.4437   7.4750   7.4855   7.4973
     7.9420   8.1648   8.1853   8.2264   8.4874   8.6186   8.9263   8.9702
     9.0675   9.3232   9.3852   9.5921   9.7262   9.9803  10.0154  10.2212
    10.2266  10.5483  10.8782  10.9225  10.9470  11.0109  11.2037  11.2203
    11.2456  11.3022  11.3739  11.4420  11.5003  11.5230  11.6642  11.6841
    12.0606  12.1295  12.2769  12.3504

     occupation numbers 
     1.0000   1.0000   1.0000   1.0000   1.0000   1.0000   1.0000   1.0000
     1.0000   1.0000   1.0000   1.0000   1.0000   1.0000   1.0000   1.0000
     1.0000   1.0000   1.0000   1.0000   1.0000   1.0000   1.0000   1.0000
     1.0000   1.0000   1.0000   1.0000   1.0000   1.0000   1.0000   1.0000
     1.0000   1.0000   1.0000   1.0000   1.0000   1.0000   1.0000   1.0000
     1.0000   1.0000   1.0000   1.0000   1.0000   1.0000   1.0000   1.0000
     1.0000   1.0000   1.0000   1.0000   1.0000   1.0000   1.0000   1.0000
     1.0000   1.0000   1.0000   1.0000   1.0000   1.0000   1.0000   1.0000
     1.0000   1.0000   1.0000   1.0000   1.0000   1.0000   1.0000   1.0000
     1.0000   1.0000   1.0000   1.0000   1.0000   1.0000   1.0000   1.0000
     1.0000   1.0000   1.0000   1.0000   1.0000   1.0000   1.0000   1.0000
     1.0000   1.0000   1.0000   1.0000   1.0000   1.0000   1.0000   1.0000
     1.0000   1.0000   1.0000   1.0000   1.0000   1.0000   1.0000   1.0000
     1.0000   1.0000   1.0000   1.0000

          k = 0.1667 0.0962-0.4646 (  8638 PWs)   bands (ev):

    -8.3243  -8.3243  -7.7689  -7.7689  -7.4426  -7.4426  -7.4175  -7.4175
    -7.1428  -7.1428  -7.0083  -7.0083   3.8721   3.8721   3.9944   3.9944
     4.0574   4.0574   4.0926   4.0926   4.2178   4.2178   4.5803   4.5803
     4.8028   4.8028   4.8099   4.8099   4.9922   4.9922   5.0143   5.0143
     5.0762   5.0762   5.0866   5.0866   5.2092   5.2092   5.2625   5.2625
     5.2775   5.2775   5.4261   5.4261   5.5511   5.5511   5.6961   5.6961
     6.9116   6.9116   7.0123   7.0123   7.0614   7.0614   7.0693   7.0693
     7.1132   7.1132   7.2434   7.2434   7.3594   7.3594   7.3645   7.3645
     7.3853   7.3853   7.4154   7.4154   7.4670   7.4670   7.5294   7.5294
     8.0408   8.0408   8.5276   8.5276   8.5649   8.5649   8.6012   8.6012
     9.2019   9.2019   9.4443   9.4443   9.7652   9.7652  10.1006  10.1006
    10.3680  10.3680  11.0194  11.0194  11.1062  11.1062  11.2846  11.2846
    11.3317  11.3317  11.3978  11.3978  11.4064  11.4064  11.5387  11.5387
    12.1881  12.1881  12.2546  12.2546

     occupation numbers 
     1.0000   1.0000   1.0000   1.0000   1.0000   1.0000   1.0000   1.0000
     1.0000   1.0000   1.0000   1.0000   1.0000   1.0000   1.0000   1.0000
     1.0000   1.0000   1.0000   1.0000   1.0000   1.0000   1.0000   1.0000
     1.0000   1.0000   1.0000   1.0000   1.0000   1.0000   1.0000   1.0000
     1.0000   1.0000   1.0000   1.0000   1.0000   1.0000   1.0000   1.0000
     1.0000   1.0000   1.0000   1.0000   1.0000   1.0000   1.0000   1.0000
     1.0000   1.0000   1.0000   1.0000   1.0000   1.0000   1.0000   1.0000
     1.0000   1.0000   1.0000   1.0000   1.0000   1.0000   1.0000   1.0000
     1.0000   1.0000   1.0000   1.0000   1.0000   1.0000   1.0000   1.0000
     1.0000   1.0000   1.0000   1.0000   1.0000   1.0000   1.0000   1.0000
     1.0000   1.0000   1.0000   1.0000   1.0000   1.0000   1.0000   1.0000
     1.0000   1.0000   1.0000   1.0000   1.0000   1.0000   1.0000   1.0000
     1.0000   1.0000   1.0000   1.0000   1.0000   1.0000   1.0000   1.0000
     1.0000   1.0000   1.0000   1.0000

          k = 0.1667 0.6736 0.0000 (  8607 PWs)   bands (ev):

    -8.1696  -8.0265  -7.6505  -7.6505  -7.5461  -7.5461  -7.2397  -7.1084
    -7.0631  -7.0631  -7.0559  -6.9367   3.9867   3.9867   3.9975   3.9975
     4.0452   4.0452   4.2882   4.3106   4.3232   4.5023   4.5190   4.5372
     4.9214   4.9540   4.9791   4.9791   4.9846   4.9978   4.9978   5.0575
     5.0596   5.0915   5.1016   5.1016   5.1170   5.1242   5.1242   5.2147
     5.2147   5.2884   5.3233   5.4440   5.7013   5.7013   5.8439   6.0238
     6.7874   6.8238   6.9669   6.9872   6.9872   7.0405   7.1916   7.1916
     7.2258   7.2258   7.2282   7.2282   7.2324   7.2324   7.2447   7.2447
     7.4222   7.4286   7.4347   7.4440   7.4500   7.4716   7.6771   7.6771
     7.8540   7.9051   7.9117   8.0002   8.0002   8.1968   8.4590   9.2130
     9.4926   9.5162   9.5162   9.7123   9.7123   9.8624   9.8669   9.8669
    10.0641  10.2879  10.5091  10.5465  10.5465  10.5705  10.5705  10.7655
    10.7771  10.7793  10.7793  11.0333  11.0333  11.0916  11.3155  11.3155
    11.7144  11.8136  11.8734  12.0426

     occupation numbers 
     1.0000   1.0000   1.0000   1.0000   1.0000   1.0000   1.0000   1.0000
     1.0000   1.0000   1.0000   1.0000   1.0000   1.0000   1.0000   1.0000
     1.0000   1.0000   1.0000   1.0000   1.0000   1.0000   1.0000   1.0000
     1.0000   1.0000   1.0000   1.0000   1.0000   1.0000   1.0000   1.0000
     1.0000   1.0000   1.0000   1.0000   1.0000   1.0000   1.0000   1.0000
     1.0000   1.0000   1.0000   1.0000   1.0000   1.0000   1.0000   1.0000
     1.0000   1.0000   1.0000   1.0000   1.0000   1.0000   1.0000   1.0000
     1.0000   1.0000   1.0000   1.0000   1.0000   1.0000   1.0000   1.0000
     1.0000   1.0000   1.0000   1.0000   1.0000   1.0000   1.0000   1.0000
     1.0000   1.0000   1.0000   1.0000   1.0000   1.0000   1.0000   1.0000
     1.0000   1.0000   1.0000   1.0000   1.0000   1.0000   1.0000   1.0000
     1.0000   1.0000   1.0000   1.0000   1.0000   1.0000   1.0000   1.0000
     1.0000   1.0000   1.0000   1.0000   1.0000   1.0000   1.0000   1.0000
     1.0000   1.0000   1.0000   1.0000

          k = 0.1667 0.6736 0.1549 (  8617 PWs)   bands (ev):

    -8.1524  -8.0103  -7.7873  -7.6717  -7.5122  -7.4197  -7.2329  -7.1272
    -7.1044  -7.0726  -7.0252  -6.9401   4.0019   4.0057   4.0213   4.0288
     4.0378   4.1023   4.2714   4.2878   4.3026   4.4629   4.4642   4.4890
     4.9231   4.9629   4.9667   4.9773   4.9883   4.9919   5.0063   5.0514
     5.0529   5.0720   5.0848   5.0899   5.1349   5.1464   5.1652   5.1857
     5.2584   5.2805   5.3136   5.4335   5.6971   5.7289   5.8269   5.9962
     6.8069   6.8416   6.9777   6.9972   7.0014   7.0834   7.1366   7.1393
     7.1636   7.1726   7.1822   7.2092   7.2839   7.2893   7.3098   7.3277
     7.4166   7.4228   7.4484   7.4577   7.4635   7.4717   7.6195   7.7068
     7.9331   7.9346   7.9368   7.9805   8.0773   8.2008   8.4690   9.2431
     9.2724   9.4135   9.4750   9.5175   9.7704   9.8853   9.9177  10.0867
    10.1493  10.2292  10.2957  10.3119  10.5296  10.5318  10.6966  10.7308
    10.7632  10.7784  11.0117  11.0478  11.0755  11.1481  11.2271  11.5040
    11.7071  11.7865  11.8596  12.0180

     occupation numbers 
     1.0000   1.0000   1.0000   1.0000   1.0000   1.0000   1.0000   1.0000
     1.0000   1.0000   1.0000   1.0000   1.0000   1.0000   1.0000   1.0000
     1.0000   1.0000   1.0000   1.0000   1.0000   1.0000   1.0000   1.0000
     1.0000   1.0000   1.0000   1.0000   1.0000   1.0000   1.0000   1.0000
     1.0000   1.0000   1.0000   1.0000   1.0000   1.0000   1.0000   1.0000
     1.0000   1.0000   1.0000   1.0000   1.0000   1.0000   1.0000   1.0000
     1.0000   1.0000   1.0000   1.0000   1.0000   1.0000   1.0000   1.0000
     1.0000   1.0000   1.0000   1.0000   1.0000   1.0000   1.0000   1.0000
     1.0000   1.0000   1.0000   1.0000   1.0000   1.0000   1.0000   1.0000
     1.0000   1.0000   1.0000   1.0000   1.0000   1.0000   1.0000   1.0000
     1.0000   1.0000   1.0000   1.0000   1.0000   1.0000   1.0000   1.0000
     1.0000   1.0000   1.0000   1.0000   1.0000   1.0000   1.0000   1.0000
     1.0000   1.0000   1.0000   1.0000   1.0000   1.0000   1.0000   1.0000
     1.0000   1.0000   1.0000   1.0000

          k = 0.1667 0.6736 0.3097 (  8621 PWs)   bands (ev):

    -8.1016  -7.9630  -7.9133  -7.7881  -7.3819  -7.3015  -7.2135  -7.1821
[...]
     1.0000   1.0000   1.0000   1.0000   1.0000   1.0000   1.0000   1.0000
     1.0000   1.0000   1.0000   1.0000   1.0000   1.0000   1.0000   1.0000
     1.0000   1.0000   1.0000   1.0000

          k = 1.3333-0.3849-0.3097 (  8606 PWs)   bands (ev):

    -7.7790  -7.6238  -7.4223  -7.3155  -7.2023  -7.1929  -7.1293  -7.0508
    -7.0462  -6.9884  -6.9579  -6.9502   3.9082   3.9865   4.0274   4.0438
     4.0750   4.1179   4.2030   4.2523   4.3209   4.3684   4.3691   4.5073
     4.9360   4.9911   5.0049   5.0310   5.0832   5.0931   5.0937   5.1272
     5.1396   5.1898   5.2351   5.2641   5.2935   5.3105   5.4363   5.5366
     5.5440   5.6416   5.6497   5.7639   5.7931   5.8035   5.8265   5.9183
     6.8256   6.8928   6.9032   7.0243   7.0290   7.0789   7.0859   7.1408
     7.1710   7.1819   7.2065   7.2817   7.3523   7.4175   7.4199   7.4360
     7.4433   7.4584   7.4612   7.4989   7.5494   7.5548   7.5973   7.7824
     7.9018   7.9048   7.9639   8.1568   8.1814   8.2504   8.2926   8.5850
     8.6172   8.6504   8.7472   8.9016   9.0577   9.0701   9.3959   9.4127
     9.4264   9.5169   9.6407   9.7984   9.7989   9.8349  10.1368  10.1665
    10.1839  10.2575  10.5937  10.6163  10.7029  10.8630  10.9512  11.0698
    11.1254  11.2076  11.4286  11.4766

     occupation numbers 
     1.0000   1.0000   1.0000   1.0000   1.0000   1.0000   1.0000   1.0000
     1.0000   1.0000   1.0000   1.0000   1.0000   1.0000   1.0000   1.0000
     1.0000   1.0000   1.0000   1.0000   1.0000   1.0000   1.0000   1.0000
     1.0000   1.0000   1.0000   1.0000   1.0000   1.0000   1.0000   1.0000
     1.0000   1.0000   1.0000   1.0000   1.0000   1.0000   1.0000   1.0000
     1.0000   1.0000   1.0000   1.0000   1.0000   1.0000   1.0000   1.0000
     1.0000   1.0000   1.0000   1.0000   1.0000   1.0000   1.0000   1.0000
     1.0000   1.0000   1.0000   1.0000   1.0000   1.0000   1.0000   1.0000
     1.0000   1.0000   1.0000   1.0000   1.0000   1.0000   1.0000   1.0000
     1.0000   1.0000   1.0000   1.0000   1.0000   1.0000   1.0000   1.0000
     1.0000   1.0000   1.0000   1.0000   1.0000   1.0000   1.0000   1.0000
     1.0000   1.0000   1.0000   1.0000   1.0000   1.0000   1.0000   1.0000
     1.0000   1.0000   1.0000   1.0000   1.0000   1.0000   1.0000   1.0000
     1.0000   1.0000   1.0000   1.0000

     highest occupied level (ev):    12.4634

!    total energy              =   -2168.59835162 Ry
     estimated scf accuracy    <          1.4E-10 Ry

     The total energy is the sum of the following terms:
     one-electron contribution =    -699.78146667 Ry
     hartree contribution      =     632.17894783 Ry
     xc contribution           =    -661.97176704 Ry
     ewald contribution        =   -1439.02406574 Ry

     convergence has been achieved in  19 iterations

     Forces acting on atoms (cartesian axes, Ry/au):

     atom    1 type  1   force =     0.00001606    0.00000927    0.00182154
     atom    2 type  1   force =    -0.00001403   -0.00000810    0.00182368
     atom    3 type  2   force =    -0.00000245   -0.00000142   -0.00182161
     atom    4 type  2   force =     0.00000283    0.00000163   -0.00182199
     atom    5 type  1   force =     0.00001538    0.00000888    0.00182169
     atom    6 type  1   force =    -0.00001532   -0.00000884    0.00182064
     atom    7 type  2   force =    -0.00000248   -0.00000143   -0.00182146
     atom    8 type  2   force =     0.00000238    0.00000137   -0.00182171
     atom    9 type  1   force =     0.00001509    0.00000871    0.00182346
     atom   10 type  1   force =    -0.00001659   -0.00000958    0.00182362
     atom   11 type  2   force =    -0.00000258   -0.00000149   -0.00182196
     atom   12 type  2   force =     0.00000253    0.00000146   -0.00182173
     atom   13 type  1   force =     0.00001450    0.00000837    0.00181935
     atom   14 type  1   force =    -0.00001404   -0.00000811    0.00182004
     atom   15 type  2   force =    -0.00000272   -0.00000157   -0.00182162
     atom   16 type  2   force =     0.00000265    0.00000153   -0.00182199
     atom   17 type  1   force =     0.00001424    0.00000822    0.00182300
     atom   18 type  1   force =    -0.00001439   -0.00000831    0.00182471
     atom   19 type  2   force =    -0.00000252   -0.00000146   -0.00182190
     atom   20 type  2   force =     0.00000239    0.00000138   -0.00182192
     atom   21 type  1   force =     0.00001484    0.00000857    0.00181906
     atom   22 type  1   force =    -0.00001599   -0.00000923    0.00182067
     atom   23 type  2   force =    -0.00000245   -0.00000141   -0.00182150
     atom   24 type  2   force =     0.00000266    0.00000153   -0.00182209
     The non-local contrib.  to forces
     atom    1 type  1   force =    -0.00002778   -0.00001604   -0.00728020
     atom    2 type  1   force =     0.00002870    0.00001657   -0.00727959
     atom    3 type  2   force =    -0.00015462   -0.00008927   -0.00092588
     atom    4 type  2   force =     0.00015452    0.00008921   -0.00092640
     atom    5 type  1   force =    -0.00002803   -0.00001618   -0.00728081
     atom    6 type  1   force =     0.00002819    0.00001627   -0.00728098
     atom    7 type  2   force =    -0.00015459   -0.00008925   -0.00092668
     atom    8 type  2   force =     0.00015455    0.00008923   -0.00092591
     atom    9 type  1   force =    -0.00002832   -0.00001635   -0.00727938
     atom   10 type  1   force =     0.00002775    0.00001602   -0.00727962
     atom   11 type  2   force =    -0.00015503   -0.00008951   -0.00092627
     atom   12 type  2   force =     0.00015475    0.00008935   -0.00092675
     atom   13 type  1   force =    -0.00002864   -0.00001653   -0.00728200
     atom   14 type  1   force =     0.00002865    0.00001654   -0.00728127
     atom   15 type  2   force =    -0.00015423   -0.00008904   -0.00092632
     atom   16 type  2   force =     0.00015459    0.00008925   -0.00092557
     atom   17 type  1   force =    -0.00002869   -0.00001656   -0.00727961
     atom   18 type  1   force =     0.00002860    0.00001651   -0.00727925
     atom   19 type  2   force =    -0.00015419   -0.00008902   -0.00092580
     atom   20 type  2   force =     0.00015474    0.00008934   -0.00092730
     atom   21 type  1   force =    -0.00002823   -0.00001630   -0.00728188
     atom   22 type  1   force =     0.00002784    0.00001607   -0.00728099
     atom   23 type  2   force =    -0.00015498   -0.00008948   -0.00092670
     atom   24 type  2   force =     0.00015502    0.00008950   -0.00092490
     The ionic contribution  to forces
     atom    1 type  1   force =     0.00000001    0.00000001    0.07742818
     atom    2 type  1   force =     0.00000001    0.00000000    0.07742817
     atom    3 type  2   force =     0.00000000    0.00000000   -0.07742818
     atom    4 type  2   force =     0.00000001    0.00000000   -0.07742817
     atom    5 type  1   force =     0.00000001    0.00000001    0.07742818
     atom    6 type  1   force =     0.00000001    0.00000000    0.07742817
     atom    7 type  2   force =     0.00000000    0.00000000   -0.07742818
     atom    8 type  2   force =     0.00000001    0.00000000   -0.07742817
     atom    9 type  1   force =    -0.00000001    0.00000000    0.07742817
     atom   10 type  1   force =     0.00000001   -0.00000000    0.07742817
     atom   11 type  2   force =    -0.00000001    0.00000001   -0.07742817
     atom   12 type  2   force =     0.00000001   -0.00000001   -0.07742817
     atom   13 type  1   force =    -0.00000001    0.00000000    0.07742817
     atom   14 type  1   force =     0.00000001   -0.00000000    0.07742817
     atom   15 type  2   force =    -0.00000001    0.00000001   -0.07742817
     atom   16 type  2   force =     0.00000001   -0.00000001   -0.07742817
     atom   17 type  1   force =    -0.00000001   -0.00000000    0.07742817
     atom   18 type  1   force =    -0.00000001   -0.00000001    0.07742818
     atom   19 type  2   force =    -0.00000001   -0.00000000   -0.07742817
     atom   20 type  2   force =    -0.00000000   -0.00000000   -0.07742818
     atom   21 type  1   force =    -0.00000001   -0.00000000    0.07742817
     atom   22 type  1   force =    -0.00000001   -0.00000001    0.07742818
     atom   23 type  2   force =    -0.00000001   -0.00000000   -0.07742817
     atom   24 type  2   force =    -0.00000000   -0.00000000   -0.07742818
     The local contribution  to forces
     atom    1 type  1   force =     0.00004632    0.00002675   -0.06944029
     atom    2 type  1   force =    -0.00004938   -0.00002855   -0.06944278
     atom    3 type  2   force =     0.00014967    0.00008641    0.07652808
     atom    4 type  2   force =    -0.00015120   -0.00008731    0.07652620
     atom    5 type  1   force =     0.00004689    0.00002707   -0.06944017
     atom    6 type  1   force =    -0.00004709   -0.00002723   -0.06943837
     atom    7 type  2   force =     0.00015052    0.00008690    0.07652504
     atom    8 type  2   force =    -0.00015102   -0.00008720    0.07652749
     atom    9 type  1   force =     0.00004770    0.00002763   -0.06944297
     atom   10 type  1   force =    -0.00004538   -0.00002629   -0.06944299
     atom   11 type  2   force =     0.00015070    0.00008703    0.07652713
     atom   12 type  2   force =    -0.00015026   -0.00008678    0.07652527
     atom   13 type  1   force =     0.00004822    0.00002793   -0.06943651
     atom   14 type  1   force =    -0.00004919   -0.00002849   -0.06943788
     atom   15 type  2   force =     0.00015179    0.00008766    0.07652562
     atom   16 type  2   force =    -0.00015118   -0.00008730    0.07652778
     atom   17 type  1   force =     0.00004859    0.00002809   -0.06944233
     atom   18 type  1   force =    -0.00004832   -0.00002790   -0.06944429
     atom   19 type  2   force =     0.00015147    0.00008746    0.07652706
     atom   20 type  2   force =    -0.00015081   -0.00008707    0.07652520
     atom   21 type  1   force =     0.00004783    0.00002766   -0.06943664
     atom   22 type  1   force =    -0.00004639   -0.00002678   -0.06943838
     atom   23 type  2   force =     0.00014983    0.00008652    0.07652511
     atom   24 type  2   force =    -0.00015035   -0.00008680    0.07652836
     The core correction contribution to forces
     atom    1 type  1   force =    -0.00000394   -0.00000228    0.00111287
     atom    2 type  1   force =     0.00000398    0.00000229    0.00111290
     atom    3 type  2   force =     0.00000175    0.00000101    0.00000597
     atom    4 type  2   force =    -0.00000175   -0.00000101    0.00000597
     atom    5 type  1   force =    -0.00000393   -0.00000227    0.00111291
     atom    6 type  1   force =     0.00000392    0.00000225    0.00111286
     atom    7 type  2   force =     0.00000175    0.00000101    0.00000597
     atom    8 type  2   force =    -0.00000175   -0.00000101    0.00000597
     atom    9 type  1   force =    -0.00000395   -0.00000227    0.00111289
     atom   10 type  1   force =     0.00000390    0.00000224    0.00111292
     atom   11 type  2   force =     0.00000175    0.00000101    0.00000597
     atom   12 type  2   force =    -0.00000175   -0.00000101    0.00000597
     atom   13 type  1   force =    -0.00000393   -0.00000225    0.00111288
     atom   14 type  1   force =     0.00000397    0.00000228    0.00111287
     atom   15 type  2   force =     0.00000175    0.00000101    0.00000597
     atom   16 type  2   force =    -0.00000175   -0.00000101    0.00000596
     atom   17 type  1   force =    -0.00000393   -0.00000226    0.00111289
     atom   18 type  1   force =     0.00000392    0.00000226    0.00111293
     atom   19 type  2   force =     0.00000174    0.00000101    0.00000596
     atom   20 type  2   force =    -0.00000175   -0.00000101    0.00000598
     atom   21 type  1   force =    -0.00000395   -0.00000228    0.00111288
     atom   22 type  1   force =     0.00000393    0.00000227    0.00111286
     atom   23 type  2   force =     0.00000175    0.00000101    0.00000597
     atom   24 type  2   force =    -0.00000175   -0.00000101    0.00000596
     The Hubbard contrib.    to forces
     atom    1 type  1   force =     0.00000000    0.00000000    0.00000000
     atom    2 type  1   force =     0.00000000    0.00000000    0.00000000
     atom    3 type  2   force =     0.00000000    0.00000000    0.00000000
     atom    4 type  2   force =     0.00000000    0.00000000    0.00000000
     atom    5 type  1   force =     0.00000000    0.00000000    0.00000000
     atom    6 type  1   force =     0.00000000    0.00000000    0.00000000
     atom    7 type  2   force =     0.00000000    0.00000000    0.00000000
     atom    8 type  2   force =     0.00000000    0.00000000    0.00000000
     atom    9 type  1   force =     0.00000000    0.00000000    0.00000000
     atom   10 type  1   force =     0.00000000    0.00000000    0.00000000
     atom   11 type  2   force =     0.00000000    0.00000000    0.00000000
     atom   12 type  2   force =     0.00000000    0.00000000    0.00000000
     atom   13 type  1   force =     0.00000000    0.00000000    0.00000000
     atom   14 type  1   force =     0.00000000    0.00000000    0.00000000
     atom   15 type  2   force =     0.00000000    0.00000000    0.00000000
     atom   16 type  2   force =     0.00000000    0.00000000    0.00000000
     atom   17 type  1   force =     0.00000000    0.00000000    0.00000000
     atom   18 type  1   force =     0.00000000    0.00000000    0.00000000
     atom   19 type  2   force =     0.00000000    0.00000000    0.00000000
     atom   20 type  2   force =     0.00000000    0.00000000    0.00000000
     atom   21 type  1   force =     0.00000000    0.00000000    0.00000000
     atom   22 type  1   force =     0.00000000    0.00000000    0.00000000
     atom   23 type  2   force =     0.00000000    0.00000000    0.00000000
     atom   24 type  2   force =     0.00000000    0.00000000    0.00000000
     The SCF correction term to forces
     atom    1 type  1   force =     0.00000145    0.00000084    0.00000003
     atom    2 type  1   force =     0.00000269    0.00000156    0.00000401
     atom    3 type  2   force =     0.00000075    0.00000044   -0.00000257
     atom    4 type  2   force =     0.00000126    0.00000073   -0.00000056
     atom    5 type  1   force =     0.00000044    0.00000026    0.00000061
     atom    6 type  1   force =    -0.00000031   -0.00000018   -0.00000200
     atom    7 type  2   force =    -0.00000015   -0.00000009    0.00000143
     atom    8 type  2   force =     0.00000061    0.00000035   -0.00000205
     atom    9 type  1   force =    -0.00000037   -0.00000021    0.00000379
     atom   10 type  1   force =    -0.00000283   -0.00000163    0.00000418
     atom   11 type  2   force =     0.00000000    0.00000000   -0.00000159
     atom   12 type  2   force =    -0.00000020   -0.00000012    0.00000098
     atom   13 type  1   force =    -0.00000118   -0.00000068   -0.00000416
     atom   14 type  1   force =     0.00000257    0.00000148   -0.00000281
     atom   15 type  2   force =    -0.00000202   -0.00000117    0.00000031
     atom   16 type  2   force =     0.00000100    0.00000058   -0.00000296
     atom   17 type  1   force =    -0.00000173   -0.00000100    0.00000291
     atom   18 type  1   force =     0.00000142    0.00000082    0.00000617
     atom   19 type  2   force =    -0.00000154   -0.00000089   -0.00000192
     atom   20 type  2   force =     0.00000023    0.00000013    0.00000141
     atom   21 type  1   force =    -0.00000081   -0.00000047   -0.00000445
     atom   22 type  1   force =    -0.00000135   -0.00000078   -0.00000196
     atom   23 type  2   force =     0.00000096    0.00000055    0.00000132
     atom   24 type  2   force =    -0.00000025   -0.00000014   -0.00000431

     Total force =     0.008925     Total SCF correction =     0.000016

     init_run     :     10.74s CPU     11.16s WALL (       1 calls)
     electrons    :    488.69s CPU    510.93s WALL (       1 calls)
     forces       :      5.18s CPU      5.22s WALL (       1 calls)

     Called by init_run:
     wfcinit      :      6.04s CPU      6.40s WALL (       1 calls)
     wfcinit:atom :      0.06s CPU      0.06s WALL (       9 calls)
     wfcinit:wfcr :      5.66s CPU      6.00s WALL (       9 calls)
     potinit      :      1.90s CPU      1.92s WALL (       1 calls)
     hinit0       :      2.50s CPU      2.52s WALL (       1 calls)

     Called by electrons:
     c_bands      :    451.59s CPU    470.92s WALL (      19 calls)
     sum_band     :     32.45s CPU     35.06s WALL (      19 calls)
     v_of_rho     :      2.77s CPU      2.92s WALL (      20 calls)
     v_h          :      0.12s CPU      0.14s WALL (      20 calls)
     v_xc         :      2.77s CPU      2.91s WALL (      21 calls)
     newd         :      1.59s CPU      1.62s WALL (      20 calls)
     mix_rho      :      0.18s CPU      0.20s WALL (      19 calls)

     Called by c_bands:
     init_us_2    :      2.56s CPU      2.58s WALL (     360 calls)
     init_us_2:cp :      2.56s CPU      2.58s WALL (     360 calls)
     cegterg      :    405.01s CPU    424.22s WALL (     171 calls)

     Called by sum_band:
     sum_band:wei :      0.00s CPU      0.00s WALL (      19 calls)
     sum_band:loo :     30.01s CPU     32.51s WALL (      19 calls)
     sum_band:buf :      0.23s CPU      0.26s WALL (     171 calls)
     sum_band:ini :      0.80s CPU      0.81s WALL (     171 calls)
     sum_band:cal :      6.89s CPU      7.05s WALL (     171 calls)
     sum_band:bec :      0.15s CPU      0.15s WALL (     171 calls)
     addusdens    :      1.63s CPU      1.65s WALL (      19 calls)
                                        0.00s GPU  (      19 calls)
     addusd:skk   :      0.03s CPU      0.03s WALL (      38 calls)
                                        0.00s GPU  (      38 calls)

     Called by *egterg:
     cdiaghg      :     59.91s CPU     59.96s WALL (    1234 calls)
     cegterg:over :     27.82s CPU     28.39s WALL (    1063 calls)
     cegterg:upda :     17.58s CPU     17.60s WALL (    1063 calls)
     cegterg:last :     45.92s CPU     45.97s WALL (     711 calls)
     h_psi        :    220.47s CPU    239.19s WALL (    1243 calls)
     s_psi        :     29.91s CPU     29.94s WALL (    1243 calls)
     g_psi        :      0.75s CPU      0.75s WALL (    1063 calls)

     Called by h_psi:
     h_psi:calbec :     29.14s CPU     29.80s WALL (    1243 calls)
     vloc_psi     :    160.36s CPU    178.34s WALL (    1243 calls)
     add_vuspsi   :     30.24s CPU     30.28s WALL (    1243 calls)

     General routines
     calbec       :     37.65s CPU     38.50s WALL (    1450 calls)
     fft          :      1.63s CPU      1.82s WALL (     269 calls)
     ffts         :      0.14s CPU      0.16s WALL (      39 calls)
     fftw         :    138.03s CPU    154.74s WALL (  174940 calls)
     interpolate  :      0.21s CPU      0.23s WALL (      20 calls)

     Parallel routines

     PWSCF        :   8m25.11s CPU   8m47.83s WALL


   This run was terminated on:  14:37: 9   4Sep2025            

=------------------------------------------------------------------------------=
   JOB DONE.
=------------------------------------------------------------------------------=
Note: The following floating-point exceptions are signalling: IEEE_INVALID_FLAG
Note: The following floating-point exceptions are signalling: IEEE_INVALID_FLAG
Note: The following floating-point exceptions are signalling: IEEE_INVALID_FLAG
Note: The following floating-point exceptions are signalling: IEEE_INVALID_FLAG
Note: The following floating-point exceptions are signalling: IEEE_INVALID_FLAG
Note: The following floating-point exceptions are signalling: IEEE_INVALID_FLAG
Note: The following floating-point exceptions are signalling: IEEE_INVALID_FLAG
Note: The following floating-point exceptions are signalling: IEEE_INVALID_FLAG
