
     Program PWSCF v.7.2 starts on  5Sep2025 at  2: 9:19 

     This program is part of the open-source Quantum ESPRESSO suite
     for quantum simulation of materials; please cite
         "P. Giannozzi et al., J. Phys.:Condens. Matter 21 395502 (2009);
         "P. Giannozzi et al., J. Phys.:Condens. Matter 29 465901 (2017);
         "P. Giannozzi et al., J. Chem. Phys. 152 154105 (2020);
          URL http://www.quantum-espresso.org", 
     in publications or presentations arising from this work. More details at
     http://www.quantum-espresso.org/quote

     Parallel version (MPI), running on    64 processors

     MPI processes distributed on     1 nodes
     119174 MiB available memory on the printing compute node when the environment starts

     Reading input from /home/jvc/QEspresso7.2/ZnO_database/scripts/cell312.in/ZnO-3.07-1.74-312.in
Warning: card &CELL ignored
Warning: card / ignored
Warning: card &FCP ignored
Warning: card / ignored
Warning: card &RISM ignored
Warning: card / ignored

     Current dimensions of program PWSCF are:
     Max number of different atomic species (ntypx) = 10
     Max number of k-points (npk) =  40000
     Max angular momentum in pseudopotentials (lmaxx) =  4
     file Zn.upf: wavefunction(s)  3D renormalized
     Found identity + (  0.0000  0.0000 -0.5000) symmetry
     This is a supercell, fractional translations are disabled
     Message from routine setup:
     using ibrav=0 with symmetry is DISCOURAGED, use correct ibrav instead

     K-points division:     npool     =       8
     R & G space division:  proc/nbgrp/npool/nimage =       8
     Subspace diagonalization in iterative solution of the eigenvalue problem:
     a serial algorithm will be used


     Parallelization info
     --------------------
     sticks:   dense  smooth     PW     G-vecs:    dense   smooth      PW
     Min         348     174     52                29984    10598    1714
     Max         349     175     53                29987    10601    1718
     Sum        2791    1395    419               239887    84797   13727

     Using Slab Decomposition



     bravais-lattice index     =            0
     lattice parameter (alat)  =      17.4244  a.u.
     unit-cell volume          =    1775.0596 (a.u.)^3
     number of atoms/cell      =           24
     number of atomic types    =            2
     number of electrons       =       216.00
     number of Kohn-Sham states=          108
     kinetic-energy cutoff     =      50.0000  Ry
     charge density cutoff     =     400.0000  Ry
     scf convergence threshold =      1.0E-08
     mixing beta               =       0.3000
     number of iterations used =            8  plain     mixing
     Exchange-correlation= PBE
                           (   1   4   3   4   0   0   0)

     celldm(1)=  17.424368  celldm(2)=   0.000000  celldm(3)=   0.000000
     celldm(4)=   0.000000  celldm(5)=   0.000000  celldm(6)=   0.000000

     crystal axes: (cart. coord. in units of alat)
               a(1) = (   1.000000   0.000000   0.000000 )  
               a(2) = (  -0.166667   0.288675   0.000000 )  
               a(3) = (   0.000000   0.000000   1.162338 )  

     reciprocal axes: (cart. coord. in units 2 pi/alat)
               b(1) = (  1.000000  0.577350 -0.000000 )  
               b(2) = (  0.000000  3.464102  0.000000 )  
               b(3) = (  0.000000 -0.000000  0.860335 )  


     PseudoPot. # 1 for Zn read from file:
     /home/jvc/QEspresso7.2/ZnO_database/pseudos/Zn.upf
     MD5 check sum: 7f56cabf9682ed8c977c2f7d0c5985c5
     Pseudo is Ultrasoft + core correction, Zval = 12.0
     Generated using &quot;atomic&quot; code by A. Dal Corso  v.6.2.2
     Using radial grid of 1201 points,  6 beta functions with: 
                l(1) =   0
                l(2) =   0
                l(3) =   1
                l(4) =   1
                l(5) =   2
                l(6) =   2
     Q(r) pseudized with 0 coefficients 


     PseudoPot. # 2 for O  read from file:
     /home/jvc/QEspresso7.2/ZnO_database/pseudos/O.upf
     MD5 check sum: 91400c9766925bcf19f520983a725ff0
     Pseudo is Ultrasoft + core correction, Zval =  6.0
     Generated using &quot;atomic&quot; code by A. Dal Corso  v.6.3MaX
     Using radial grid of 1095 points,  4 beta functions with: 
                l(1) =   0
                l(2) =   0
                l(3) =   1
                l(4) =   1
     Q(r) pseudized with 0 coefficients 


     atomic species   valence    mass     pseudopotential
        Zn            12.00    65.38000     Zn( 1.00)
        O              6.00    15.99900     O ( 1.00)

      2 Sym. Ops. (no inversion) found


                                    s                        frac. trans.

      isym =  1     identity                                     

 cryst.   s( 1) = (     1          0          0      )
                  (     0          1          0      )
                  (     0          0          1      )

 cart.    s( 1) = (  1.0000000  0.0000000  0.0000000 )
                  (  0.0000000  1.0000000  0.0000000 )
                  (  0.0000000  0.0000000  1.0000000 )


      isym =  2     inv. 180 deg rotation - cryst. axis [0,1,0]  

 cryst.   s( 2) = (     1          3          0      )
                  (     0         -1          0      )
                  (     0          0          1      )

 cart.    s( 2) = (  0.5000000  0.8660254  0.0000000 )
                  (  0.8660254 -0.5000000  0.0000000 )
                  (  0.0000000  0.0000000  1.0000000 )


   Cartesian axes

     site n.     atom                  positions (alat units)
         1           Zn  tau(   1) = (   0.1666667   0.0962250   0.2909527  )
         2           Zn  tau(   2) = (  -0.0000000   0.1924501   0.0003682  )
         3           O   tau(   3) = (   0.1666667   0.0962250   0.5112407  )
         4           O   tau(   4) = (  -0.0000000   0.1924501   0.2206562  )
         5           Zn  tau(   5) = (   0.1666667   0.0962250   0.8721217  )
         6           Zn  tau(   6) = (  -0.0000000   0.1924501   0.5815372  )
         7           O   tau(   7) = (   0.1666667   0.0962250   1.0924097  )
         8           O   tau(   8) = (  -0.0000000   0.1924501   0.8018252  )
         9           Zn  tau(   9) = (   0.5000000   0.0962250   0.2909527  )
        10           Zn  tau(  10) = (   0.3333333   0.1924501   0.0003682  )
        11           O   tau(  11) = (   0.5000000   0.0962250   0.5112407  )
        12           O   tau(  12) = (   0.3333333   0.1924501   0.2206562  )
        13           Zn  tau(  13) = (   0.5000000   0.0962250   0.8721217  )
        14           Zn  tau(  14) = (   0.3333333   0.1924501   0.5815372  )
        15           O   tau(  15) = (   0.5000000   0.0962250   1.0924097  )
        16           O   tau(  16) = (   0.3333333   0.1924501   0.8018252  )
        17           Zn  tau(  17) = (   0.8333333   0.0962250   0.2909527  )
        18           Zn  tau(  18) = (   0.6666667   0.1924501   0.0003682  )
        19           O   tau(  19) = (   0.8333333   0.0962250   0.5112407  )
        20           O   tau(  20) = (   0.6666667   0.1924501   0.2206562  )
        21           Zn  tau(  21) = (   0.8333333   0.0962250   0.8721217  )
        22           Zn  tau(  22) = (   0.6666667   0.1924501   0.5815372  )
        23           O   tau(  23) = (   0.8333333   0.0962250   1.0924097  )
        24           O   tau(  24) = (   0.6666667   0.1924501   0.8018252  )

   Crystallographic axes

     site n.     atom                  positions (cryst. coord.)
         1           Zn  tau(   1) = (  0.2222222  0.3333333  0.2503168  )
         2           Zn  tau(   2) = (  0.1111111  0.6666667  0.0003168  )
         3           O   tau(   3) = (  0.2222222  0.3333333  0.4398382  )
         4           O   tau(   4) = (  0.1111111  0.6666667  0.1898382  )
         5           Zn  tau(   5) = (  0.2222222  0.3333333  0.7503168  )
         6           Zn  tau(   6) = (  0.1111111  0.6666667  0.5003168  )
         7           O   tau(   7) = (  0.2222222  0.3333333  0.9398382  )
         8           O   tau(   8) = (  0.1111111  0.6666667  0.6898382  )
         9           Zn  tau(   9) = (  0.5555556  0.3333333  0.2503168  )
        10           Zn  tau(  10) = (  0.4444444  0.6666667  0.0003168  )
        11           O   tau(  11) = (  0.5555556  0.3333333  0.4398382  )
        12           O   tau(  12) = (  0.4444444  0.6666667  0.1898382  )
        13           Zn  tau(  13) = (  0.5555556  0.3333333  0.7503168  )
        14           Zn  tau(  14) = (  0.4444444  0.6666667  0.5003168  )
        15           O   tau(  15) = (  0.5555556  0.3333333  0.9398382  )
        16           O   tau(  16) = (  0.4444444  0.6666667  0.6898382  )
        17           Zn  tau(  17) = (  0.8888889  0.3333333  0.2503168  )
        18           Zn  tau(  18) = (  0.7777778  0.6666667  0.0003168  )
        19           O   tau(  19) = (  0.8888889  0.3333333  0.4398382  )
        20           O   tau(  20) = (  0.7777778  0.6666667  0.1898382  )
        21           Zn  tau(  21) = (  0.8888889  0.3333333  0.7503168  )
        22           Zn  tau(  22) = (  0.7777778  0.6666667  0.5003168  )
        23           O   tau(  23) = (  0.8888889  0.3333333  0.9398382  )
        24           O   tau(  24) = (  0.7777778  0.6666667  0.6898382  )

     number of k points=    68
                       cart. coord. in units 2pi/alat
        k(    1) = (   0.0000000   0.0000000   0.0000000), wk =   0.0092593
        k(    2) = (   0.0000000   0.0000000   0.1433892), wk =   0.0185185
        k(    3) = (   0.0000000   0.0000000   0.2867783), wk =   0.0185185
        k(    4) = (   0.0000000   0.0000000  -0.4301675), wk =   0.0092593
        k(    5) = (   0.0000000   0.5773503   0.0000000), wk =   0.0370370
        k(    6) = (   0.0000000   0.5773503   0.1433892), wk =   0.0370370
        k(    7) = (   0.0000000   0.5773503   0.2867783), wk =   0.0370370
        k(    8) = (   0.0000000   0.5773503  -0.4301675), wk =   0.0370370
        k(    9) = (   0.0000000   1.1547005   0.0000000), wk =   0.0185185
        k(   10) = (   0.0000000   1.1547005   0.1433892), wk =   0.0370370
        k(   11) = (   0.0000000   1.1547005   0.2867783), wk =   0.0370370
        k(   12) = (   0.0000000   1.1547005  -0.4301675), wk =   0.0185185
        k(   13) = (   0.0000000  -1.7320508   0.0000000), wk =   0.0185185
        k(   14) = (   0.0000000  -1.7320508   0.1433892), wk =   0.0370370
        k(   15) = (   0.0000000  -1.7320508   0.2867783), wk =   0.0370370
        k(   16) = (   0.0000000  -1.7320508  -0.4301675), wk =   0.0185185
        k(   17) = (   0.1666667   0.0962250   0.0000000), wk =   0.0185185
        k(   18) = (   0.1666667   0.0962250   0.1433892), wk =   0.0185185
        k(   19) = (   0.1666667   0.0962250   0.2867783), wk =   0.0185185
        k(   20) = (   0.1666667   0.0962250  -0.4301675), wk =   0.0185185
        k(   21) = (   0.1666667   0.6735753   0.0000000), wk =   0.0370370
        k(   22) = (   0.1666667   0.6735753   0.1433892), wk =   0.0370370
        k(   23) = (   0.1666667   0.6735753   0.2867783), wk =   0.0370370
        k(   24) = (   0.1666667   0.6735753  -0.4301675), wk =   0.0370370
        k(   25) = (   0.1666667   1.2509256   0.0000000), wk =   0.0370370
        k(   26) = (   0.1666667   1.2509256   0.1433892), wk =   0.0370370
        k(   27) = (   0.1666667   1.2509256   0.2867783), wk =   0.0370370
        k(   28) = (   0.1666667   1.2509256  -0.4301675), wk =   0.0370370
        k(   29) = (   0.1666667  -1.6358258   0.0000000), wk =   0.0370370
        k(   30) = (   0.1666667  -1.6358258   0.1433892), wk =   0.0370370
        k(   31) = (   0.1666667  -1.6358258   0.2867783), wk =   0.0370370
        k(   32) = (   0.1666667  -1.6358258  -0.4301675), wk =   0.0370370
        k(   33) = (   0.1666667  -0.4811252   0.0000000), wk =   0.0370370
        k(   34) = (   0.1666667  -0.4811252   0.1433892), wk =   0.0370370
        k(   35) = (   0.1666667  -0.4811252   0.2867783), wk =   0.0370370
        k(   36) = (   0.1666667  -0.4811252  -0.4301675), wk =   0.0370370
        k(   37) = (   0.3333333   0.1924501   0.0000000), wk =   0.0185185
        k(   38) = (   0.3333333   0.1924501   0.1433892), wk =   0.0185185
        k(   39) = (   0.3333333   0.1924501   0.2867783), wk =   0.0185185
        k(   40) = (   0.3333333   0.1924501  -0.4301675), wk =   0.0185185
        k(   41) = (   0.3333333   1.3471506   0.0000000), wk =   0.0370370
        k(   42) = (   0.3333333   1.3471506   0.1433892), wk =   0.0370370
        k(   43) = (   0.3333333   1.3471506   0.2867783), wk =   0.0370370
        k(   44) = (   0.3333333   1.3471506  -0.4301675), wk =   0.0370370
        k(   45) = (  -0.5000000  -0.2886751   0.0000000), wk =   0.0092593
        k(   46) = (  -0.5000000  -0.2886751   0.1433892), wk =   0.0185185
        k(   47) = (  -0.5000000  -0.2886751   0.2867783), wk =   0.0185185
        k(   48) = (  -0.5000000  -0.2886751  -0.4301675), wk =   0.0092593
        k(   49) = (  -0.5000000   0.8660254   0.0000000), wk =   0.0185185
        k(   50) = (  -0.5000000   0.8660254   0.1433892), wk =   0.0370370
        k(   51) = (  -0.5000000   0.8660254   0.2867783), wk =   0.0370370
        k(   52) = (  -0.5000000   0.8660254  -0.4301675), wk =   0.0185185
        k(   53) = (   0.5000000  -0.2886751  -0.1433892), wk =   0.0370370
        k(   54) = (   0.5000000  -0.2886751  -0.2867783), wk =   0.0370370
        k(   55) = (   0.1666667   0.0962250  -0.1433892), wk =   0.0185185
        k(   56) = (   0.1666667   0.0962250  -0.2867783), wk =   0.0185185
        k(   57) = (   0.6666667  -0.1924501  -0.1433892), wk =   0.0370370
        k(   58) = (   0.6666667  -0.1924501  -0.2867783), wk =   0.0370370
        k(   59) = (   1.1666667  -0.4811252  -0.1433892), wk =   0.0370370
        k(   60) = (   1.1666667  -0.4811252  -0.2867783), wk =   0.0370370
        k(   61) = (  -1.3333333   0.9622504  -0.1433892), wk =   0.0370370
        k(   62) = (  -1.3333333   0.9622504  -0.2867783), wk =   0.0370370
        k(   63) = (  -0.3333333   0.3849002  -0.1433892), wk =   0.0370370
        k(   64) = (  -0.3333333   0.3849002  -0.2867783), wk =   0.0370370
        k(   65) = (   0.3333333   0.1924501  -0.1433892), wk =   0.0185185
        k(   66) = (   0.3333333   0.1924501  -0.2867783), wk =   0.0185185
        k(   67) = (   1.3333333  -0.3849002  -0.1433892), wk =   0.0370370
        k(   68) = (   1.3333333  -0.3849002  -0.2867783), wk =   0.0370370

                       cryst. coord.
        k(    1) = (   0.0000000   0.0000000   0.0000000), wk =   0.0092593
        k(    2) = (   0.0000000   0.0000000   0.1666667), wk =   0.0185185
        k(    3) = (   0.0000000   0.0000000   0.3333333), wk =   0.0185185
        k(    4) = (   0.0000000   0.0000000  -0.5000000), wk =   0.0092593
        k(    5) = (   0.0000000   0.1666667   0.0000000), wk =   0.0370370
        k(    6) = (   0.0000000   0.1666667   0.1666667), wk =   0.0370370
        k(    7) = (   0.0000000   0.1666667   0.3333333), wk =   0.0370370
        k(    8) = (   0.0000000   0.1666667  -0.5000000), wk =   0.0370370
        k(    9) = (   0.0000000   0.3333333   0.0000000), wk =   0.0185185
        k(   10) = (   0.0000000   0.3333333   0.1666667), wk =   0.0370370
        k(   11) = (   0.0000000   0.3333333   0.3333333), wk =   0.0370370
        k(   12) = (   0.0000000   0.3333333  -0.5000000), wk =   0.0185185
        k(   13) = (   0.0000000  -0.5000000   0.0000000), wk =   0.0185185
        k(   14) = (   0.0000000  -0.5000000   0.1666667), wk =   0.0370370
        k(   15) = (   0.0000000  -0.5000000   0.3333333), wk =   0.0370370
        k(   16) = (   0.0000000  -0.5000000  -0.5000000), wk =   0.0185185
        k(   17) = (   0.1666667   0.0000000   0.0000000), wk =   0.0185185
        k(   18) = (   0.1666667   0.0000000   0.1666667), wk =   0.0185185
        k(   19) = (   0.1666667   0.0000000   0.3333333), wk =   0.0185185
        k(   20) = (   0.1666667   0.0000000  -0.5000000), wk =   0.0185185
        k(   21) = (   0.1666667   0.1666667   0.0000000), wk =   0.0370370
        k(   22) = (   0.1666667   0.1666667   0.1666667), wk =   0.0370370
        k(   23) = (   0.1666667   0.1666667   0.3333333), wk =   0.0370370
        k(   24) = (   0.1666667   0.1666667  -0.5000000), wk =   0.0370370
        k(   25) = (   0.1666667   0.3333333   0.0000000), wk =   0.0370370
        k(   26) = (   0.1666667   0.3333333   0.1666667), wk =   0.0370370
        k(   27) = (   0.1666667   0.3333333   0.3333333), wk =   0.0370370
        k(   28) = (   0.1666667   0.3333333  -0.5000000), wk =   0.0370370
        k(   29) = (   0.1666667  -0.5000000   0.0000000), wk =   0.0370370
        k(   30) = (   0.1666667  -0.5000000   0.1666667), wk =   0.0370370
        k(   31) = (   0.1666667  -0.5000000   0.3333333), wk =   0.0370370
        k(   32) = (   0.1666667  -0.5000000  -0.5000000), wk =   0.0370370
        k(   33) = (   0.1666667  -0.1666667   0.0000000), wk =   0.0370370
        k(   34) = (   0.1666667  -0.1666667   0.1666667), wk =   0.0370370
        k(   35) = (   0.1666667  -0.1666667   0.3333333), wk =   0.0370370
        k(   36) = (   0.1666667  -0.1666667  -0.5000000), wk =   0.0370370
        k(   37) = (   0.3333333   0.0000000   0.0000000), wk =   0.0185185
        k(   38) = (   0.3333333   0.0000000   0.1666667), wk =   0.0185185
        k(   39) = (   0.3333333   0.0000000   0.3333333), wk =   0.0185185
        k(   40) = (   0.3333333   0.0000000  -0.5000000), wk =   0.0185185
        k(   41) = (   0.3333333   0.3333333   0.0000000), wk =   0.0370370
        k(   42) = (   0.3333333   0.3333333   0.1666667), wk =   0.0370370
        k(   43) = (   0.3333333   0.3333333   0.3333333), wk =   0.0370370
        k(   44) = (   0.3333333   0.3333333  -0.5000000), wk =   0.0370370
        k(   45) = (  -0.5000000   0.0000000   0.0000000), wk =   0.0092593
        k(   46) = (  -0.5000000   0.0000000   0.1666667), wk =   0.0185185
        k(   47) = (  -0.5000000   0.0000000   0.3333333), wk =   0.0185185
        k(   48) = (  -0.5000000   0.0000000  -0.5000000), wk =   0.0092593
        k(   49) = (  -0.5000000   0.3333333   0.0000000), wk =   0.0185185
        k(   50) = (  -0.5000000   0.3333333   0.1666667), wk =   0.0370370
        k(   51) = (  -0.5000000   0.3333333   0.3333333), wk =   0.0370370
        k(   52) = (  -0.5000000   0.3333333  -0.5000000), wk =   0.0185185
        k(   53) = (   0.5000000  -0.1666667  -0.1666667), wk =   0.0370370
        k(   54) = (   0.5000000  -0.1666667  -0.3333333), wk =   0.0370370
        k(   55) = (   0.1666667   0.0000000  -0.1666667), wk =   0.0185185
        k(   56) = (   0.1666667   0.0000000  -0.3333333), wk =   0.0185185
        k(   57) = (   0.6666667  -0.1666667  -0.1666667), wk =   0.0370370
        k(   58) = (   0.6666667  -0.1666667  -0.3333333), wk =   0.0370370
        k(   59) = (   1.1666667  -0.3333333  -0.1666667), wk =   0.0370370
        k(   60) = (   1.1666667  -0.3333333  -0.3333333), wk =   0.0370370
        k(   61) = (  -1.3333333   0.5000000  -0.1666667), wk =   0.0370370
        k(   62) = (  -1.3333333   0.5000000  -0.3333333), wk =   0.0370370
        k(   63) = (  -0.3333333   0.1666667  -0.1666667), wk =   0.0370370
        k(   64) = (  -0.3333333   0.1666667  -0.3333333), wk =   0.0370370
        k(   65) = (   0.3333333   0.0000000  -0.1666667), wk =   0.0185185
        k(   66) = (   0.3333333   0.0000000  -0.3333333), wk =   0.0185185
        k(   67) = (   1.3333333  -0.3333333  -0.1666667), wk =   0.0370370
        k(   68) = (   1.3333333  -0.3333333  -0.3333333), wk =   0.0370370

     Dense  grid:   239887 G-vectors     FFT dimensions: ( 120,  40, 135)

     Smooth grid:    84797 G-vectors     FFT dimensions: (  80,  27,  96)

     Dynamical RAM for                 wfc:       2.18 MB

     Dynamical RAM for     wfc (w. buffer):      21.82 MB

     Dynamical RAM for           str. fact:       0.92 MB

     Dynamical RAM for           local pot:       0.00 MB

     Dynamical RAM for          nlocal pot:       6.30 MB

     Dynamical RAM for                qrad:       3.21 MB

     Dynamical RAM for          rho,v,vnew:       3.24 MB

     Dynamical RAM for               rhoin:       1.08 MB

     Dynamical RAM for            rho*nmix:       7.32 MB

     Dynamical RAM for           G-vectors:       1.80 MB

     Dynamical RAM for          h,s,v(r/c):       2.14 MB

     Dynamical RAM for          <psi|beta>:       0.51 MB

     Dynamical RAM for                 psi:       4.36 MB

     Dynamical RAM for                hpsi:       4.36 MB

     Dynamical RAM for                spsi:       4.36 MB

     Dynamical RAM for      wfcinit/wfcrot:       6.86 MB

     Dynamical RAM for           addusdens:      11.72 MB

     Dynamical RAM for          addusforce:      12.86 MB

     Estimated static dynamical RAM per process >      42.85 MB

     Estimated max dynamical RAM per process >      65.91 MB

     Estimated total dynamical RAM >       3.72 GB

     Check: negative core charge=   -0.000002

     Initial potential from superposition of free atoms

     starting charge     215.9553, renormalised to     216.0000
     Starting wfcs are  156 randomized atomic wfcs

     total cpu time spent up to now is       14.4 secs

     Self-consistent Calculation

     iteration #  1     ecut=    50.00 Ry     beta= 0.30
     Davidson diagonalization with overlap

---- Real-time Memory Report at c_bands before calling an iterative solver
            88 MiB given to the printing process from OS
             0 MiB allocation reported by mallinfo(arena+hblkhd)
        115249 MiB available memory on the node where the printing process lives
------------------
     ethr =  1.00E-02,  avg # of iterations =  2.0

     total cpu time spent up to now is       31.7 secs

     total energy              =   -2168.73893939 Ry
     estimated scf accuracy    <       4.06648848 Ry

     iteration #  2     ecut=    50.00 Ry     beta= 0.30
     Davidson diagonalization with overlap

---- Real-time Memory Report at c_bands before calling an iterative solver
           100 MiB given to the printing process from OS
             0 MiB allocation reported by mallinfo(arena+hblkhd)
        114455 MiB available memory on the node where the printing process lives
------------------
     ethr =  1.88E-03,  avg # of iterations =  2.0

     total cpu time spent up to now is       52.6 secs

     total energy              =   -2169.17529081 Ry
     estimated scf accuracy    <       0.65371564 Ry

     iteration #  3     ecut=    50.00 Ry     beta= 0.30
     Davidson diagonalization with overlap

---- Real-time Memory Report at c_bands before calling an iterative solver
           100 MiB given to the printing process from OS
             0 MiB allocation reported by mallinfo(arena+hblkhd)
        114562 MiB available memory on the node where the printing process lives
------------------
     ethr =  3.03E-04,  avg # of iterations =  7.4

     total cpu time spent up to now is       90.3 secs

     total energy              =   -2169.44755657 Ry
     estimated scf accuracy    <       0.42593730 Ry

     iteration #  4     ecut=    50.00 Ry     beta= 0.30
     Davidson diagonalization with overlap

---- Real-time Memory Report at c_bands before calling an iterative solver
           101 MiB given to the printing process from OS
             0 MiB allocation reported by mallinfo(arena+hblkhd)
        114576 MiB available memory on the node where the printing process lives
------------------
     ethr =  1.97E-04,  avg # of iterations =  6.9

     total cpu time spent up to now is      124.5 secs

     total energy              =   -2169.73032355 Ry
     estimated scf accuracy    <       0.29093559 Ry

     iteration #  5     ecut=    50.00 Ry     beta= 0.30
     Davidson diagonalization with overlap

---- Real-time Memory Report at c_bands before calling an iterative solver
           101 MiB given to the printing process from OS
             0 MiB allocation reported by mallinfo(arena+hblkhd)
        114583 MiB available memory on the node where the printing process lives
------------------
     ethr =  1.35E-04,  avg # of iterations =  2.5

     total cpu time spent up to now is      142.7 secs

     total energy              =   -2169.56564657 Ry
     estimated scf accuracy    <       0.37230420 Ry

     iteration #  6     ecut=    50.00 Ry     beta= 0.30
     Davidson diagonalization with overlap

---- Real-time Memory Report at c_bands before calling an iterative solver
           101 MiB given to the printing process from OS
             0 MiB allocation reported by mallinfo(arena+hblkhd)
        114583 MiB available memory on the node where the printing process lives
------------------
     ethr =  1.35E-04,  avg # of iterations =  2.0

     total cpu time spent up to now is      160.3 secs

     total energy              =   -2169.54459180 Ry
     estimated scf accuracy    <       0.08435869 Ry

     iteration #  7     ecut=    50.00 Ry     beta= 0.30
     Davidson diagonalization with overlap

---- Real-time Memory Report at c_bands before calling an iterative solver
           102 MiB given to the printing process from OS
             0 MiB allocation reported by mallinfo(arena+hblkhd)
        114583 MiB available memory on the node where the printing process lives
------------------
     ethr =  3.91E-05,  avg # of iterations =  6.1

     total cpu time spent up to now is      193.0 secs

     total energy              =   -2169.62371028 Ry
     estimated scf accuracy    <       0.05264875 Ry

     iteration #  8     ecut=    50.00 Ry     beta= 0.30
     Davidson diagonalization with overlap

---- Real-time Memory Report at c_bands before calling an iterative solver
           102 MiB given to the printing process from OS
             0 MiB allocation reported by mallinfo(arena+hblkhd)
        114584 MiB available memory on the node where the printing process lives
------------------
     ethr =  2.44E-05,  avg # of iterations =  1.2

     total cpu time spent up to now is      209.6 secs

     total energy              =   -2169.61508363 Ry
     estimated scf accuracy    <       0.03862571 Ry

     iteration #  9     ecut=    50.00 Ry     beta= 0.30
     Davidson diagonalization with overlap

---- Real-time Memory Report at c_bands before calling an iterative solver
           102 MiB given to the printing process from OS
             0 MiB allocation reported by mallinfo(arena+hblkhd)
        114584 MiB available memory on the node where the printing process lives
------------------
     ethr =  1.79E-05,  avg # of iterations =  1.2

     total cpu time spent up to now is      226.2 secs

     total energy              =   -2169.61203568 Ry
     estimated scf accuracy    <       0.01693402 Ry

     iteration # 10     ecut=    50.00 Ry     beta= 0.30
     Davidson diagonalization with overlap

---- Real-time Memory Report at c_bands before calling an iterative solver
           103 MiB given to the printing process from OS
             0 MiB allocation reported by mallinfo(arena+hblkhd)
        114584 MiB available memory on the node where the printing process lives
------------------
     ethr =  7.84E-06,  avg # of iterations =  3.4

     total cpu time spent up to now is      247.9 secs

     total energy              =   -2169.61459755 Ry
     estimated scf accuracy    <       0.00327520 Ry

     iteration # 11     ecut=    50.00 Ry     beta= 0.30
     Davidson diagonalization with overlap

---- Real-time Memory Report at c_bands before calling an iterative solver
           103 MiB given to the printing process from OS
             0 MiB allocation reported by mallinfo(arena+hblkhd)
        114584 MiB available memory on the node where the printing process lives
------------------
     ethr =  1.52E-06,  avg # of iterations =  5.4

     total cpu time spent up to now is      275.9 secs

     total energy              =   -2169.61561805 Ry
     estimated scf accuracy    <       0.00049534 Ry

     iteration # 12     ecut=    50.00 Ry     beta= 0.30
     Davidson diagonalization with overlap

---- Real-time Memory Report at c_bands before calling an iterative solver
           103 MiB given to the printing process from OS
             0 MiB allocation reported by mallinfo(arena+hblkhd)
        114584 MiB available memory on the node where the printing process lives
------------------
     ethr =  2.29E-07,  avg # of iterations =  5.9

     total cpu time spent up to now is      306.8 secs

     total energy              =   -2169.61581263 Ry
     estimated scf accuracy    <       0.00003136 Ry

     iteration # 13     ecut=    50.00 Ry     beta= 0.30
     Davidson diagonalization with overlap

---- Real-time Memory Report at c_bands before calling an iterative solver
           103 MiB given to the printing process from OS
             0 MiB allocation reported by mallinfo(arena+hblkhd)
        114586 MiB available memory on the node where the printing process lives
------------------
     ethr =  1.45E-08,  avg # of iterations =  5.6

     total cpu time spent up to now is      339.5 secs

     total energy              =   -2169.61582869 Ry
     estimated scf accuracy    <       0.00004592 Ry

     iteration # 14     ecut=    50.00 Ry     beta= 0.30
     Davidson diagonalization with overlap

---- Real-time Memory Report at c_bands before calling an iterative solver
           103 MiB given to the printing process from OS
             0 MiB allocation reported by mallinfo(arena+hblkhd)
        114587 MiB available memory on the node where the printing process lives
------------------
     ethr =  1.45E-08,  avg # of iterations =  1.2

     total cpu time spent up to now is      356.1 secs

     total energy              =   -2169.61582593 Ry
     estimated scf accuracy    <       0.00004772 Ry

     iteration # 15     ecut=    50.00 Ry     beta= 0.30
     Davidson diagonalization with overlap

---- Real-time Memory Report at c_bands before calling an iterative solver
           103 MiB given to the printing process from OS
             0 MiB allocation reported by mallinfo(arena+hblkhd)
        114587 MiB available memory on the node where the printing process lives
------------------
     ethr =  1.45E-08,  avg # of iterations =  1.2

     total cpu time spent up to now is      372.6 secs

     total energy              =   -2169.61581793 Ry
     estimated scf accuracy    <       0.00004009 Ry

     iteration # 16     ecut=    50.00 Ry     beta= 0.30
     Davidson diagonalization with overlap

---- Real-time Memory Report at c_bands before calling an iterative solver
           103 MiB given to the printing process from OS
             0 MiB allocation reported by mallinfo(arena+hblkhd)
        114587 MiB available memory on the node where the printing process lives
------------------
     ethr =  1.45E-08,  avg # of iterations =  1.6

     total cpu time spent up to now is      389.7 secs

     total energy              =   -2169.61581457 Ry
     estimated scf accuracy    <       0.00002084 Ry

     iteration # 17     ecut=    50.00 Ry     beta= 0.30
     Davidson diagonalization with overlap

---- Real-time Memory Report at c_bands before calling an iterative solver
           103 MiB given to the printing process from OS
             0 MiB allocation reported by mallinfo(arena+hblkhd)
        114587 MiB available memory on the node where the printing process lives
------------------
     ethr =  9.65E-09,  avg # of iterations =  2.2

     total cpu time spent up to now is      409.4 secs

     total energy              =   -2169.61581574 Ry
     estimated scf accuracy    <       0.00000667 Ry

     iteration # 18     ecut=    50.00 Ry     beta= 0.30
     Davidson diagonalization with overlap

---- Real-time Memory Report at c_bands before calling an iterative solver
           103 MiB given to the printing process from OS
             0 MiB allocation reported by mallinfo(arena+hblkhd)
        114587 MiB available memory on the node where the printing process lives
------------------
     ethr =  3.09E-09,  avg # of iterations =  5.0

     total cpu time spent up to now is      432.2 secs

     total energy              =   -2169.61581621 Ry
     estimated scf accuracy    <       0.00000300 Ry

     iteration # 19     ecut=    50.00 Ry     beta= 0.30
     Davidson diagonalization with overlap

---- Real-time Memory Report at c_bands before calling an iterative solver
           103 MiB given to the printing process from OS
             0 MiB allocation reported by mallinfo(arena+hblkhd)
        114587 MiB available memory on the node where the printing process lives
------------------
     ethr =  1.39E-09,  avg # of iterations =  5.4

     total cpu time spent up to now is      456.8 secs

     total energy              =   -2169.61581660 Ry
     estimated scf accuracy    <       0.00000070 Ry

     iteration # 20     ecut=    50.00 Ry     beta= 0.30
     Davidson diagonalization with overlap

---- Real-time Memory Report at c_bands before calling an iterative solver
           103 MiB given to the printing process from OS
             0 MiB allocation reported by mallinfo(arena+hblkhd)
        114587 MiB available memory on the node where the printing process lives
------------------
     ethr =  3.26E-10,  avg # of iterations =  5.8

     total cpu time spent up to now is      490.0 secs

     total energy              =   -2169.61581694 Ry
     estimated scf accuracy    <       0.00000010 Ry

     iteration # 21     ecut=    50.00 Ry     beta= 0.30
     Davidson diagonalization with overlap

---- Real-time Memory Report at c_bands before calling an iterative solver
           103 MiB given to the printing process from OS
             0 MiB allocation reported by mallinfo(arena+hblkhd)
        114587 MiB available memory on the node where the printing process lives
------------------
     ethr =  4.64E-11,  avg # of iterations =  6.5

     total cpu time spent up to now is      520.4 secs

     total energy              =   -2169.61581693 Ry
     estimated scf accuracy    <       0.00000016 Ry

     iteration # 22     ecut=    50.00 Ry     beta= 0.30
     Davidson diagonalization with overlap

---- Real-time Memory Report at c_bands before calling an iterative solver
           103 MiB given to the printing process from OS
             0 MiB allocation reported by mallinfo(arena+hblkhd)
        114587 MiB available memory on the node where the printing process lives
------------------
     ethr =  4.64E-11,  avg # of iterations =  2.1

     total cpu time spent up to now is      539.3 secs

     total energy              =   -2169.61581694 Ry
     estimated scf accuracy    <       0.00000007 Ry

     iteration # 23     ecut=    50.00 Ry     beta= 0.30
     Davidson diagonalization with overlap

---- Real-time Memory Report at c_bands before calling an iterative solver
           103 MiB given to the printing process from OS
             0 MiB allocation reported by mallinfo(arena+hblkhd)
        114587 MiB available memory on the node where the printing process lives
------------------
     ethr =  3.18E-11,  avg # of iterations =  2.6

     total cpu time spent up to now is      559.1 secs

     total energy              =   -2169.61581694 Ry
     estimated scf accuracy    <       0.00000005 Ry

     iteration # 24     ecut=    50.00 Ry     beta= 0.30
     Davidson diagonalization with overlap

---- Real-time Memory Report at c_bands before calling an iterative solver
           103 MiB given to the printing process from OS
             0 MiB allocation reported by mallinfo(arena+hblkhd)
        114587 MiB available memory on the node where the printing process lives
------------------
     ethr =  2.38E-11,  avg # of iterations =  2.0

     total cpu time spent up to now is      576.6 secs

     total energy              =   -2169.61581694 Ry
     estimated scf accuracy    <       0.00000005 Ry

     iteration # 25     ecut=    50.00 Ry     beta= 0.30
     Davidson diagonalization with overlap

---- Real-time Memory Report at c_bands before calling an iterative solver
           103 MiB given to the printing process from OS
             0 MiB allocation reported by mallinfo(arena+hblkhd)
        114587 MiB available memory on the node where the printing process lives
------------------
     ethr =  2.13E-11,  avg # of iterations =  1.1

     total cpu time spent up to now is      592.9 secs

     total energy              =   -2169.61581693 Ry
     estimated scf accuracy    <       0.00000003 Ry

     iteration # 26     ecut=    50.00 Ry     beta= 0.30
     Davidson diagonalization with overlap

---- Real-time Memory Report at c_bands before calling an iterative solver
           103 MiB given to the printing process from OS
             0 MiB allocation reported by mallinfo(arena+hblkhd)
        114587 MiB available memory on the node where the printing process lives
------------------
     ethr =  1.58E-11,  avg # of iterations =  4.7

     total cpu time spent up to now is      616.7 secs

     End of self-consistent calculation

          k = 0.0000 0.0000 0.0000 ( 10679 PWs)   bands (ev):

   -10.2457  -9.9021  -9.9021  -9.6411  -9.6411  -9.5323  -9.4368  -9.4367
    -9.4367  -9.4367  -9.2342  -9.2342   1.8834   1.8834   1.8834   1.8834
     1.9073   1.9074   2.0771   2.1346   2.1346   2.3104   2.3104   2.3709
     2.3712   2.4450   2.4450   2.4453   2.4453   2.4481   2.5462   2.5464
     2.6547   2.6547   2.8223   2.8223   2.8223   2.8224   2.8886   2.8886
     2.8886   2.8886   2.9081   2.9081   3.0265   3.0266   3.0907   3.0908
     3.7300   3.7300   3.9085   3.9086   3.9916   3.9916   4.0178   4.0178
     4.0179   4.0179   4.0252   4.0252   4.0253   4.0253   4.0596   4.0596
     4.0597   4.0597   4.1027   4.1027   4.1401   4.1401   4.3057   4.3057
     4.4890   4.5269   4.5269   5.2198   5.2198   5.4264   5.4264   5.4264
     5.4264   6.0642   6.0642   6.2527   6.2527   6.8074   6.8074   6.8150
     6.8150   6.8150   6.8150   7.3769   7.3770   7.3770   7.3770   7.5902
     7.5902   7.9170   7.9170   7.9827   7.9831   8.3163   8.3329   8.3329
     8.3333   8.3333   8.6823   8.6827

     occupation numbers 
     1.0000   1.0000   1.0000   1.0000   1.0000   1.0000   1.0000   1.0000
     1.0000   1.0000   1.0000   1.0000   1.0000   1.0000   1.0000   1.0000
     1.0000   1.0000   1.0000   1.0000   1.0000   1.0000   1.0000   1.0000
     1.0000   1.0000   1.0000   1.0000   1.0000   1.0000   1.0000   1.0000
     1.0000   1.0000   1.0000   1.0000   1.0000   1.0000   1.0000   1.0000
     1.0000   1.0000   1.0000   1.0000   1.0000   1.0000   1.0000   1.0000
     1.0000   1.0000   1.0000   1.0000   1.0000   1.0000   1.0000   1.0000
     1.0000   1.0000   1.0000   1.0000   1.0000   1.0000   1.0000   1.0000
     1.0000   1.0000   1.0000   1.0000   1.0000   1.0000   1.0000   1.0000
     1.0000   1.0000   1.0000   1.0000   1.0000   1.0000   1.0000   1.0000
     1.0000   1.0000   1.0000   1.0000   1.0000   1.0000   1.0000   1.0000
     1.0000   1.0000   1.0000   1.0000   1.0000   1.0000   1.0000   1.0000
     1.0000   1.0000   1.0000   1.0000   1.0000   1.0000   1.0000   1.0000
     1.0000   1.0000   1.0000   1.0000

          k = 0.0000 0.0000 0.1434 ( 10627 PWs)   bands (ev):

   -10.2344  -9.9934  -9.8091  -9.6341  -9.6341  -9.5454  -9.4895  -9.4895
    -9.3841  -9.3840  -9.2410  -9.2410   1.8584   1.8584   1.9017   1.9017
     1.9356   1.9356   2.0716   2.0872   2.1975   2.2828   2.2828   2.3735
     2.3738   2.4236   2.4238   2.4348   2.4685   2.4687   2.5425   2.5427
     2.6599   2.6599   2.7759   2.7759   2.8712   2.8712   2.8743   2.8743
     2.9025   2.9026   2.9121   2.9121   3.0188   3.0189   3.0711   3.0711
     3.7435   3.7435   3.9130   3.9130   3.9591   3.9591   3.9917   3.9918
     3.9937   3.9937   4.0413   4.0413   4.0425   4.0425   4.0787   4.0787
     4.0894   4.0894   4.1011   4.1011   4.1368   4.1368   4.2869   4.2869
     4.5477   4.6076   4.6076   5.2425   5.2425   5.3192   5.3192   5.4977
     5.4977   5.6633   6.2386   6.2386   6.4828   6.5232   6.5232   6.8276
     6.8277   7.0955   7.0955   7.2335   7.2336   7.5185   7.5185   7.5834
     7.5834   7.8988   7.8989   7.9947   7.9951   8.1311   8.2423   8.2427
     8.4235   8.4239   8.6705   8.6710

     occupation numbers 
     1.0000   1.0000   1.0000   1.0000   1.0000   1.0000   1.0000   1.0000
     1.0000   1.0000   1.0000   1.0000   1.0000   1.0000   1.0000   1.0000
     1.0000   1.0000   1.0000   1.0000   1.0000   1.0000   1.0000   1.0000
     1.0000   1.0000   1.0000   1.0000   1.0000   1.0000   1.0000   1.0000
     1.0000   1.0000   1.0000   1.0000   1.0000   1.0000   1.0000   1.0000
     1.0000   1.0000   1.0000   1.0000   1.0000   1.0000   1.0000   1.0000
     1.0000   1.0000   1.0000   1.0000   1.0000   1.0000   1.0000   1.0000
     1.0000   1.0000   1.0000   1.0000   1.0000   1.0000   1.0000   1.0000
     1.0000   1.0000   1.0000   1.0000   1.0000   1.0000   1.0000   1.0000
     1.0000   1.0000   1.0000   1.0000   1.0000   1.0000   1.0000   1.0000
     1.0000   1.0000   1.0000   1.0000   1.0000   1.0000   1.0000   1.0000
     1.0000   1.0000   1.0000   1.0000   1.0000   1.0000   1.0000   1.0000
     1.0000   1.0000   1.0000   1.0000   1.0000   1.0000   1.0000   1.0000
     1.0000   1.0000   1.0000   1.0000

          k = 0.0000 0.0000 0.2868 ( 10630 PWs)   bands (ev):

   -10.2011 -10.0769  -9.7208  -9.6137  -9.6137  -9.5835  -9.5388  -9.5388
    -9.3351  -9.3351  -9.2611  -9.2611   1.8562   1.8562   1.8869   1.8869
     2.0141   2.0141   2.0596   2.0598   2.2087   2.2087   2.2687   2.3799
     2.3801   2.3960   2.4050   2.4053   2.4919   2.4922   2.5310   2.5313
     2.6753   2.6754   2.7347   2.7347   2.8703   2.8704   2.8893   2.8893
     2.9191   2.9191   2.9438   2.9438   2.9966   2.9966   3.0279   3.0279
     3.7800   3.7800   3.8935   3.8935   3.9248   3.9248   3.9662   3.9662
     4.0002   4.0002   4.0248   4.0248   4.0639   4.0639   4.0937   4.0937
     4.0973   4.0973   4.1279   4.1279   4.1493   4.1493   4.2496   4.2496
     4.7135   4.7961   4.7961   5.1836   5.1836   5.2927   5.3104   5.3104
     5.5000   5.5000   6.2084   6.2084   6.2959   6.2959   6.8866   6.8866
     6.9101   7.0978   7.0978   7.3206   7.3206   7.5520   7.5521   7.6491
     7.6491   7.7573   7.8455   7.8455   8.0297   8.0301   8.1578   8.1582
     8.5078   8.5082   8.6357   8.6361

     occupation numbers 
     1.0000   1.0000   1.0000   1.0000   1.0000   1.0000   1.0000   1.0000
     1.0000   1.0000   1.0000   1.0000   1.0000   1.0000   1.0000   1.0000
     1.0000   1.0000   1.0000   1.0000   1.0000   1.0000   1.0000   1.0000
     1.0000   1.0000   1.0000   1.0000   1.0000   1.0000   1.0000   1.0000
     1.0000   1.0000   1.0000   1.0000   1.0000   1.0000   1.0000   1.0000
     1.0000   1.0000   1.0000   1.0000   1.0000   1.0000   1.0000   1.0000
     1.0000   1.0000   1.0000   1.0000   1.0000   1.0000   1.0000   1.0000
     1.0000   1.0000   1.0000   1.0000   1.0000   1.0000   1.0000   1.0000
     1.0000   1.0000   1.0000   1.0000   1.0000   1.0000   1.0000   1.0000
     1.0000   1.0000   1.0000   1.0000   1.0000   1.0000   1.0000   1.0000
     1.0000   1.0000   1.0000   1.0000   1.0000   1.0000   1.0000   1.0000
     1.0000   1.0000   1.0000   1.0000   1.0000   1.0000   1.0000   1.0000
     1.0000   1.0000   1.0000   1.0000   1.0000   1.0000   1.0000   1.0000
     1.0000   1.0000   1.0000   1.0000

          k = 0.0000 0.0000-0.4302 ( 10654 PWs)   bands (ev):

   -10.1476 -10.1475  -9.6436  -9.6436  -9.5812  -9.5812  -9.5812  -9.5812
    -9.2932  -9.2932  -9.2932  -9.2932   1.8689   1.8689   1.8689   1.8689
     2.0523   2.0523   2.1109   2.1109   2.1109   2.1109   2.3379   2.3380
     2.3903   2.3904   2.3906   2.3906   2.5135   2.5135   2.5137   2.5137
     2.7006   2.7006   2.7006   2.7006   2.8762   2.8762   2.8762   2.8762
     2.9622   2.9622   2.9622   2.9622   2.9828   2.9828   2.9828   2.9828
     3.8322   3.8322   3.8322   3.8322   3.9428   3.9428   3.9429   3.9429
     4.0108   4.0108   4.0108   4.0108   4.0813   4.0813   4.0813   4.0813
     4.1142   4.1142   4.1142   4.1142   4.2032   4.2032   4.2032   4.2032
     4.9694   4.9694   5.0078   5.0078   5.0078   5.0078   5.4147   5.4147
     5.4147   5.4147   6.2029   6.2029   6.2029   6.2029   6.9791   6.9792
     6.9792   6.9792   7.3384   7.3385   7.4714   7.4714   7.4714   7.4715
     7.7604   7.7604   7.7604   7.7605   8.0853   8.0853   8.0857   8.0857
     8.5802   8.5802   8.5806   8.5806

     occupation numbers 
     1.0000   1.0000   1.0000   1.0000   1.0000   1.0000   1.0000   1.0000
     1.0000   1.0000   1.0000   1.0000   1.0000   1.0000   1.0000   1.0000
     1.0000   1.0000   1.0000   1.0000   1.0000   1.0000   1.0000   1.0000
     1.0000   1.0000   1.0000   1.0000   1.0000   1.0000   1.0000   1.0000
     1.0000   1.0000   1.0000   1.0000   1.0000   1.0000   1.0000   1.0000
     1.0000   1.0000   1.0000   1.0000   1.0000   1.0000   1.0000   1.0000
     1.0000   1.0000   1.0000   1.0000   1.0000   1.0000   1.0000   1.0000
     1.0000   1.0000   1.0000   1.0000   1.0000   1.0000   1.0000   1.0000
     1.0000   1.0000   1.0000   1.0000   1.0000   1.0000   1.0000   1.0000
     1.0000   1.0000   1.0000   1.0000   1.0000   1.0000   1.0000   1.0000
     1.0000   1.0000   1.0000   1.0000   1.0000   1.0000   1.0000   1.0000
     1.0000   1.0000   1.0000   1.0000   1.0000   1.0000   1.0000   1.0000
     1.0000   1.0000   1.0000   1.0000   1.0000   1.0000   1.0000   1.0000
     1.0000   1.0000   1.0000   1.0000

          k = 0.0000 0.5774 0.0000 ( 10631 PWs)   bands (ev):

   -10.0586  -9.7545  -9.7518  -9.7518  -9.5183  -9.5183  -9.4280  -9.3944
    -9.2790  -9.2751  -9.2751  -9.1664   1.9762   1.9762   2.0368   2.0369
     2.0476   2.0476   2.0647   2.1363   2.1420   2.3190   2.3590   2.4042
     2.4702   2.4770   2.5638   2.5638   2.5697   2.5697   2.5957   2.6286
     2.6286   2.6317   2.6627   2.6906   2.6984   2.7848   2.7849   2.8574
     2.8574   2.9312   2.9702   3.0027   3.0991   3.0991   3.2242   3.2511
     3.7422   3.8015   3.8219   3.9033   3.9246   3.9446   4.0041   4.0042
     4.0137   4.0138   4.0157   4.0157   4.0332   4.0332   4.0458   4.0458
     4.1117   4.1274   4.2027   4.2077   4.2475   4.2475   4.3567   4.4081
     4.4374   4.4646   4.5170   4.8863   4.8863   5.0974   5.5279   5.8391
     5.8391   5.9034   5.9464   6.0986   6.0986   6.3214   6.3547   6.3547
     6.8408   6.8408   6.8696   6.9357   6.9660   6.9660   7.0433   7.3202
     7.3484   7.3485   7.4942   7.4942   7.5303   7.6029   7.8262   7.8726
     8.0254   8.0254   8.1614   8.4416

     occupation numbers 
     1.0000   1.0000   1.0000   1.0000   1.0000   1.0000   1.0000   1.0000
     1.0000   1.0000   1.0000   1.0000   1.0000   1.0000   1.0000   1.0000
     1.0000   1.0000   1.0000   1.0000   1.0000   1.0000   1.0000   1.0000
     1.0000   1.0000   1.0000   1.0000   1.0000   1.0000   1.0000   1.0000
     1.0000   1.0000   1.0000   1.0000   1.0000   1.0000   1.0000   1.0000
     1.0000   1.0000   1.0000   1.0000   1.0000   1.0000   1.0000   1.0000
     1.0000   1.0000   1.0000   1.0000   1.0000   1.0000   1.0000   1.0000
     1.0000   1.0000   1.0000   1.0000   1.0000   1.0000   1.0000   1.0000
     1.0000   1.0000   1.0000   1.0000   1.0000   1.0000   1.0000   1.0000
     1.0000   1.0000   1.0000   1.0000   1.0000   1.0000   1.0000   1.0000
     1.0000   1.0000   1.0000   1.0000   1.0000   1.0000   1.0000   1.0000
     1.0000   1.0000   1.0000   1.0000   1.0000   1.0000   1.0000   1.0000
     1.0000   1.0000   1.0000   1.0000   1.0000   1.0000   1.0000   1.0000
     1.0000   1.0000   1.0000   1.0000

          k = 0.0000 0.5774 0.1434 ( 10621 PWs)   bands (ev):

   -10.0484  -9.8328  -9.7465  -9.6697  -9.5798  -9.4566  -9.4393  -9.3902
    -9.3050  -9.2872  -9.2459  -9.1699   1.9697   2.0098   2.0300   2.0396
     2.0574   2.0659   2.0830   2.1286   2.1344   2.2978   2.3406   2.3463
     2.4797   2.5055   2.5433   2.5543   2.5752   2.5947   2.5981   2.6212
     2.6248   2.6340   2.6598   2.6859   2.6963   2.7440   2.8316   2.8508
     2.8751   2.9194   2.9648   2.9928   3.0986   3.1114   3.2134   3.2306
     3.7535   3.8068   3.8291   3.9073   3.9331   3.9553   3.9615   3.9722
     3.9864   3.9912   4.0153   4.0406   4.0455   4.0571   4.0631   4.0871
     4.1086   4.1242   4.1862   4.2020   4.2205   4.2890   4.3064   4.4286
     4.5013   4.5204   4.5802   4.7894   4.9761   5.1147   5.5506   5.6367
     5.7287   5.9346   5.9684   6.0008   6.1806   6.3149   6.4470   6.4503
     6.5732   6.8381   6.8706   6.9461   7.0243   7.0418   7.1113   7.3093
     7.3172   7.3621   7.4679   7.4847   7.6174   7.6427   7.8100   7.8533
     7.9168   8.1336   8.1341   8.4275

     occupation numbers 
     1.0000   1.0000   1.0000   1.0000   1.0000   1.0000   1.0000   1.0000
     1.0000   1.0000   1.0000   1.0000   1.0000   1.0000   1.0000   1.0000
     1.0000   1.0000   1.0000   1.0000   1.0000   1.0000   1.0000   1.0000
     1.0000   1.0000   1.0000   1.0000   1.0000   1.0000   1.0000   1.0000
     1.0000   1.0000   1.0000   1.0000   1.0000   1.0000   1.0000   1.0000
     1.0000   1.0000   1.0000   1.0000   1.0000   1.0000   1.0000   1.0000
     1.0000   1.0000   1.0000   1.0000   1.0000   1.0000   1.0000   1.0000
     1.0000   1.0000   1.0000   1.0000   1.0000   1.0000   1.0000   1.0000
     1.0000   1.0000   1.0000   1.0000   1.0000   1.0000   1.0000   1.0000
     1.0000   1.0000   1.0000   1.0000   1.0000   1.0000   1.0000   1.0000
     1.0000   1.0000   1.0000   1.0000   1.0000   1.0000   1.0000   1.0000
     1.0000   1.0000   1.0000   1.0000   1.0000   1.0000   1.0000   1.0000
     1.0000   1.0000   1.0000   1.0000   1.0000   1.0000   1.0000   1.0000
     1.0000   1.0000   1.0000   1.0000

          k = 0.0000 0.5774 0.2868 ( 10615 PWs)   bands (ev):

   -10.0184  -9.9072  -9.7231  -9.6368  -9.5921  -9.4724  -9.3989  -9.3779
    -9.3335  -9.3112  -9.2193  -9.1803   1.9840   2.0372   2.0451   2.0547
     2.0712   2.1065   2.1130   2.1138   2.1431   2.2370   2.2590   2.2895
     2.4879   2.5203   2.5344   2.5483   2.5856   2.5935   2.6132   2.6134
     2.6263   2.6390   2.6529   2.6725   2.6936   2.7140   2.8561   2.8793
     2.8947   2.8999   2.9493   2.9649   3.1113   3.1341   3.1773   3.1968
     3.7853   3.8334   3.8498   3.8919   3.9188   3.9194   3.9372   3.9519
     3.9602   3.9944   4.0193   4.0631   4.0647   4.0831   4.0838   4.0994
     4.1151   4.1453   4.1520   4.2006   4.2065   4.2508   4.3412   4.4473
     4.5024   4.6883   4.7274   4.8107   5.0541   5.1330   5.3600   5.3846
     5.6366   5.9863   6.0277   6.0358   6.1303   6.2879   6.3334   6.3546
     6.7481   6.8628   6.8839   6.9683   6.9963   7.0211   7.2090   7.2623
     7.2856   7.3645   7.4755   7.5946   7.6600   7.7536   7.7953   7.7968
     7.8152   8.0562   8.2341   8.3861

     occupation numbers 
     1.0000   1.0000   1.0000   1.0000   1.0000   1.0000   1.0000   1.0000
     1.0000   1.0000   1.0000   1.0000   1.0000   1.0000   1.0000   1.0000
     1.0000   1.0000   1.0000   1.0000   1.0000   1.0000   1.0000   1.0000
     1.0000   1.0000   1.0000   1.0000   1.0000   1.0000   1.0000   1.0000
     1.0000   1.0000   1.0000   1.0000   1.0000   1.0000   1.0000   1.0000
     1.0000   1.0000   1.0000   1.0000   1.0000   1.0000   1.0000   1.0000
     1.0000   1.0000   1.0000   1.0000   1.0000   1.0000   1.0000   1.0000
     1.0000   1.0000   1.0000   1.0000   1.0000   1.0000   1.0000   1.0000
     1.0000   1.0000   1.0000   1.0000   1.0000   1.0000   1.0000   1.0000
     1.0000   1.0000   1.0000   1.0000   1.0000   1.0000   1.0000   1.0000
     1.0000   1.0000   1.0000   1.0000   1.0000   1.0000   1.0000   1.0000
     1.0000   1.0000   1.0000   1.0000   1.0000   1.0000   1.0000   1.0000
     1.0000   1.0000   1.0000   1.0000   1.0000   1.0000   1.0000   1.0000
     1.0000   1.0000   1.0000   1.0000

          k = 0.0000 0.5774-0.4302 ( 10620 PWs)   bands (ev):

    -9.9704  -9.9704  -9.6857  -9.6857  -9.5247  -9.5247  -9.3585  -9.3585
    -9.3493  -9.3493  -9.1970  -9.1970   2.0098   2.0099   2.0750   2.0750
     2.0830   2.0830   2.1530   2.1530   2.1786   2.1786   2.2177   2.2177
     2.5016   2.5016   2.5443   2.5443   2.5918   2.5918   2.6090   2.6090
     2.6452   2.6452   2.6519   2.6519   2.6974   2.6975   2.8716   2.8716
     2.9249   2.9249   2.9264   2.9264   3.1378   3.1378   3.1642   3.1642
     3.8334   3.8334   3.8807   3.8807   3.8811   3.8812   3.9370   3.9370
     3.9729   3.9729   4.0511   4.0511   4.0846   4.0846   4.1009   4.1009
     4.1188   4.1188   4.1993   4.1993   4.2011   4.2011   4.3972   4.3973
     4.5881   4.5881   5.0172   5.0172   5.0955   5.0955   5.1114   5.1114
     5.7939   5.7939   6.1544   6.1544   6.1769   6.1769   6.2275   6.2275
     6.9266   6.9267   6.9419   6.9419   6.9563   6.9563   7.2462   7.2462
     7.2585   7.2585   7.6428   7.6428   7.7080   7.7080   7.7275   7.7275
     7.9384   7.9384   8.3201   8.3202

     occupation numbers 
     1.0000   1.0000   1.0000   1.0000   1.0000   1.0000   1.0000   1.0000
     1.0000   1.0000   1.0000   1.0000   1.0000   1.0000   1.0000   1.0000
     1.0000   1.0000   1.0000   1.0000   1.0000   1.0000   1.0000   1.0000
     1.0000   1.0000   1.0000   1.0000   1.0000   1.0000   1.0000   1.0000
     1.0000   1.0000   1.0000   1.0000   1.0000   1.0000   1.0000   1.0000
     1.0000   1.0000   1.0000   1.0000   1.0000   1.0000   1.0000   1.0000
     1.0000   1.0000   1.0000   1.0000   1.0000   1.0000   1.0000   1.0000
     1.0000   1.0000   1.0000   1.0000   1.0000   1.0000   1.0000   1.0000
     1.0000   1.0000   1.0000   1.0000   1.0000   1.0000   1.0000   1.0000
     1.0000   1.0000   1.0000   1.0000   1.0000   1.0000   1.0000   1.0000
     1.0000   1.0000   1.0000   1.0000   1.0000   1.0000   1.0000   1.0000
     1.0000   1.0000   1.0000   1.0000   1.0000   1.0000   1.0000   1.0000
     1.0000   1.0000   1.0000   1.0000   1.0000   1.0000   1.0000   1.0000
     1.0000   1.0000   1.0000   1.0000

          k = 0.0000 1.1547 0.0000 ( 10562 PWs)   bands (ev):

    -9.6411  -9.6411  -9.4368  -9.4367  -9.4367  -9.4367  -9.2342  -9.2342
    -9.2025  -9.2024  -9.1953  -9.1953   1.8835   1.8835   1.8836   1.8836
     1.9075   1.9075   2.2685   2.3105   2.3105   2.4894   2.4895   2.4902
     2.4902   2.6545   2.6545   2.8221   2.8221   2.8221   2.8221   2.8414
     2.8820   2.8820   2.8886   2.8886   2.8886   2.8886   2.9082   2.9082
     3.0264   3.0264   3.0908   3.0908   3.3815   3.3815   3.5133   3.5133
     3.7300   3.7300   3.7549   3.8453   3.8453   3.8756   3.8757   3.9059
     3.9916   3.9916   4.0253   4.0253   4.0253   4.0253   4.0597   4.0597
     4.0597   4.0597   4.1401   4.1402   4.3057   4.3057   4.5002   4.5003
     4.5270   4.5270   4.5951   4.5951   4.7998   4.9012   4.9012   5.2199
     5.2199   5.4265   5.4265   5.4265   5.4265   5.6412   5.6412   6.2529
     6.2529   6.4769   6.4769   6.5019   6.8071   6.8071   6.8150   6.8151
     6.8151   6.8151   6.9610   6.9611   7.3767   7.3767   7.3767   7.3767
     7.5902   7.5902   7.9167   7.9167

     occupation numbers 
     1.0000   1.0000   1.0000   1.0000   1.0000   1.0000   1.0000   1.0000
     1.0000   1.0000   1.0000   1.0000   1.0000   1.0000   1.0000   1.0000
     1.0000   1.0000   1.0000   1.0000   1.0000   1.0000   1.0000   1.0000
     1.0000   1.0000   1.0000   1.0000   1.0000   1.0000   1.0000   1.0000
     1.0000   1.0000   1.0000   1.0000   1.0000   1.0000   1.0000   1.0000
     1.0000   1.0000   1.0000   1.0000   1.0000   1.0000   1.0000   1.0000
     1.0000   1.0000   1.0000   1.0000   1.0000   1.0000   1.0000   1.0000
     1.0000   1.0000   1.0000   1.0000   1.0000   1.0000   1.0000   1.0000
     1.0000   1.0000   1.0000   1.0000   1.0000   1.0000   1.0000   1.0000
     1.0000   1.0000   1.0000   1.0000   1.0000   1.0000   1.0000   1.0000
     1.0000   1.0000   1.0000   1.0000   1.0000   1.0000   1.0000   1.0000
     1.0000   1.0000   1.0000   1.0000   1.0000   1.0000   1.0000   1.0000
     1.0000   1.0000   1.0000   1.0000   1.0000   1.0000   1.0000   1.0000
     1.0000   1.0000   1.0000   1.0000

          k = 0.0000 1.1547 0.1434 ( 10591 PWs)   bands (ev):

    -9.6342  -9.6341  -9.4896  -9.4895  -9.3841  -9.3840  -9.2411  -9.2410
    -9.2020  -9.2020  -9.1958  -9.1958   1.8585   1.8585   1.9019   1.9019
     1.9357   1.9357   2.2748   2.2829   2.2829   2.4244   2.5121   2.5121
     2.5620   2.6597   2.6597   2.7757   2.7757   2.8247   2.8502   2.8503
     2.8710   2.8710   2.8744   2.8744   2.9026   2.9026   2.9122   2.9122
     3.0186   3.0187   3.0711   3.0711   3.3844   3.3844   3.4865   3.4865
     3.7435   3.7435   3.7596   3.8271   3.8620   3.9039   3.9319   3.9320
     3.9591   3.9592   3.9938   3.9938   4.0413   4.0413   4.0787   4.0787
     4.0894   4.0894   4.1369   4.1369   4.2869   4.2869   4.4318   4.4318
     4.6077   4.6077   4.6512   4.6512   4.8297   4.8879   4.8879   5.2426
     5.2426   5.3193   5.3193   5.4272   5.4979   5.4979   5.8566   6.2387
     6.2387   6.4708   6.5094   6.5095   6.5232   6.5233   6.8274   6.8274
     6.9285   6.9285   7.0956   7.0956   7.2333   7.2333   7.5182   7.5182
     7.5834   7.5834   7.8985   7.8985

     occupation numbers 
     1.0000   1.0000   1.0000   1.0000   1.0000   1.0000   1.0000   1.0000
     1.0000   1.0000   1.0000   1.0000   1.0000   1.0000   1.0000   1.0000
     1.0000   1.0000   1.0000   1.0000   1.0000   1.0000   1.0000   1.0000
     1.0000   1.0000   1.0000   1.0000   1.0000   1.0000   1.0000   1.0000
     1.0000   1.0000   1.0000   1.0000   1.0000   1.0000   1.0000   1.0000
     1.0000   1.0000   1.0000   1.0000   1.0000   1.0000   1.0000   1.0000
     1.0000   1.0000   1.0000   1.0000   1.0000   1.0000   1.0000   1.0000
     1.0000   1.0000   1.0000   1.0000   1.0000   1.0000   1.0000   1.0000
     1.0000   1.0000   1.0000   1.0000   1.0000   1.0000   1.0000   1.0000
     1.0000   1.0000   1.0000   1.0000   1.0000   1.0000   1.0000   1.0000
     1.0000   1.0000   1.0000   1.0000   1.0000   1.0000   1.0000   1.0000
     1.0000   1.0000   1.0000   1.0000   1.0000   1.0000   1.0000   1.0000
     1.0000   1.0000   1.0000   1.0000   1.0000   1.0000   1.0000   1.0000
     1.0000   1.0000   1.0000   1.0000

          k = 0.0000 1.1547 0.2868 ( 10575 PWs)   bands (ev):

    -9.6137  -9.6137  -9.5389  -9.5388  -9.3351  -9.3351  -9.2612  -9.2611
    -9.2007  -9.2007  -9.1971  -9.1971   1.8563   1.8563   1.8871   1.8871
     2.0142   2.0142   2.2088   2.2089   2.2940   2.3697   2.5747   2.5747
     2.6385   2.6751   2.6751   2.7345   2.7345   2.7685   2.7685   2.7788
     2.8704   2.8704   2.8893   2.8893   2.9189   2.9189   2.9439   2.9439
     2.9964   2.9964   3.0279   3.0279   3.3941   3.3942   3.4435   3.4435
     3.7723   3.7800   3.7800   3.8087   3.8769   3.8935   3.8935   3.8982
     4.0003   4.0003   4.0249   4.0249   4.0540   4.0540   4.0974   4.0974
     4.1279   4.1279   4.1493   4.1494   4.2496   4.2496   4.3188   4.3188
     4.7277   4.7278   4.7961   4.7962   4.8509   4.8509   4.9168   5.1836
     5.1837   5.2271   5.3106   5.3106   5.5001   5.5002   6.0609   6.2086
     6.2086   6.2960   6.2960   6.3807   6.5983   6.5983   6.8399   6.8399
     6.8863   6.8864   7.0975   7.0975   7.3206   7.3207   7.5520   7.5521
     7.6488   7.6488   7.8452   7.8452

     occupation numbers 
     1.0000   1.0000   1.0000   1.0000   1.0000   1.0000   1.0000   1.0000
     1.0000   1.0000   1.0000   1.0000   1.0000   1.0000   1.0000   1.0000
     1.0000   1.0000   1.0000   1.0000   1.0000   1.0000   1.0000   1.0000
     1.0000   1.0000   1.0000   1.0000   1.0000   1.0000   1.0000   1.0000
     1.0000   1.0000   1.0000   1.0000   1.0000   1.0000   1.0000   1.0000
     1.0000   1.0000   1.0000   1.0000   1.0000   1.0000   1.0000   1.0000
     1.0000   1.0000   1.0000   1.0000   1.0000   1.0000   1.0000   1.0000
     1.0000   1.0000   1.0000   1.0000   1.0000   1.0000   1.0000   1.0000
     1.0000   1.0000   1.0000   1.0000   1.0000   1.0000   1.0000   1.0000
     1.0000   1.0000   1.0000   1.0000   1.0000   1.0000   1.0000   1.0000
     1.0000   1.0000   1.0000   1.0000   1.0000   1.0000   1.0000   1.0000
     1.0000   1.0000   1.0000   1.0000   1.0000   1.0000   1.0000   1.0000
     1.0000   1.0000   1.0000   1.0000   1.0000   1.0000   1.0000   1.0000
     1.0000   1.0000   1.0000   1.0000

          k = 0.0000 1.1547-0.4302 ( 10590 PWs)   bands (ev):

    -9.5812  -9.5812  -9.5812  -9.5811  -9.2932  -9.2932  -9.2932  -9.2931
    -9.1989  -9.1989  -9.1989  -9.1988   1.8690   1.8690   1.8691   1.8691
     2.1110   2.1110   2.1110   2.1110   2.3257   2.3258   2.6668   2.6668
     2.6668   2.6668   2.7004   2.7004   2.7004   2.7004   2.7134   2.7135
     2.8763   2.8763   2.8763   2.8763   2.9620   2.9620   2.9620   2.9620
     2.9828   2.9828   2.9828   2.9829   3.4126   3.4126   3.4126   3.4126
     3.7897   3.7897   3.8322   3.8322   3.8322   3.8322   3.8890   3.8891
     4.0108   4.0108   4.0108   4.0108   4.1143   4.1143   4.1143   4.1143
     4.1899   4.1899   4.1900   4.1900   4.2032   4.2032   4.2032   4.2032
     4.7958   4.7958   4.7959   4.7959   5.0078   5.0078   5.0078   5.0078
     5.0531   5.0531   5.4148   5.4148   5.4148   5.4148   6.2030   6.2030
     6.2030   6.2030   6.2400   6.2401   6.7191   6.7191   6.7192   6.7192
     6.9789   6.9789   6.9789   6.9789   7.4714   7.4714   7.4715   7.4715
     7.7601   7.7601   7.7601   7.7601

     occupation numbers 
     1.0000   1.0000   1.0000   1.0000   1.0000   1.0000   1.0000   1.0000
     1.0000   1.0000   1.0000   1.0000   1.0000   1.0000   1.0000   1.0000
     1.0000   1.0000   1.0000   1.0000   1.0000   1.0000   1.0000   1.0000
     1.0000   1.0000   1.0000   1.0000   1.0000   1.0000   1.0000   1.0000
     1.0000   1.0000   1.0000   1.0000   1.0000   1.0000   1.0000   1.0000
     1.0000   1.0000   1.0000   1.0000   1.0000   1.0000   1.0000   1.0000
     1.0000   1.0000   1.0000   1.0000   1.0000   1.0000   1.0000   1.0000
     1.0000   1.0000   1.0000   1.0000   1.0000   1.0000   1.0000   1.0000
     1.0000   1.0000   1.0000   1.0000   1.0000   1.0000   1.0000   1.0000
     1.0000   1.0000   1.0000   1.0000   1.0000   1.0000   1.0000   1.0000
     1.0000   1.0000   1.0000   1.0000   1.0000   1.0000   1.0000   1.0000
     1.0000   1.0000   1.0000   1.0000   1.0000   1.0000   1.0000   1.0000
     1.0000   1.0000   1.0000   1.0000   1.0000   1.0000   1.0000   1.0000
     1.0000   1.0000   1.0000   1.0000

          k = 0.0000-1.7321 0.0000 ( 10564 PWs)   bands (ev):

    -9.3944  -9.3944  -9.3836  -9.2752  -9.2751  -9.2751  -9.2751  -9.2713
    -9.2712  -9.1702  -9.1664  -9.1664   1.8571   1.8571   2.0296   2.0477
     2.0477   2.0477   2.0478   2.0935   2.1421   2.1421   2.3591   2.3591
     2.6982   2.6982   2.7155   2.7847   2.7847   2.7847   2.7847   2.9414
     2.9415   3.0027   3.0027   3.0991   3.0991   3.0991   3.0991   3.1114
     3.1114   3.1899   3.1982   3.2241   3.2241   3.2253   3.2511   3.2511
     3.8016   3.8016   3.9158   3.9445   3.9446   4.0333   4.0333   4.0333
     4.0333   4.1124   4.1346   4.1346   4.1787   4.1952   4.1952   4.2028
     4.2028   4.2475   4.2475   4.2475   4.2476   4.2801   4.4081   4.4081
     4.5171   4.5171   4.5651   4.5652   4.6287   4.6300   4.8864   4.8864
     4.8864   4.8864   5.0975   5.0975   5.5278   5.5278   5.5732   5.9033
     5.9033   6.3545   6.3545   6.3545   6.3545   6.3551   6.8298   6.8298
     6.9659   6.9659   6.9660   6.9660   7.0181   7.0182   7.0431   7.0431
     7.0807   7.3201   7.3201   7.6240

     occupation numbers 
     1.0000   1.0000   1.0000   1.0000   1.0000   1.0000   1.0000   1.0000
     1.0000   1.0000   1.0000   1.0000   1.0000   1.0000   1.0000   1.0000
     1.0000   1.0000   1.0000   1.0000   1.0000   1.0000   1.0000   1.0000
     1.0000   1.0000   1.0000   1.0000   1.0000   1.0000   1.0000   1.0000
     1.0000   1.0000   1.0000   1.0000   1.0000   1.0000   1.0000   1.0000
     1.0000   1.0000   1.0000   1.0000   1.0000   1.0000   1.0000   1.0000
     1.0000   1.0000   1.0000   1.0000   1.0000   1.0000   1.0000   1.0000
     1.0000   1.0000   1.0000   1.0000   1.0000   1.0000   1.0000   1.0000
     1.0000   1.0000   1.0000   1.0000   1.0000   1.0000   1.0000   1.0000
     1.0000   1.0000   1.0000   1.0000   1.0000   1.0000   1.0000   1.0000
     1.0000   1.0000   1.0000   1.0000   1.0000   1.0000   1.0000   1.0000
     1.0000   1.0000   1.0000   1.0000   1.0000   1.0000   1.0000   1.0000
     1.0000   1.0000   1.0000   1.0000   1.0000   1.0000   1.0000   1.0000
     1.0000   1.0000   1.0000   1.0000

          k = 0.0000-1.7321 0.1434 ( 10560 PWs)   bands (ev):

    -9.3902  -9.3902  -9.3796  -9.3051  -9.3050  -9.2993  -9.2459  -9.2458
    -9.2439  -9.1734  -9.1699  -9.1699   1.8675   1.8726   2.0178   2.0398
     2.0398   2.0763   2.0831   2.0831   2.1346   2.1346   2.3408   2.3408
     2.6962   2.6962   2.7223   2.7439   2.7439   2.8315   2.8315   2.8784
     2.9928   2.9928   3.0080   3.0986   3.0986   3.1098   3.1114   3.1114
     3.1209   3.1848   3.1868   3.2133   3.2133   3.2143   3.2307   3.2307
     3.8068   3.8068   3.9347   3.9722   3.9722   3.9913   3.9913   4.0572
     4.0572   4.1129   4.1277   4.1425   4.1510   4.1762   4.2021   4.2021
     4.2206   4.2206   4.2296   4.2793   4.2890   4.2891   4.4287   4.4287
     4.5013   4.5013   4.5653   4.5716   4.6211   4.6257   4.7895   4.7895
     4.9762   4.9762   5.1148   5.1148   5.5505   5.5505   5.6332   5.9345
     5.9345   6.1804   6.1804   6.3794   6.4501   6.4501   6.5902   6.8380
     6.8380   6.8545   7.0063   7.0416   7.0416   7.0933   7.1112   7.1112
     7.1782   7.3092   7.3092   7.6037

     occupation numbers 
     1.0000   1.0000   1.0000   1.0000   1.0000   1.0000   1.0000   1.0000
     1.0000   1.0000   1.0000   1.0000   1.0000   1.0000   1.0000   1.0000
     1.0000   1.0000   1.0000   1.0000   1.0000   1.0000   1.0000   1.0000
     1.0000   1.0000   1.0000   1.0000   1.0000   1.0000   1.0000   1.0000
     1.0000   1.0000   1.0000   1.0000   1.0000   1.0000   1.0000   1.0000
     1.0000   1.0000   1.0000   1.0000   1.0000   1.0000   1.0000   1.0000
     1.0000   1.0000   1.0000   1.0000   1.0000   1.0000   1.0000   1.0000
     1.0000   1.0000   1.0000   1.0000   1.0000   1.0000   1.0000   1.0000
     1.0000   1.0000   1.0000   1.0000   1.0000   1.0000   1.0000   1.0000
     1.0000   1.0000   1.0000   1.0000   1.0000   1.0000   1.0000   1.0000
     1.0000   1.0000   1.0000   1.0000   1.0000   1.0000   1.0000   1.0000
     1.0000   1.0000   1.0000   1.0000   1.0000   1.0000   1.0000   1.0000
     1.0000   1.0000   1.0000   1.0000   1.0000   1.0000   1.0000   1.0000
     1.0000   1.0000   1.0000   1.0000

          k = 0.0000-1.7321 0.2868 ( 10538 PWs)   bands (ev):

    -9.3779  -9.3779  -9.3680  -9.3336  -9.3335  -9.3262  -9.2193  -9.2193
    -9.2192  -9.1830  -9.1803  -9.1802   1.8989   1.9129   1.9859   2.0302
     2.0548   2.0548   2.1131   2.1131   2.1433   2.1433   2.2896   2.2897
     2.6934   2.6934   2.7138   2.7138   2.7433   2.8227   2.8793   2.8793
     2.9648   2.9648   3.0743   3.1113   3.1113   3.1173   3.1341   3.1341
     3.1359   3.1610   3.1716   3.1772   3.1772   3.1829   3.1968   3.1968
     3.8334   3.8334   3.9372   3.9372   3.9819   4.0194   4.0194   4.0631
     4.0631   4.0986   4.1149   4.1222   4.1517   4.1701   4.2007   4.2007
     4.2066   4.2066   4.2534   4.2760   4.3412   4.3412   4.4474   4.4474
     4.5024   4.5024   4.5724   4.5836   4.6036   4.6143   4.6884   4.6884
     5.0542   5.0542   5.1331   5.1331   5.6365   5.6365   5.7992   5.9861
     5.9862   6.0276   6.0276   6.3150   6.3545   6.3545   6.4500   6.6980
     6.8626   6.8626   7.0209   7.0209   7.1061   7.1207   7.2090   7.2090
     7.2855   7.2855   7.3249   7.5443

     occupation numbers 
     1.0000   1.0000   1.0000   1.0000   1.0000   1.0000   1.0000   1.0000
     1.0000   1.0000   1.0000   1.0000   1.0000   1.0000   1.0000   1.0000
     1.0000   1.0000   1.0000   1.0000   1.0000   1.0000   1.0000   1.0000
     1.0000   1.0000   1.0000   1.0000   1.0000   1.0000   1.0000   1.0000
     1.0000   1.0000   1.0000   1.0000   1.0000   1.0000   1.0000   1.0000
     1.0000   1.0000   1.0000   1.0000   1.0000   1.0000   1.0000   1.0000
     1.0000   1.0000   1.0000   1.0000   1.0000   1.0000   1.0000   1.0000
     1.0000   1.0000   1.0000   1.0000   1.0000   1.0000   1.0000   1.0000
     1.0000   1.0000   1.0000   1.0000   1.0000   1.0000   1.0000   1.0000
     1.0000   1.0000   1.0000   1.0000   1.0000   1.0000   1.0000   1.0000
     1.0000   1.0000   1.0000   1.0000   1.0000   1.0000   1.0000   1.0000
     1.0000   1.0000   1.0000   1.0000   1.0000   1.0000   1.0000   1.0000
     1.0000   1.0000   1.0000   1.0000   1.0000   1.0000   1.0000   1.0000
     1.0000   1.0000   1.0000   1.0000

          k = 0.0000-1.7321-0.4302 ( 10552 PWs)   bands (ev):

    -9.3585  -9.3585  -9.3585  -9.3584  -9.3497  -9.3497  -9.1985  -9.1985
    -9.1971  -9.1970  -9.1970  -9.1969   1.9424   1.9424   1.9700   1.9700
     2.0831   2.0831   2.0831   2.0832   2.2178   2.2178   2.2178   2.2178
     2.6973   2.6973   2.6973   2.6973   2.7770   2.7770   2.9249   2.9249
     2.9249   2.9249   3.1344   3.1344   3.1350   3.1351   3.1378   3.1378
     3.1378   3.1378   3.1539   3.1539   3.1642   3.1642   3.1642   3.1642
     3.8807   3.8807   3.8807   3.8807   4.0403   4.0404   4.0511   4.0511
     4.0511   4.0511   4.1180   4.1180   4.1612   4.1612   4.2012   4.2012
     4.2012   4.2012   4.2682   4.2683   4.3973   4.3973   4.3973   4.3973
     4.5856   4.5856   4.5882   4.5882   4.5882   4.5882   4.5990   4.5990
     5.1115   5.1115   5.1115   5.1115   5.7937   5.7937   5.7937   5.7938
     6.0389   6.0389   6.1768   6.1768   6.1768   6.1769   6.5595   6.5595
     6.9561   6.9561   6.9561   6.9561   7.1359   7.1359   7.2584   7.2584
     7.2584   7.2585   7.4494   7.4494

     occupation numbers 
     1.0000   1.0000   1.0000   1.0000   1.0000   1.0000   1.0000   1.0000
     1.0000   1.0000   1.0000   1.0000   1.0000   1.0000   1.0000   1.0000
     1.0000   1.0000   1.0000   1.0000   1.0000   1.0000   1.0000   1.0000
     1.0000   1.0000   1.0000   1.0000   1.0000   1.0000   1.0000   1.0000
     1.0000   1.0000   1.0000   1.0000   1.0000   1.0000   1.0000   1.0000
     1.0000   1.0000   1.0000   1.0000   1.0000   1.0000   1.0000   1.0000
     1.0000   1.0000   1.0000   1.0000   1.0000   1.0000   1.0000   1.0000
     1.0000   1.0000   1.0000   1.0000   1.0000   1.0000   1.0000   1.0000
     1.0000   1.0000   1.0000   1.0000   1.0000   1.0000   1.0000   1.0000
     1.0000   1.0000   1.0000   1.0000   1.0000   1.0000   1.0000   1.0000
     1.0000   1.0000   1.0000   1.0000   1.0000   1.0000   1.0000   1.0000
     1.0000   1.0000   1.0000   1.0000   1.0000   1.0000   1.0000   1.0000
     1.0000   1.0000   1.0000   1.0000   1.0000   1.0000   1.0000   1.0000
     1.0000   1.0000   1.0000   1.0000

          k = 0.1667 0.0962 0.0000 ( 10626 PWs)   bands (ev):

   -10.2237  -9.8842  -9.8842  -9.7859  -9.5418  -9.5418  -9.5196  -9.5125
    -9.3494  -9.3494  -9.2933  -9.1931   1.8638   1.8639   1.9135   1.9215
     1.9216   1.9517   2.1095   2.1238   2.1238   2.2446   2.3470   2.3655
     2.3846   2.4564   2.4565   2.4602   2.4602   2.4612   2.5400   2.5633
     2.6037   2.6900   2.7407   2.7407   2.7708   2.7708   2.7765   2.8871
     2.8872   2.8908   2.9084   2.9983   2.9983   3.0370   3.1300   3.1895
     3.7265   3.8120   3.8980   3.9067   3.9447   4.0065   4.0066   4.0157
     4.0158   4.0168   4.0168   4.0336   4.0337   4.0470   4.0667   4.0668
     4.0931   4.0931   4.1041   4.1145   4.1267   4.1572   4.3155   4.3387
     4.4143   4.4837   4.5653   4.8548   5.0363   5.0363   5.7469   5.7972
     5.7972   5.8965   6.0732   6.0732   6.5747   6.6633   6.8128   6.8128
     6.8845   6.8845   7.0770   7.1905   7.1905   7.3526   7.5960   7.5960
     7.7646   7.8191   7.8498   7.9373   8.0957   8.2134   8.2134   8.2729
     8.2965   8.2965   8.4374   8.6545

     occupation numbers 
     1.0000   1.0000   1.0000   1.0000   1.0000   1.0000   1.0000   1.0000
     1.0000   1.0000   1.0000   1.0000   1.0000   1.0000   1.0000   1.0000
     1.0000   1.0000   1.0000   1.0000   1.0000   1.0000   1.0000   1.0000
     1.0000   1.0000   1.0000   1.0000   1.0000   1.0000   1.0000   1.0000
     1.0000   1.0000   1.0000   1.0000   1.0000   1.0000   1.0000   1.0000
     1.0000   1.0000   1.0000   1.0000   1.0000   1.0000   1.0000   1.0000
     1.0000   1.0000   1.0000   1.0000   1.0000   1.0000   1.0000   1.0000
     1.0000   1.0000   1.0000   1.0000   1.0000   1.0000   1.0000   1.0000
     1.0000   1.0000   1.0000   1.0000   1.0000   1.0000   1.0000   1.0000
     1.0000   1.0000   1.0000   1.0000   1.0000   1.0000   1.0000   1.0000
     1.0000   1.0000   1.0000   1.0000   1.0000   1.0000   1.0000   1.0000
     1.0000   1.0000   1.0000   1.0000   1.0000   1.0000   1.0000   1.0000
     1.0000   1.0000   1.0000   1.0000   1.0000   1.0000   1.0000   1.0000
     1.0000   1.0000   1.0000   1.0000

          k = 0.1667 0.0962 0.1434 ( 10639 PWs)   bands (ev):

   -10.2125  -9.9743  -9.7924  -9.7776  -9.6054  -9.5325  -9.5069  -9.4778
    -9.3910  -9.3082  -9.3019  -9.1983   1.8439   1.8998   1.9065   1.9105
     1.9463   1.9702   2.0842   2.1012   2.1790   2.2206   2.3329   2.3443
     2.3868   2.4381   2.4387   2.4527   2.4769   2.4840   2.5374   2.5593
     2.6080   2.6960   2.7026   2.7581   2.7723   2.7807   2.7896   2.8324
     2.8823   2.9022   2.9448   2.9858   3.0207   3.0298   3.1206   3.1725
     3.7397   3.8206   3.9024   3.9108   3.9443   3.9478   3.9876   3.9902
     4.0055   4.0104   4.0418   4.0425   4.0483   4.0569   4.0665   4.0801
     4.1018   4.1071   4.1106   4.1234   4.1268   4.1541   4.2790   4.3095
     4.5418   4.5440   4.5956   4.8962   4.9529   5.1028   5.6094   5.6735
     5.7643   5.9004   5.9176   6.4872   6.5291   6.5969   6.6386   6.6413
     7.0369   7.0543   7.0953   7.1650   7.3415   7.3561   7.4642   7.7265
     7.7453   7.8010   7.8607   7.9496   8.0738   8.0788   8.1196   8.2037
     8.3069   8.3893   8.4951   8.6423

     occupation numbers 
     1.0000   1.0000   1.0000   1.0000   1.0000   1.0000   1.0000   1.0000
     1.0000   1.0000   1.0000   1.0000   1.0000   1.0000   1.0000   1.0000
     1.0000   1.0000   1.0000   1.0000   1.0000   1.0000   1.0000   1.0000
     1.0000   1.0000   1.0000   1.0000   1.0000   1.0000   1.0000   1.0000
     1.0000   1.0000   1.0000   1.0000   1.0000   1.0000   1.0000   1.0000
     1.0000   1.0000   1.0000   1.0000   1.0000   1.0000   1.0000   1.0000
     1.0000   1.0000   1.0000   1.0000   1.0000   1.0000   1.0000   1.0000
     1.0000   1.0000   1.0000   1.0000   1.0000   1.0000   1.0000   1.0000
     1.0000   1.0000   1.0000   1.0000   1.0000   1.0000   1.0000   1.0000
     1.0000   1.0000   1.0000   1.0000   1.0000   1.0000   1.0000   1.0000
     1.0000   1.0000   1.0000   1.0000   1.0000   1.0000   1.0000   1.0000
     1.0000   1.0000   1.0000   1.0000   1.0000   1.0000   1.0000   1.0000
     1.0000   1.0000   1.0000   1.0000   1.0000   1.0000   1.0000   1.0000
     1.0000   1.0000   1.0000   1.0000

          k = 0.1667 0.0962 0.2868 ( 10620 PWs)   bands (ev):

   -10.1795 -10.0569  -9.7535  -9.7053  -9.6645  -9.5701  -9.4903  -9.4302
    -9.4180  -9.3268  -9.2702  -9.2136   1.8470   1.8881   1.8999   1.9318
     1.9819   2.0465   2.0651   2.0824   2.1561   2.2410   2.2489   2.3315
     2.3934   2.4192   2.4259   2.4339   2.4975   2.5080   2.5293   2.5478
     2.6207   2.6689   2.7142   2.7529   2.7632   2.7838   2.8127   2.8201
     2.8622   2.8839   2.9848   3.0015   3.0127   3.0520   3.0939   3.1335
     3.7749   3.8479   3.8824   3.9153   3.9227   3.9459   3.9567   3.9599
     3.9644   3.9891   4.0525   4.0639   4.0661   4.0687   4.0791   4.0945
     4.1005   4.1137   4.1213   4.1223   4.1464   4.1848   4.2232   4.2829
     4.6734   4.7147   4.7777   4.8617   4.9998   5.1337   5.3016   5.3596
     5.8142   5.9312   5.9451   6.2503   6.5116   6.5845   6.6614   6.8907
     6.9054   7.1484   7.2258   7.3401   7.3549   7.4192   7.4804   7.6888
     7.7146   7.7380   7.8473   7.9029   7.9855   8.0293   8.0324   8.1170
     8.3927   8.4757   8.5033   8.6066

     occupation numbers 
     1.0000   1.0000   1.0000   1.0000   1.0000   1.0000   1.0000   1.0000
     1.0000   1.0000   1.0000   1.0000   1.0000   1.0000   1.0000   1.0000
     1.0000   1.0000   1.0000   1.0000   1.0000   1.0000   1.0000   1.0000
     1.0000   1.0000   1.0000   1.0000   1.0000   1.0000   1.0000   1.0000
     1.0000   1.0000   1.0000   1.0000   1.0000   1.0000   1.0000   1.0000
     1.0000   1.0000   1.0000   1.0000   1.0000   1.0000   1.0000   1.0000
     1.0000   1.0000   1.0000   1.0000   1.0000   1.0000   1.0000   1.0000
     1.0000   1.0000   1.0000   1.0000   1.0000   1.0000   1.0000   1.0000
     1.0000   1.0000   1.0000   1.0000   1.0000   1.0000   1.0000   1.0000
     1.0000   1.0000   1.0000   1.0000   1.0000   1.0000   1.0000   1.0000
     1.0000   1.0000   1.0000   1.0000   1.0000   1.0000   1.0000   1.0000
     1.0000   1.0000   1.0000   1.0000   1.0000   1.0000   1.0000   1.0000
     1.0000   1.0000   1.0000   1.0000   1.0000   1.0000   1.0000   1.0000
     1.0000   1.0000   1.0000   1.0000

          k = 0.1667 0.0962-0.4302 ( 10662 PWs)   bands (ev):

   -10.1267 -10.1266  -9.7149  -9.7149  -9.6293  -9.6292  -9.4642  -9.4641
    -9.3665  -9.3665  -9.2381  -9.2380   1.8650   1.8650   1.9136   1.9136
     2.0665   2.0665   2.0693   2.0694   2.1445   2.1445   2.2967   2.2967
     2.4040   2.4041   2.4227   2.4227   2.5155   2.5156   2.5299   2.5299
     2.6411   2.6411   2.7437   2.7437   2.7551   2.7552   2.8377   2.8377
     2.8555   2.8555   2.9948   2.9948   3.0527   3.0527   3.0904   3.0904
     3.8244   3.8244   3.8914   3.8914   3.9351   3.9351   3.9410   3.9410
     3.9706   3.9706   4.0592   4.0592   4.0815   4.0815   4.0855   4.0855
     4.0984   4.0984   4.1347   4.1348   4.1737   4.1737   4.2383   4.2383
     4.7671   4.7672   4.9749   4.9749   5.0670   5.0670   5.1000   5.1001
     5.8871   5.8871   6.0380   6.0380   6.5211   6.5211   6.7622   6.7622
     7.2321   7.2321   7.3191   7.3191   7.3210   7.3210   7.5985   7.5986
     7.6135   7.6136   7.9504   7.9504   7.9579   7.9579   8.0426   8.0426
     8.4620   8.4620   8.5498   8.5498

     occupation numbers 
     1.0000   1.0000   1.0000   1.0000   1.0000   1.0000   1.0000   1.0000
     1.0000   1.0000   1.0000   1.0000   1.0000   1.0000   1.0000   1.0000
     1.0000   1.0000   1.0000   1.0000   1.0000   1.0000   1.0000   1.0000
     1.0000   1.0000   1.0000   1.0000   1.0000   1.0000   1.0000   1.0000
     1.0000   1.0000   1.0000   1.0000   1.0000   1.0000   1.0000   1.0000
     1.0000   1.0000   1.0000   1.0000   1.0000   1.0000   1.0000   1.0000
     1.0000   1.0000   1.0000   1.0000   1.0000   1.0000   1.0000   1.0000
     1.0000   1.0000   1.0000   1.0000   1.0000   1.0000   1.0000   1.0000
     1.0000   1.0000   1.0000   1.0000   1.0000   1.0000   1.0000   1.0000
     1.0000   1.0000   1.0000   1.0000   1.0000   1.0000   1.0000   1.0000
     1.0000   1.0000   1.0000   1.0000   1.0000   1.0000   1.0000   1.0000
     1.0000   1.0000   1.0000   1.0000   1.0000   1.0000   1.0000   1.0000
     1.0000   1.0000   1.0000   1.0000   1.0000   1.0000   1.0000   1.0000
     1.0000   1.0000   1.0000   1.0000

          k = 0.1667 0.6736 0.0000 ( 10616 PWs)   bands (ev):

    -9.9832  -9.8786  -9.6925  -9.6925  -9.6116  -9.6116  -9.3884  -9.3361
    -9.3310  -9.2410  -9.2409  -9.1633   1.9836   1.9837   2.0066   2.0066
[...]
     1.0000   1.0000   1.0000   1.0000   1.0000   1.0000   1.0000   1.0000
     1.0000   1.0000   1.0000   1.0000   1.0000   1.0000   1.0000   1.0000
     1.0000   1.0000   1.0000   1.0000

          k = 1.3333-0.3849-0.2868 ( 10586 PWs)   bands (ev):

    -9.7100  -9.6251  -9.4589  -9.4028  -9.3911  -9.3050  -9.3043  -9.2728
    -9.2544  -9.2022  -9.1954  -9.1703   1.9361   1.9484   1.9847   1.9919
     2.0568   2.0667   2.1937   2.2238   2.2252   2.2516   2.2779   2.4293
     2.5935   2.6254   2.6720   2.6842   2.6949   2.7193   2.7272   2.7373
     2.8208   2.8591   2.9021   2.9029   2.9055   2.9295   2.9544   2.9672
     3.0414   3.0747   3.1205   3.1433   3.2004   3.2200   3.2439   3.2782
     3.7798   3.8240   3.8365   3.8888   3.9249   3.9297   3.9594   3.9819
     3.9983   4.0146   4.0355   4.0717   4.0848   4.1169   4.1435   4.1515
     4.1665   4.2014   4.2401   4.2487   4.2537   4.3069   4.3487   4.4458
     4.5586   4.5918   4.6562   4.8080   4.8546   4.9265   5.0570   5.1188
     5.1849   5.2837   5.3632   5.6160   5.8426   5.8668   5.9717   6.0754
     6.2003   6.2780   6.3039   6.3815   6.3831   6.5546   6.6808   6.7366
     6.8849   7.0339   7.0768   7.1017   7.1428   7.2850   7.3123   7.4483
     7.4897   7.6353   7.7215   7.8341

     occupation numbers 
     1.0000   1.0000   1.0000   1.0000   1.0000   1.0000   1.0000   1.0000
     1.0000   1.0000   1.0000   1.0000   1.0000   1.0000   1.0000   1.0000
     1.0000   1.0000   1.0000   1.0000   1.0000   1.0000   1.0000   1.0000
     1.0000   1.0000   1.0000   1.0000   1.0000   1.0000   1.0000   1.0000
     1.0000   1.0000   1.0000   1.0000   1.0000   1.0000   1.0000   1.0000
     1.0000   1.0000   1.0000   1.0000   1.0000   1.0000   1.0000   1.0000
     1.0000   1.0000   1.0000   1.0000   1.0000   1.0000   1.0000   1.0000
     1.0000   1.0000   1.0000   1.0000   1.0000   1.0000   1.0000   1.0000
     1.0000   1.0000   1.0000   1.0000   1.0000   1.0000   1.0000   1.0000
     1.0000   1.0000   1.0000   1.0000   1.0000   1.0000   1.0000   1.0000
     1.0000   1.0000   1.0000   1.0000   1.0000   1.0000   1.0000   1.0000
     1.0000   1.0000   1.0000   1.0000   1.0000   1.0000   1.0000   1.0000
     1.0000   1.0000   1.0000   1.0000   1.0000   1.0000   1.0000   1.0000
     1.0000   1.0000   1.0000   1.0000

     highest occupied level (ev):     8.6827

!    total energy              =   -2169.61581693 Ry
     estimated scf accuracy    <          4.9E-09 Ry

     The total energy is the sum of the following terms:
     one-electron contribution =    -853.52197020 Ry
     hartree contribution      =     684.13194845 Ry
     xc contribution           =    -658.72267763 Ry
     ewald contribution        =   -1341.50311755 Ry

     convergence has been achieved in  26 iterations

     Forces acting on atoms (cartesian axes, Ry/au):

     atom    1 type  1   force =    -0.00001060   -0.00000612    0.03508268
     atom    2 type  1   force =    -0.00001317   -0.00000760    0.03514086
     atom    3 type  2   force =    -0.00000292   -0.00000169   -0.03510386
     atom    4 type  2   force =     0.00000459    0.00000265   -0.03510224
     atom    5 type  1   force =     0.00001494    0.00000863    0.03510139
     atom    6 type  1   force =    -0.00001038   -0.00000599    0.03510035
     atom    7 type  2   force =    -0.00000333   -0.00000192   -0.03511020
     atom    8 type  2   force =     0.00000360    0.00000208   -0.03509973
     atom    9 type  1   force =     0.00002465    0.00001423    0.03508862
     atom   10 type  1   force =     0.00000609    0.00000352    0.03511503
     atom   11 type  2   force =    -0.00000413   -0.00000239   -0.03510344
     atom   12 type  2   force =     0.00000263    0.00000152   -0.03510160
     atom   13 type  1   force =     0.00001008    0.00000582    0.03511181
     atom   14 type  1   force =    -0.00000380   -0.00000219    0.03509862
     atom   15 type  2   force =    -0.00000377   -0.00000218   -0.03510657
     atom   16 type  2   force =     0.00000330    0.00000191   -0.03510443
     atom   17 type  1   force =     0.00000280    0.00000161    0.03507637
     atom   18 type  1   force =    -0.00001039   -0.00000600    0.03513186
     atom   19 type  2   force =    -0.00000175   -0.00000101   -0.03510336
     atom   20 type  2   force =     0.00000091    0.00000052   -0.03510145
     atom   21 type  1   force =    -0.00000676   -0.00000390    0.03510442
     atom   22 type  1   force =    -0.00000373   -0.00000215    0.03509816
     atom   23 type  2   force =    -0.00000187   -0.00000108   -0.03510909
     atom   24 type  2   force =     0.00000300    0.00000173   -0.03510421
     The non-local contrib.  to forces
     atom    1 type  1   force =    -0.00002820   -0.00001628    0.22008260
     atom    2 type  1   force =     0.00001428    0.00000825    0.22013006
     atom    3 type  2   force =    -0.00018877   -0.00010899    0.18787676
     atom    4 type  2   force =     0.00019630    0.00011333    0.18788030
     atom    5 type  1   force =    -0.00001317   -0.00000760    0.22009064
     atom    6 type  1   force =     0.00001891    0.00001092    0.22009465
     atom    7 type  2   force =    -0.00019134   -0.00011047    0.18786152
     atom    8 type  2   force =     0.00019063    0.00011006    0.18787910
     atom    9 type  1   force =    -0.00000737   -0.00000425    0.22008382
     atom   10 type  1   force =     0.00002518    0.00001454    0.22011272
     atom   11 type  2   force =    -0.00019035   -0.00010990    0.18787656
     atom   12 type  2   force =     0.00018719    0.00010807    0.18788351
     atom   13 type  1   force =    -0.00001294   -0.00000747    0.22010150
     atom   14 type  1   force =     0.00001751    0.00001011    0.22009309
     atom   15 type  2   force =    -0.00019235   -0.00011105    0.18786473
     atom   16 type  2   force =     0.00018937    0.00010933    0.18787424
     atom   17 type  1   force =    -0.00001713   -0.00000989    0.22007200
     atom   18 type  1   force =     0.00001345    0.00000776    0.22012421
     atom   19 type  2   force =    -0.00018538   -0.00010703    0.18788271
     atom   20 type  2   force =     0.00018185    0.00010499    0.18788509
     atom   21 type  1   force =    -0.00002536   -0.00001464    0.22009366
     atom   22 type  1   force =     0.00001745    0.00001008    0.22009072
     atom   23 type  2   force =    -0.00018192   -0.00010503    0.18786152
     atom   24 type  2   force =     0.00018867    0.00010893    0.18787394
     The ionic contribution  to forces
     atom    1 type  1   force =     0.00000001    0.00000001    1.78031638
     atom    2 type  1   force =     0.00000001    0.00000000    1.78031638
     atom    3 type  2   force =     0.00000000    0.00000000   -1.78031638
     atom    4 type  2   force =     0.00000000    0.00000000   -1.78031638
     atom    5 type  1   force =     0.00000001    0.00000001    1.78031638
     atom    6 type  1   force =     0.00000001    0.00000000    1.78031638
     atom    7 type  2   force =     0.00000000    0.00000000   -1.78031638
     atom    8 type  2   force =     0.00000000    0.00000000   -1.78031638
     atom    9 type  1   force =    -0.00000001    0.00000000    1.78031637
     atom   10 type  1   force =     0.00000001   -0.00000000    1.78031637
     atom   11 type  2   force =    -0.00000001    0.00000000   -1.78031637
     atom   12 type  2   force =     0.00000001   -0.00000000   -1.78031637
     atom   13 type  1   force =    -0.00000001    0.00000000    1.78031637
     atom   14 type  1   force =     0.00000001   -0.00000000    1.78031637
     atom   15 type  2   force =    -0.00000001    0.00000000   -1.78031637
     atom   16 type  2   force =     0.00000001   -0.00000000   -1.78031637
     atom   17 type  1   force =    -0.00000001   -0.00000000    1.78031638
     atom   18 type  1   force =    -0.00000001   -0.00000001    1.78031638
     atom   19 type  2   force =    -0.00000000   -0.00000000   -1.78031638
     atom   20 type  2   force =    -0.00000000   -0.00000000   -1.78031638
     atom   21 type  1   force =    -0.00000001   -0.00000000    1.78031638
     atom   22 type  1   force =    -0.00000001   -0.00000001    1.78031638
     atom   23 type  2   force =    -0.00000000   -0.00000000   -1.78031638
     atom   24 type  2   force =    -0.00000000   -0.00000000   -1.78031638
     The local contribution  to forces
     atom    1 type  1   force =     0.00006893    0.00003980   -1.94804837
     atom    2 type  1   force =    -0.00002089   -0.00001211   -1.94815852
     atom    3 type  2   force =     0.00018023    0.00010405    1.55873779
     atom    4 type  2   force =    -0.00018324   -0.00010581    1.55878034
     atom    5 type  1   force =     0.00002517    0.00001453   -1.94808182
     atom    6 type  1   force =    -0.00003119   -0.00001805   -1.94808158
     atom    7 type  2   force =     0.00017848    0.00010305    1.55872799
     atom    8 type  2   force =    -0.00019211   -0.00011093    1.55875453
     atom    9 type  1   force =    -0.00000277   -0.00000151   -1.94805982
     atom   10 type  1   force =    -0.00006051   -0.00003503   -1.94810700
     atom   11 type  2   force =     0.00019209    0.00011093    1.55874569
     atom   12 type  2   force =    -0.00018651   -0.00010771    1.55877913
     atom   13 type  1   force =     0.00002127    0.00001237   -1.94810847
     atom   14 type  1   force =    -0.00003920   -0.00002273   -1.94807746
     atom   15 type  2   force =     0.00018398    0.00010624    1.55873055
     atom   16 type  2   force =    -0.00017889   -0.00010330    1.55874882
     atom   17 type  1   force =     0.00003916    0.00002266   -1.94802659
     atom   18 type  1   force =    -0.00002396   -0.00001384   -1.94814348
     atom   19 type  2   force =     0.00018122    0.00010464    1.55874230
     atom   20 type  2   force =    -0.00017989   -0.00010386    1.55878507
     atom   21 type  1   force =     0.00005676    0.00003281   -1.94808999
     atom   22 type  1   force =    -0.00003587   -0.00002071   -1.94807765
     atom   23 type  2   force =     0.00018925    0.00010928    1.55872639
     atom   24 type  2   force =    -0.00018142   -0.00010474    1.55874575
     The core correction contribution to forces
     atom    1 type  1   force =    -0.00000884   -0.00000510   -0.01723305
     atom    2 type  1   force =     0.00000778    0.00000449   -0.01723500
     atom    3 type  2   force =     0.00000211    0.00000122   -0.00140356
     atom    4 type  2   force =    -0.00000224   -0.00000129   -0.00140247
     atom    5 type  1   force =    -0.00000830   -0.00000479   -0.01723416
     atom    6 type  1   force =     0.00000800    0.00000461   -0.01723162
     atom    7 type  2   force =     0.00000215    0.00000124   -0.00140334
     atom    8 type  2   force =    -0.00000218   -0.00000126   -0.00140456
     atom    9 type  1   force =    -0.00000722   -0.00000416   -0.01723263
     atom   10 type  1   force =     0.00000881    0.00000508   -0.01723600
     atom   11 type  2   force =     0.00000219    0.00000127   -0.00140353
     atom   12 type  2   force =    -0.00000211   -0.00000122   -0.00140252
     atom   13 type  1   force =    -0.00000785   -0.00000452   -0.01723363
     atom   14 type  1   force =     0.00000834    0.00000480   -0.01723168
     atom   15 type  2   force =     0.00000219    0.00000127   -0.00140337
     atom   16 type  2   force =    -0.00000212   -0.00000122   -0.00140450
     atom   17 type  1   force =    -0.00000841   -0.00000485   -0.01723319
     atom   18 type  1   force =     0.00000791    0.00000457   -0.01723509
     atom   19 type  2   force =     0.00000208    0.00000120   -0.00140362
     atom   20 type  2   force =    -0.00000203   -0.00000117   -0.00140251
     atom   21 type  1   force =    -0.00000840   -0.00000484   -0.01723394
     atom   22 type  1   force =     0.00000814    0.00000470   -0.01723132
     atom   23 type  2   force =     0.00000205    0.00000119   -0.00140333
     atom   24 type  2   force =    -0.00000213   -0.00000123   -0.00140451
     The Hubbard contrib.    to forces
     atom    1 type  1   force =     0.00000000    0.00000000    0.00000000
     atom    2 type  1   force =     0.00000000    0.00000000    0.00000000
     atom    3 type  2   force =     0.00000000    0.00000000    0.00000000
     atom    4 type  2   force =     0.00000000    0.00000000    0.00000000
     atom    5 type  1   force =     0.00000000    0.00000000    0.00000000
     atom    6 type  1   force =     0.00000000    0.00000000    0.00000000
     atom    7 type  2   force =     0.00000000    0.00000000    0.00000000
     atom    8 type  2   force =     0.00000000    0.00000000    0.00000000
     atom    9 type  1   force =     0.00000000    0.00000000    0.00000000
     atom   10 type  1   force =     0.00000000    0.00000000    0.00000000
     atom   11 type  2   force =     0.00000000    0.00000000    0.00000000
     atom   12 type  2   force =     0.00000000    0.00000000    0.00000000
     atom   13 type  1   force =     0.00000000    0.00000000    0.00000000
     atom   14 type  1   force =     0.00000000    0.00000000    0.00000000
     atom   15 type  2   force =     0.00000000    0.00000000    0.00000000
     atom   16 type  2   force =     0.00000000    0.00000000    0.00000000
     atom   17 type  1   force =     0.00000000    0.00000000    0.00000000
     atom   18 type  1   force =     0.00000000    0.00000000    0.00000000
     atom   19 type  2   force =     0.00000000    0.00000000    0.00000000
     atom   20 type  2   force =     0.00000000    0.00000000    0.00000000
     atom   21 type  1   force =     0.00000000    0.00000000    0.00000000
     atom   22 type  1   force =     0.00000000    0.00000000    0.00000000
     atom   23 type  2   force =     0.00000000    0.00000000    0.00000000
     atom   24 type  2   force =     0.00000000    0.00000000    0.00000000
     The SCF correction term to forces
     atom    1 type  1   force =    -0.00004226   -0.00002440   -0.00003164
     atom    2 type  1   force =    -0.00001409   -0.00000813    0.00009118
     atom    3 type  2   force =     0.00000375    0.00000216    0.00000479
     atom    4 type  2   force =    -0.00000598   -0.00000345   -0.00004077
     atom    5 type  1   force =     0.00001148    0.00000663    0.00001359
     atom    6 type  1   force =    -0.00000583   -0.00000337    0.00000577
     atom    7 type  2   force =     0.00000762    0.00000440    0.00002325
     atom    8 type  2   force =     0.00000750    0.00000433   -0.00000917
     atom    9 type  1   force =     0.00004221    0.00002437   -0.00001586
     atom   10 type  1   force =     0.00003289    0.00001899    0.00003218
     atom   11 type  2   force =    -0.00000783   -0.00000452   -0.00000253
     atom   12 type  2   force =     0.00000431    0.00000249   -0.00004210
     atom   13 type  1   force =     0.00000982    0.00000567    0.00003929
     atom   14 type  1   force =     0.00000984    0.00000568    0.00000153
     atom   15 type  2   force =     0.00000264    0.00000152    0.00002114
     atom   16 type  2   force =    -0.00000481   -0.00000278   -0.00000336
     atom   17 type  1   force =    -0.00001060   -0.00000612   -0.00004899
     atom   18 type  1   force =    -0.00000753   -0.00000435    0.00007309
     atom   19 type  2   force =     0.00000057    0.00000033   -0.00000512
     atom   20 type  2   force =     0.00000122    0.00000071   -0.00004947
     atom   21 type  1   force =    -0.00002953   -0.00001705    0.00002156
     atom   22 type  1   force =     0.00000680    0.00000393    0.00000329
     atom   23 type  2   force =    -0.00001101   -0.00000636    0.00002597
     atom   24 type  2   force =    -0.00000187   -0.00000108    0.00000025

     Total force =     0.171975     Total SCF correction =     0.000193

     init_run     :     13.06s CPU     13.67s WALL (       1 calls)
     electrons    :    573.40s CPU    602.30s WALL (       1 calls)
     forces       :      6.31s CPU      6.39s WALL (       1 calls)

     Called by init_run:
     wfcinit      :      7.27s CPU      7.79s WALL (       1 calls)
     wfcinit:atom :      0.07s CPU      0.07s WALL (       9 calls)
     wfcinit:wfcr :      6.87s CPU      7.37s WALL (       9 calls)
     potinit      :      1.97s CPU      2.00s WALL (       1 calls)
     hinit0       :      3.42s CPU      3.45s WALL (       1 calls)

     Called by electrons:
     c_bands      :    506.28s CPU    529.78s WALL (      26 calls)
     sum_band     :     58.67s CPU     63.60s WALL (      26 calls)
     v_of_rho     :      5.31s CPU      5.60s WALL (      27 calls)
     v_h          :      0.27s CPU      0.30s WALL (      27 calls)
     v_xc         :      5.22s CPU      5.49s WALL (      28 calls)
     newd         :      2.47s CPU      2.53s WALL (      27 calls)
     mix_rho      :      0.36s CPU      0.39s WALL (      26 calls)

     Called by c_bands:
     init_us_2    :      4.10s CPU      4.18s WALL (     486 calls)
     init_us_2:cp :      4.09s CPU      4.17s WALL (     486 calls)
     cegterg      :    426.51s CPU    449.49s WALL (     234 calls)

     Called by sum_band:
     sum_band:wei :      0.01s CPU      0.01s WALL (      26 calls)
     sum_band:loo :     54.62s CPU     59.31s WALL (      26 calls)
     sum_band:buf :      0.43s CPU      0.47s WALL (     234 calls)
     sum_band:ini :      1.25s CPU      1.27s WALL (     234 calls)
     sum_band:cal :     11.52s CPU     11.81s WALL (     234 calls)
     sum_band:bec :      0.20s CPU      0.21s WALL (     234 calls)
     addusdens    :      2.70s CPU      2.78s WALL (      26 calls)
                                        0.00s GPU  (      26 calls)
     addusd:skk   :      0.06s CPU      0.06s WALL (      52 calls)
                                        0.00s GPU  (      52 calls)

     Called by *egterg:
     cdiaghg      :     53.24s CPU     53.63s WALL (    1185 calls)
     cegterg:over :     25.81s CPU     26.42s WALL (     951 calls)
     cegterg:upda :     16.25s CPU     16.40s WALL (     951 calls)
     cegterg:last :     35.82s CPU     36.11s WALL (     544 calls)
     h_psi        :    258.07s CPU    279.56s WALL (    1194 calls)
     s_psi        :     32.20s CPU     32.45s WALL (    1194 calls)
     g_psi        :      0.67s CPU      0.68s WALL (     951 calls)

     Called by h_psi:
     h_psi:calbec :     31.81s CPU     32.64s WALL (    1194 calls)
     vloc_psi     :    192.75s CPU    213.12s WALL (    1194 calls)
     add_vuspsi   :     32.72s CPU     32.99s WALL (    1194 calls)

     General routines
     calbec       :     45.21s CPU     46.37s WALL (    1464 calls)
     fft          :      2.68s CPU      3.02s WALL (     360 calls)
     ffts         :      0.40s CPU      0.43s WALL (      53 calls)
     fftw         :    197.48s CPU    219.83s WALL (  164106 calls)
     interpolate  :      0.52s CPU      0.55s WALL (      27 calls)

     Parallel routines

     PWSCF        :   9m53.68s CPU  10m23.32s WALL


   This run was terminated on:   2:19:42   5Sep2025            

=------------------------------------------------------------------------------=
   JOB DONE.
=------------------------------------------------------------------------------=
Note: The following floating-point exceptions are signalling: IEEE_INVALID_FLAG
Note: The following floating-point exceptions are signalling: IEEE_INVALID_FLAG
Note: The following floating-point exceptions are signalling: IEEE_INVALID_FLAG
Note: The following floating-point exceptions are signalling: IEEE_INVALID_FLAG
Note: The following floating-point exceptions are signalling: IEEE_INVALID_FLAG
Note: The following floating-point exceptions are signalling: IEEE_INVALID_FLAG
Note: The following floating-point exceptions are signalling: IEEE_INVALID_FLAG
Note: The following floating-point exceptions are signalling: IEEE_INVALID_FLAG
