
     Program PWSCF v.7.2 starts on 30May2025 at 14:25:37 

     This program is part of the open-source Quantum ESPRESSO suite
     for quantum simulation of materials; please cite
         "P. Giannozzi et al., J. Phys.:Condens. Matter 21 395502 (2009);
         "P. Giannozzi et al., J. Phys.:Condens. Matter 29 465901 (2017);
         "P. Giannozzi et al., J. Chem. Phys. 152 154105 (2020);
          URL http://www.quantum-espresso.org", 
     in publications or presentations arising from this work. More details at
     http://www.quantum-espresso.org/quote

     Parallel version (MPI), running on    64 processors

     MPI processes distributed on     1 nodes
     126313 MiB available memory on the printing compute node when the environment starts

     Reading input from ecut_50.in

     Current dimensions of program PWSCF are:
     Max number of different atomic species (ntypx) = 10
     Max number of k-points (npk) =  40000
     Max angular momentum in pseudopotentials (lmaxx) =  4
     file Zn.upf: wavefunction(s)  3D renormalized

     K-points division:     npool     =       4
     R & G space division:  proc/nbgrp/npool/nimage =      16
     Subspace diagonalization in iterative solution of the eigenvalue problem:
     a serial algorithm will be used


     Parallelization info
     --------------------
     sticks:   dense  smooth     PW     G-vecs:    dense   smooth      PW
     Min          32      32     10                  984      984     168
     Max          33      33     11                  989      989     173
     Sum         517     517    163                15777    15777    2719

     Using Slab Decomposition



     bravais-lattice index     =            4
     lattice parameter (alat)  =       6.1946  a.u.
     unit-cell volume          =     332.3260 (a.u.)^3
     number of atoms/cell      =            4
     number of atomic types    =            2
     number of electrons       =        36.00
     number of Kohn-Sham states=           72
     kinetic-energy cutoff     =      50.0000  Ry
     charge density cutoff     =     200.0000  Ry
     scf convergence threshold =      1.0E-09
     mixing beta               =       0.1000
     number of iterations used =            8  local-TF  mixing
     Exchange-correlation= PBE
                           (   1   4   3   4   0   0   0)

     celldm(1)=   6.194571  celldm(2)=   0.000000  celldm(3)=   1.614358
     celldm(4)=   0.000000  celldm(5)=   0.000000  celldm(6)=   0.000000

     crystal axes: (cart. coord. in units of alat)
               a(1) = (   1.000000   0.000000   0.000000 )  
               a(2) = (  -0.500000   0.866025   0.000000 )  
               a(3) = (   0.000000   0.000000   1.614358 )  

     reciprocal axes: (cart. coord. in units 2 pi/alat)
               b(1) = (  1.000000  0.577350 -0.000000 )  
               b(2) = (  0.000000  1.154701  0.000000 )  
               b(3) = (  0.000000 -0.000000  0.619441 )  


     PseudoPot. # 1 for Zn read from file:
     ../pseudos/Zn.upf
     MD5 check sum: 7f56cabf9682ed8c977c2f7d0c5985c5
     Pseudo is Ultrasoft + core correction, Zval = 12.0
     Generated using &quot;atomic&quot; code by A. Dal Corso  v.6.2.2
     Using radial grid of 1201 points,  6 beta functions with: 
                l(1) =   0
                l(2) =   0
                l(3) =   1
                l(4) =   1
                l(5) =   2
                l(6) =   2
     Q(r) pseudized with 0 coefficients 


     PseudoPot. # 2 for O  read from file:
     ../pseudos/O.upf
     MD5 check sum: 91400c9766925bcf19f520983a725ff0
     Pseudo is Ultrasoft + core correction, Zval =  6.0
     Generated using &quot;atomic&quot; code by A. Dal Corso  v.6.3MaX
     Using radial grid of 1095 points,  4 beta functions with: 
                l(1) =   0
                l(2) =   0
                l(3) =   1
                l(4) =   1
     Q(r) pseudized with 0 coefficients 


     atomic species   valence    mass     pseudopotential
        Zn            12.00    63.38000     Zn( 1.00)
        O              6.00    15.99900     O ( 1.00)

     12 Sym. Ops. (no inversion) found ( 6 have fractional translation)


                                    s                        frac. trans.

      isym =  1     identity                                     

 cryst.   s( 1) = (     1          0          0      )
                  (     0          1          0      )
                  (     0          0          1      )

 cart.    s( 1) = (  1.0000000  0.0000000  0.0000000 )
                  (  0.0000000  1.0000000  0.0000000 )
                  (  0.0000000  0.0000000  1.0000000 )


      isym =  2     180 deg rotation - cart. axis [0,0,1]        

 cryst.   s( 2) = (    -1          0          0      )    f =(  0.0000000 )
                  (     0         -1          0      )       (  0.0000000 )
                  (     0          0          1      )       (  0.5000000 )

 cart.    s( 2) = ( -1.0000000  0.0000000  0.0000000 )    f =(  0.0000000 )
                  (  0.0000000 -1.0000000  0.0000000 )       (  0.0000000 )
                  (  0.0000000  0.0000000  1.0000000 )       (  0.8071792 )


      isym =  3      60 deg rotation - cryst. axis [0,0,1]       

 cryst.   s( 3) = (     1          1          0      )    f =( -0.0000000 )
                  (    -1          0          0      )       (  0.0000000 )
                  (     0          0          1      )       (  0.5000000 )

 cart.    s( 3) = (  0.5000000 -0.8660254  0.0000000 )    f =( -0.0000000 )
                  (  0.8660254  0.5000000  0.0000000 )       (  0.0000000 )
                  (  0.0000000  0.0000000  1.0000000 )       (  0.8071792 )


      isym =  4      60 deg rotation - cryst. axis [0,0,-1]      

 cryst.   s( 4) = (     0         -1          0      )    f =(  0.0000000 )
                  (     1          1          0      )       (  0.0000000 )
                  (     0          0          1      )       (  0.5000000 )

 cart.    s( 4) = (  0.5000000  0.8660254  0.0000000 )    f =( -0.0000000 )
                  ( -0.8660254  0.5000000  0.0000000 )       (  0.0000000 )
                  (  0.0000000  0.0000000  1.0000000 )       (  0.8071792 )


      isym =  5     120 deg rotation - cryst. axis [0,0,1]       

 cryst.   s( 5) = (     0          1          0      )
                  (    -1         -1          0      )
                  (     0          0          1      )

 cart.    s( 5) = ( -0.5000000 -0.8660254  0.0000000 )
                  (  0.8660254 -0.5000000  0.0000000 )
                  (  0.0000000  0.0000000  1.0000000 )


      isym =  6     120 deg rotation - cryst. axis [0,0,-1]      

 cryst.   s( 6) = (    -1         -1          0      )
                  (     1          0          0      )
                  (     0          0          1      )

 cart.    s( 6) = ( -0.5000000  0.8660254  0.0000000 )
                  ( -0.8660254 -0.5000000  0.0000000 )
                  (  0.0000000  0.0000000  1.0000000 )


      isym =  7     inv. 180 deg rotation - cart. axis [0,1,0]   

 cryst.   s( 7) = (     1          0          0      )    f =( -0.0000000 )
                  (    -1         -1          0      )       (  0.0000000 )
                  (     0          0          1      )       (  0.5000000 )

 cart.    s( 7) = (  1.0000000  0.0000000  0.0000000 )    f =( -0.0000000 )
                  (  0.0000000 -1.0000000  0.0000000 )       (  0.0000000 )
                  (  0.0000000  0.0000000  1.0000000 )       (  0.8071792 )


      isym =  8     inv. 180 deg rotation - cart. axis [1,0,0]   

 cryst.   s( 8) = (    -1          0          0      )
                  (     1          1          0      )
                  (     0          0          1      )

 cart.    s( 8) = ( -1.0000000  0.0000000  0.0000000 )
                  (  0.0000000  1.0000000  0.0000000 )
                  (  0.0000000  0.0000000  1.0000000 )


      isym =  9     inv. 180 deg rotation - cryst. axis [1,-1,0] 

 cryst.   s( 9) = (     0          1          0      )    f =(  0.0000000 )
                  (     1          0          0      )       (  0.0000000 )
                  (     0          0          1      )       (  0.5000000 )

 cart.    s( 9) = ( -0.5000000  0.8660254  0.0000000 )    f =(  0.0000000 )
                  (  0.8660254  0.5000000  0.0000000 )       (  0.0000000 )
                  (  0.0000000  0.0000000  1.0000000 )       (  0.8071792 )


      isym = 10     inv. 180 deg rotation - cryst. axis [2,1,0]  

 cryst.   s(10) = (    -1         -1          0      )    f =(  0.0000000 )
                  (     0          1          0      )       (  0.0000000 )
                  (     0          0          1      )       (  0.5000000 )

 cart.    s(10) = ( -0.5000000 -0.8660254  0.0000000 )    f =( -0.0000000 )
                  ( -0.8660254  0.5000000  0.0000000 )       (  0.0000000 )
                  (  0.0000000  0.0000000  1.0000000 )       (  0.8071792 )


      isym = 11     inv. 180 deg rotation - cryst. axis [0,1,0]  

 cryst.   s(11) = (     1          1          0      )
                  (     0         -1          0      )
                  (     0          0          1      )

 cart.    s(11) = (  0.5000000  0.8660254  0.0000000 )
                  (  0.8660254 -0.5000000  0.0000000 )
                  (  0.0000000  0.0000000  1.0000000 )


      isym = 12     inv. 180 deg rotation - cryst. axis [1,1,0]  

 cryst.   s(12) = (     0         -1          0      )
                  (    -1          0          0      )
                  (     0          0          1      )

 cart.    s(12) = (  0.5000000 -0.8660254  0.0000000 )
                  ( -0.8660254 -0.5000000  0.0000000 )
                  (  0.0000000  0.0000000  1.0000000 )


     point group C_6v (6mm) 
     there are  6 classes
     the character table:

       E     2C6   2C3   C2    3s_v  3s_d 
A_1    1.00  1.00  1.00  1.00  1.00  1.00
A_2    1.00  1.00  1.00  1.00 -1.00 -1.00
B_1    1.00 -1.00  1.00 -1.00  1.00 -1.00
B_2    1.00 -1.00  1.00 -1.00 -1.00  1.00
E_1    2.00  1.00 -1.00 -2.00  0.00  0.00
E_2    2.00 -1.00 -1.00  2.00  0.00  0.00

     the symmetry operations in each class and the name of the first element:

     E        1
          identity                                               
     2C6      3    4
           60 deg rotation - cryst. axis [0,0,1]                 
     2C3      5    6
          120 deg rotation - cryst. axis [0,0,1]                 
     C2       2
          180 deg rotation - cart. axis [0,0,1]                  
     3s_v     8   12   11
          inv. 180 deg rotation - cart. axis [1,0,0]             
     3s_d     7    9   10
          inv. 180 deg rotation - cart. axis [0,1,0]             

   Cartesian axes

     site n.     atom                  positions (alat units)
         1           Zn  tau(   1) = (   0.5000000   0.2886751   0.8082166  )
         2           Zn  tau(   2) = (  -0.0000000   0.5773503   0.0010374  )
         3           O   tau(   3) = (   0.5000000   0.2886751   1.4200984  )
         4           O   tau(   4) = (  -0.0000000   0.5773503   0.6129192  )

   Crystallographic axes

     site n.     atom                  positions (cryst. coord.)
         1           Zn  tau(   1) = (  0.6666667  0.3333333  0.5006426  )
         2           Zn  tau(   2) = (  0.3333333  0.6666667  0.0006426  )
         3           O   tau(   3) = (  0.6666667  0.3333333  0.8796674  )
         4           O   tau(   4) = (  0.3333333  0.6666667  0.3796674  )

     number of k points=   133
                       cart. coord. in units 2pi/alat
        k(    1) = (   0.0000000   0.0000000   0.0000000), wk =   0.0011574
        k(    2) = (   0.0000000   0.0000000   0.0516201), wk =   0.0023148
        k(    3) = (   0.0000000   0.0000000   0.1032402), wk =   0.0023148
        k(    4) = (   0.0000000   0.0000000   0.1548603), wk =   0.0023148
        k(    5) = (   0.0000000   0.0000000   0.2064804), wk =   0.0023148
        k(    6) = (   0.0000000   0.0000000   0.2581005), wk =   0.0023148
        k(    7) = (   0.0000000   0.0000000  -0.3097206), wk =   0.0011574
        k(    8) = (   0.0000000   0.0962250   0.0000000), wk =   0.0069444
        k(    9) = (   0.0000000   0.0962250   0.0516201), wk =   0.0138889
        k(   10) = (   0.0000000   0.0962250   0.1032402), wk =   0.0138889
        k(   11) = (   0.0000000   0.0962250   0.1548603), wk =   0.0138889
        k(   12) = (   0.0000000   0.0962250   0.2064804), wk =   0.0138889
        k(   13) = (   0.0000000   0.0962250   0.2581005), wk =   0.0138889
        k(   14) = (   0.0000000   0.0962250  -0.3097206), wk =   0.0069444
        k(   15) = (   0.0000000   0.1924501   0.0000000), wk =   0.0069444
        k(   16) = (   0.0000000   0.1924501   0.0516201), wk =   0.0138889
        k(   17) = (   0.0000000   0.1924501   0.1032402), wk =   0.0138889
        k(   18) = (   0.0000000   0.1924501   0.1548603), wk =   0.0138889
        k(   19) = (   0.0000000   0.1924501   0.2064804), wk =   0.0138889
        k(   20) = (   0.0000000   0.1924501   0.2581005), wk =   0.0138889
        k(   21) = (   0.0000000   0.1924501  -0.3097206), wk =   0.0069444
        k(   22) = (   0.0000000   0.2886751   0.0000000), wk =   0.0069444
        k(   23) = (   0.0000000   0.2886751   0.0516201), wk =   0.0138889
        k(   24) = (   0.0000000   0.2886751   0.1032402), wk =   0.0138889
        k(   25) = (   0.0000000   0.2886751   0.1548603), wk =   0.0138889
        k(   26) = (   0.0000000   0.2886751   0.2064804), wk =   0.0138889
        k(   27) = (   0.0000000   0.2886751   0.2581005), wk =   0.0138889
        k(   28) = (   0.0000000   0.2886751  -0.3097206), wk =   0.0069444
        k(   29) = (   0.0000000   0.3849002   0.0000000), wk =   0.0069444
        k(   30) = (   0.0000000   0.3849002   0.0516201), wk =   0.0138889
        k(   31) = (   0.0000000   0.3849002   0.1032402), wk =   0.0138889
        k(   32) = (   0.0000000   0.3849002   0.1548603), wk =   0.0138889
        k(   33) = (   0.0000000   0.3849002   0.2064804), wk =   0.0138889
        k(   34) = (   0.0000000   0.3849002   0.2581005), wk =   0.0138889
        k(   35) = (   0.0000000   0.3849002  -0.3097206), wk =   0.0069444
        k(   36) = (   0.0000000   0.4811252   0.0000000), wk =   0.0069444
        k(   37) = (   0.0000000   0.4811252   0.0516201), wk =   0.0138889
        k(   38) = (   0.0000000   0.4811252   0.1032402), wk =   0.0138889
        k(   39) = (   0.0000000   0.4811252   0.1548603), wk =   0.0138889
        k(   40) = (   0.0000000   0.4811252   0.2064804), wk =   0.0138889
        k(   41) = (   0.0000000   0.4811252   0.2581005), wk =   0.0138889
        k(   42) = (   0.0000000   0.4811252  -0.3097206), wk =   0.0069444
        k(   43) = (   0.0000000  -0.5773503   0.0000000), wk =   0.0034722
        k(   44) = (   0.0000000  -0.5773503   0.0516201), wk =   0.0069444
        k(   45) = (   0.0000000  -0.5773503   0.1032402), wk =   0.0069444
        k(   46) = (   0.0000000  -0.5773503   0.1548603), wk =   0.0069444
        k(   47) = (   0.0000000  -0.5773503   0.2064804), wk =   0.0069444
        k(   48) = (   0.0000000  -0.5773503   0.2581005), wk =   0.0069444
        k(   49) = (   0.0000000  -0.5773503  -0.3097206), wk =   0.0034722
        k(   50) = (   0.0833333   0.1443376   0.0000000), wk =   0.0069444
        k(   51) = (   0.0833333   0.1443376   0.0516201), wk =   0.0138889
        k(   52) = (   0.0833333   0.1443376   0.1032402), wk =   0.0138889
        k(   53) = (   0.0833333   0.1443376   0.1548603), wk =   0.0138889
        k(   54) = (   0.0833333   0.1443376   0.2064804), wk =   0.0138889
        k(   55) = (   0.0833333   0.1443376   0.2581005), wk =   0.0138889
        k(   56) = (   0.0833333   0.1443376  -0.3097206), wk =   0.0069444
        k(   57) = (   0.0833333   0.2405626   0.0000000), wk =   0.0138889
        k(   58) = (   0.0833333   0.2405626   0.0516201), wk =   0.0277778
        k(   59) = (   0.0833333   0.2405626   0.1032402), wk =   0.0277778
        k(   60) = (   0.0833333   0.2405626   0.1548603), wk =   0.0277778
        k(   61) = (   0.0833333   0.2405626   0.2064804), wk =   0.0277778
        k(   62) = (   0.0833333   0.2405626   0.2581005), wk =   0.0277778
        k(   63) = (   0.0833333   0.2405626  -0.3097206), wk =   0.0138889
        k(   64) = (   0.0833333   0.3367877   0.0000000), wk =   0.0138889
        k(   65) = (   0.0833333   0.3367877   0.0516201), wk =   0.0277778
        k(   66) = (   0.0833333   0.3367877   0.1032402), wk =   0.0277778
        k(   67) = (   0.0833333   0.3367877   0.1548603), wk =   0.0277778
        k(   68) = (   0.0833333   0.3367877   0.2064804), wk =   0.0277778
        k(   69) = (   0.0833333   0.3367877   0.2581005), wk =   0.0277778
        k(   70) = (   0.0833333   0.3367877  -0.3097206), wk =   0.0138889
        k(   71) = (   0.0833333   0.4330127   0.0000000), wk =   0.0138889
        k(   72) = (   0.0833333   0.4330127   0.0516201), wk =   0.0277778
        k(   73) = (   0.0833333   0.4330127   0.1032402), wk =   0.0277778
        k(   74) = (   0.0833333   0.4330127   0.1548603), wk =   0.0277778
        k(   75) = (   0.0833333   0.4330127   0.2064804), wk =   0.0277778
        k(   76) = (   0.0833333   0.4330127   0.2581005), wk =   0.0277778
        k(   77) = (   0.0833333   0.4330127  -0.3097206), wk =   0.0138889
        k(   78) = (   0.0833333   0.5292377   0.0000000), wk =   0.0138889
        k(   79) = (   0.0833333   0.5292377   0.0516201), wk =   0.0277778
        k(   80) = (   0.0833333   0.5292377   0.1032402), wk =   0.0277778
        k(   81) = (   0.0833333   0.5292377   0.1548603), wk =   0.0277778
        k(   82) = (   0.0833333   0.5292377   0.2064804), wk =   0.0277778
        k(   83) = (   0.0833333   0.5292377   0.2581005), wk =   0.0277778
        k(   84) = (   0.0833333   0.5292377  -0.3097206), wk =   0.0138889
        k(   85) = (   0.1666667   0.2886751   0.0000000), wk =   0.0069444
        k(   86) = (   0.1666667   0.2886751   0.0516201), wk =   0.0138889
        k(   87) = (   0.1666667   0.2886751   0.1032402), wk =   0.0138889
        k(   88) = (   0.1666667   0.2886751   0.1548603), wk =   0.0138889
        k(   89) = (   0.1666667   0.2886751   0.2064804), wk =   0.0138889
        k(   90) = (   0.1666667   0.2886751   0.2581005), wk =   0.0138889
        k(   91) = (   0.1666667   0.2886751  -0.3097206), wk =   0.0069444
        k(   92) = (   0.1666667   0.3849002   0.0000000), wk =   0.0138889
        k(   93) = (   0.1666667   0.3849002   0.0516201), wk =   0.0277778
        k(   94) = (   0.1666667   0.3849002   0.1032402), wk =   0.0277778
        k(   95) = (   0.1666667   0.3849002   0.1548603), wk =   0.0277778
        k(   96) = (   0.1666667   0.3849002   0.2064804), wk =   0.0277778
        k(   97) = (   0.1666667   0.3849002   0.2581005), wk =   0.0277778
        k(   98) = (   0.1666667   0.3849002  -0.3097206), wk =   0.0138889
        k(   99) = (   0.1666667   0.4811252   0.0000000), wk =   0.0138889
        k(  100) = (   0.1666667   0.4811252   0.0516201), wk =   0.0277778
        k(  101) = (   0.1666667   0.4811252   0.1032402), wk =   0.0277778
        k(  102) = (   0.1666667   0.4811252   0.1548603), wk =   0.0277778
        k(  103) = (   0.1666667   0.4811252   0.2064804), wk =   0.0277778
        k(  104) = (   0.1666667   0.4811252   0.2581005), wk =   0.0277778
        k(  105) = (   0.1666667   0.4811252  -0.3097206), wk =   0.0138889
        k(  106) = (   0.1666667   0.5773503   0.0000000), wk =   0.0069444
        k(  107) = (   0.1666667   0.5773503   0.0516201), wk =   0.0138889
        k(  108) = (   0.1666667   0.5773503   0.1032402), wk =   0.0138889
        k(  109) = (   0.1666667   0.5773503   0.1548603), wk =   0.0138889
        k(  110) = (   0.1666667   0.5773503   0.2064804), wk =   0.0138889
        k(  111) = (   0.1666667   0.5773503   0.2581005), wk =   0.0138889
        k(  112) = (   0.1666667   0.5773503  -0.3097206), wk =   0.0069444
        k(  113) = (   0.2500000   0.4330127   0.0000000), wk =   0.0069444
        k(  114) = (   0.2500000   0.4330127   0.0516201), wk =   0.0138889
        k(  115) = (   0.2500000   0.4330127   0.1032402), wk =   0.0138889
        k(  116) = (   0.2500000   0.4330127   0.1548603), wk =   0.0138889
        k(  117) = (   0.2500000   0.4330127   0.2064804), wk =   0.0138889
        k(  118) = (   0.2500000   0.4330127   0.2581005), wk =   0.0138889
        k(  119) = (   0.2500000   0.4330127  -0.3097206), wk =   0.0069444
        k(  120) = (   0.2500000   0.5292377   0.0000000), wk =   0.0138889
        k(  121) = (   0.2500000   0.5292377   0.0516201), wk =   0.0277778
        k(  122) = (   0.2500000   0.5292377   0.1032402), wk =   0.0277778
        k(  123) = (   0.2500000   0.5292377   0.1548603), wk =   0.0277778
        k(  124) = (   0.2500000   0.5292377   0.2064804), wk =   0.0277778
        k(  125) = (   0.2500000   0.5292377   0.2581005), wk =   0.0277778
        k(  126) = (   0.2500000   0.5292377  -0.3097206), wk =   0.0138889
        k(  127) = (   0.3333333   0.5773503   0.0000000), wk =   0.0023148
        k(  128) = (   0.3333333   0.5773503   0.0516201), wk =   0.0046296
        k(  129) = (   0.3333333   0.5773503   0.1032402), wk =   0.0046296
        k(  130) = (   0.3333333   0.5773503   0.1548603), wk =   0.0046296
        k(  131) = (   0.3333333   0.5773503   0.2064804), wk =   0.0046296
        k(  132) = (   0.3333333   0.5773503   0.2581005), wk =   0.0046296
        k(  133) = (   0.3333333   0.5773503  -0.3097206), wk =   0.0023148

                       cryst. coord.
        k(    1) = (   0.0000000   0.0000000   0.0000000), wk =   0.0011574
        k(    2) = (   0.0000000   0.0000000   0.0833333), wk =   0.0023148
        k(    3) = (   0.0000000   0.0000000   0.1666667), wk =   0.0023148
        k(    4) = (   0.0000000   0.0000000   0.2500000), wk =   0.0023148
        k(    5) = (   0.0000000   0.0000000   0.3333333), wk =   0.0023148
        k(    6) = (   0.0000000   0.0000000   0.4166667), wk =   0.0023148
        k(    7) = (   0.0000000   0.0000000  -0.5000000), wk =   0.0011574
        k(    8) = (   0.0000000   0.0833333   0.0000000), wk =   0.0069444
        k(    9) = (   0.0000000   0.0833333   0.0833333), wk =   0.0138889
        k(   10) = (   0.0000000   0.0833333   0.1666667), wk =   0.0138889
        k(   11) = (   0.0000000   0.0833333   0.2500000), wk =   0.0138889
        k(   12) = (   0.0000000   0.0833333   0.3333333), wk =   0.0138889
        k(   13) = (   0.0000000   0.0833333   0.4166667), wk =   0.0138889
        k(   14) = (   0.0000000   0.0833333  -0.5000000), wk =   0.0069444
        k(   15) = (   0.0000000   0.1666667   0.0000000), wk =   0.0069444
        k(   16) = (   0.0000000   0.1666667   0.0833333), wk =   0.0138889
        k(   17) = (   0.0000000   0.1666667   0.1666667), wk =   0.0138889
        k(   18) = (   0.0000000   0.1666667   0.2500000), wk =   0.0138889
        k(   19) = (   0.0000000   0.1666667   0.3333333), wk =   0.0138889
        k(   20) = (   0.0000000   0.1666667   0.4166667), wk =   0.0138889
        k(   21) = (   0.0000000   0.1666667  -0.5000000), wk =   0.0069444
        k(   22) = (   0.0000000   0.2500000   0.0000000), wk =   0.0069444
        k(   23) = (   0.0000000   0.2500000   0.0833333), wk =   0.0138889
        k(   24) = (   0.0000000   0.2500000   0.1666667), wk =   0.0138889
        k(   25) = (   0.0000000   0.2500000   0.2500000), wk =   0.0138889
        k(   26) = (   0.0000000   0.2500000   0.3333333), wk =   0.0138889
        k(   27) = (   0.0000000   0.2500000   0.4166667), wk =   0.0138889
        k(   28) = (   0.0000000   0.2500000  -0.5000000), wk =   0.0069444
        k(   29) = (   0.0000000   0.3333333   0.0000000), wk =   0.0069444
        k(   30) = (   0.0000000   0.3333333   0.0833333), wk =   0.0138889
        k(   31) = (   0.0000000   0.3333333   0.1666667), wk =   0.0138889
        k(   32) = (   0.0000000   0.3333333   0.2500000), wk =   0.0138889
        k(   33) = (   0.0000000   0.3333333   0.3333333), wk =   0.0138889
        k(   34) = (   0.0000000   0.3333333   0.4166667), wk =   0.0138889
        k(   35) = (   0.0000000   0.3333333  -0.5000000), wk =   0.0069444
        k(   36) = (   0.0000000   0.4166667   0.0000000), wk =   0.0069444
        k(   37) = (   0.0000000   0.4166667   0.0833333), wk =   0.0138889
        k(   38) = (   0.0000000   0.4166667   0.1666667), wk =   0.0138889
        k(   39) = (   0.0000000   0.4166667   0.2500000), wk =   0.0138889
        k(   40) = (   0.0000000   0.4166667   0.3333333), wk =   0.0138889
        k(   41) = (   0.0000000   0.4166667   0.4166667), wk =   0.0138889
        k(   42) = (   0.0000000   0.4166667  -0.5000000), wk =   0.0069444
        k(   43) = (   0.0000000  -0.5000000   0.0000000), wk =   0.0034722
        k(   44) = (   0.0000000  -0.5000000   0.0833333), wk =   0.0069444
        k(   45) = (   0.0000000  -0.5000000   0.1666667), wk =   0.0069444
        k(   46) = (   0.0000000  -0.5000000   0.2500000), wk =   0.0069444
        k(   47) = (   0.0000000  -0.5000000   0.3333333), wk =   0.0069444
        k(   48) = (   0.0000000  -0.5000000   0.4166667), wk =   0.0069444
        k(   49) = (   0.0000000  -0.5000000  -0.5000000), wk =   0.0034722
        k(   50) = (   0.0833333   0.0833333   0.0000000), wk =   0.0069444
        k(   51) = (   0.0833333   0.0833333   0.0833333), wk =   0.0138889
        k(   52) = (   0.0833333   0.0833333   0.1666667), wk =   0.0138889
        k(   53) = (   0.0833333   0.0833333   0.2500000), wk =   0.0138889
        k(   54) = (   0.0833333   0.0833333   0.3333333), wk =   0.0138889
        k(   55) = (   0.0833333   0.0833333   0.4166667), wk =   0.0138889
        k(   56) = (   0.0833333   0.0833333  -0.5000000), wk =   0.0069444
        k(   57) = (   0.0833333   0.1666667   0.0000000), wk =   0.0138889
        k(   58) = (   0.0833333   0.1666667   0.0833333), wk =   0.0277778
        k(   59) = (   0.0833333   0.1666667   0.1666667), wk =   0.0277778
        k(   60) = (   0.0833333   0.1666667   0.2500000), wk =   0.0277778
        k(   61) = (   0.0833333   0.1666667   0.3333333), wk =   0.0277778
        k(   62) = (   0.0833333   0.1666667   0.4166667), wk =   0.0277778
        k(   63) = (   0.0833333   0.1666667  -0.5000000), wk =   0.0138889
        k(   64) = (   0.0833333   0.2500000   0.0000000), wk =   0.0138889
        k(   65) = (   0.0833333   0.2500000   0.0833333), wk =   0.0277778
        k(   66) = (   0.0833333   0.2500000   0.1666667), wk =   0.0277778
        k(   67) = (   0.0833333   0.2500000   0.2500000), wk =   0.0277778
        k(   68) = (   0.0833333   0.2500000   0.3333333), wk =   0.0277778
        k(   69) = (   0.0833333   0.2500000   0.4166667), wk =   0.0277778
        k(   70) = (   0.0833333   0.2500000  -0.5000000), wk =   0.0138889
        k(   71) = (   0.0833333   0.3333333   0.0000000), wk =   0.0138889
        k(   72) = (   0.0833333   0.3333333   0.0833333), wk =   0.0277778
        k(   73) = (   0.0833333   0.3333333   0.1666667), wk =   0.0277778
        k(   74) = (   0.0833333   0.3333333   0.2500000), wk =   0.0277778
        k(   75) = (   0.0833333   0.3333333   0.3333333), wk =   0.0277778
        k(   76) = (   0.0833333   0.3333333   0.4166667), wk =   0.0277778
        k(   77) = (   0.0833333   0.3333333  -0.5000000), wk =   0.0138889
        k(   78) = (   0.0833333   0.4166667   0.0000000), wk =   0.0138889
        k(   79) = (   0.0833333   0.4166667   0.0833333), wk =   0.0277778
        k(   80) = (   0.0833333   0.4166667   0.1666667), wk =   0.0277778
        k(   81) = (   0.0833333   0.4166667   0.2500000), wk =   0.0277778
        k(   82) = (   0.0833333   0.4166667   0.3333333), wk =   0.0277778
        k(   83) = (   0.0833333   0.4166667   0.4166667), wk =   0.0277778
        k(   84) = (   0.0833333   0.4166667  -0.5000000), wk =   0.0138889
        k(   85) = (   0.1666667   0.1666667   0.0000000), wk =   0.0069444
        k(   86) = (   0.1666667   0.1666667   0.0833333), wk =   0.0138889
        k(   87) = (   0.1666667   0.1666667   0.1666667), wk =   0.0138889
        k(   88) = (   0.1666667   0.1666667   0.2500000), wk =   0.0138889
        k(   89) = (   0.1666667   0.1666667   0.3333333), wk =   0.0138889
        k(   90) = (   0.1666667   0.1666667   0.4166667), wk =   0.0138889
        k(   91) = (   0.1666667   0.1666667  -0.5000000), wk =   0.0069444
        k(   92) = (   0.1666667   0.2500000   0.0000000), wk =   0.0138889
        k(   93) = (   0.1666667   0.2500000   0.0833333), wk =   0.0277778
        k(   94) = (   0.1666667   0.2500000   0.1666667), wk =   0.0277778
        k(   95) = (   0.1666667   0.2500000   0.2500000), wk =   0.0277778
        k(   96) = (   0.1666667   0.2500000   0.3333333), wk =   0.0277778
        k(   97) = (   0.1666667   0.2500000   0.4166667), wk =   0.0277778
        k(   98) = (   0.1666667   0.2500000  -0.5000000), wk =   0.0138889
        k(   99) = (   0.1666667   0.3333333   0.0000000), wk =   0.0138889
        k(  100) = (   0.1666667   0.3333333   0.0833333), wk =   0.0277778
        k(  101) = (   0.1666667   0.3333333   0.1666667), wk =   0.0277778
        k(  102) = (   0.1666667   0.3333333   0.2500000), wk =   0.0277778
        k(  103) = (   0.1666667   0.3333333   0.3333333), wk =   0.0277778
        k(  104) = (   0.1666667   0.3333333   0.4166667), wk =   0.0277778
        k(  105) = (   0.1666667   0.3333333  -0.5000000), wk =   0.0138889
        k(  106) = (   0.1666667   0.4166667   0.0000000), wk =   0.0069444
        k(  107) = (   0.1666667   0.4166667   0.0833333), wk =   0.0138889
        k(  108) = (   0.1666667   0.4166667   0.1666667), wk =   0.0138889
        k(  109) = (   0.1666667   0.4166667   0.2500000), wk =   0.0138889
        k(  110) = (   0.1666667   0.4166667   0.3333333), wk =   0.0138889
        k(  111) = (   0.1666667   0.4166667   0.4166667), wk =   0.0138889
        k(  112) = (   0.1666667   0.4166667  -0.5000000), wk =   0.0069444
        k(  113) = (   0.2500000   0.2500000   0.0000000), wk =   0.0069444
        k(  114) = (   0.2500000   0.2500000   0.0833333), wk =   0.0138889
        k(  115) = (   0.2500000   0.2500000   0.1666667), wk =   0.0138889
        k(  116) = (   0.2500000   0.2500000   0.2500000), wk =   0.0138889
        k(  117) = (   0.2500000   0.2500000   0.3333333), wk =   0.0138889
        k(  118) = (   0.2500000   0.2500000   0.4166667), wk =   0.0138889
        k(  119) = (   0.2500000   0.2500000  -0.5000000), wk =   0.0069444
        k(  120) = (   0.2500000   0.3333333   0.0000000), wk =   0.0138889
        k(  121) = (   0.2500000   0.3333333   0.0833333), wk =   0.0277778
        k(  122) = (   0.2500000   0.3333333   0.1666667), wk =   0.0277778
        k(  123) = (   0.2500000   0.3333333   0.2500000), wk =   0.0277778
        k(  124) = (   0.2500000   0.3333333   0.3333333), wk =   0.0277778
        k(  125) = (   0.2500000   0.3333333   0.4166667), wk =   0.0277778
        k(  126) = (   0.2500000   0.3333333  -0.5000000), wk =   0.0138889
        k(  127) = (   0.3333333   0.3333333   0.0000000), wk =   0.0023148
        k(  128) = (   0.3333333   0.3333333   0.0833333), wk =   0.0046296
        k(  129) = (   0.3333333   0.3333333   0.1666667), wk =   0.0046296
        k(  130) = (   0.3333333   0.3333333   0.2500000), wk =   0.0046296
        k(  131) = (   0.3333333   0.3333333   0.3333333), wk =   0.0046296
        k(  132) = (   0.3333333   0.3333333   0.4166667), wk =   0.0046296
        k(  133) = (   0.3333333   0.3333333  -0.5000000), wk =   0.0023148

     Dense  grid:    15777 G-vectors     FFT dimensions: (  27,  27,  48)

     Dynamical RAM for                 wfc:       0.14 MB

     Dynamical RAM for     wfc (w. buffer):       4.77 MB

     Dynamical RAM for           str. fact:       0.03 MB

     Dynamical RAM for           local pot:       0.00 MB

     Dynamical RAM for          nlocal pot:       0.10 MB

     Dynamical RAM for                qrad:       2.27 MB

     Dynamical RAM for          rho,v,vnew:       0.10 MB

     Dynamical RAM for               rhoin:       0.03 MB

     Dynamical RAM for            rho*nmix:       0.24 MB

     Dynamical RAM for           G-vectors:       0.06 MB

     Dynamical RAM for          h,s,v(r/c):       0.95 MB

     Dynamical RAM for          <psi|beta>:       0.06 MB

     Dynamical RAM for                 psi:       0.27 MB

     Dynamical RAM for                hpsi:       0.27 MB

     Dynamical RAM for                spsi:       0.27 MB

     Dynamical RAM for      wfcinit/wfcrot:       0.39 MB

     Dynamical RAM for           addusdens:       0.72 MB

     Dynamical RAM for          addusforce:       0.73 MB

     Dynamical RAM for         addusstress:       0.76 MB

     Estimated static dynamical RAM per process >       7.49 MB

     Estimated max dynamical RAM per process >       9.55 MB

     Estimated total dynamical RAM >     599.83 MB

     Check: negative core charge=   -0.000018

     Initial potential from superposition of free atoms

     starting charge      35.9925, renormalised to      36.0000
     Starting wfcs are   26 randomized atomic wfcs +   46 random wfcs

     total cpu time spent up to now is      110.6 secs

     Self-consistent Calculation

     iteration #  1     ecut=    50.00 Ry     beta= 0.10
     Davidson diagonalization with overlap

---- Real-time Memory Report at c_bands before calling an iterative solver
            47 MiB given to the printing process from OS
             0 MiB allocation reported by mallinfo(arena+hblkhd)
        125185 MiB available memory on the node where the printing process lives
------------------
     ethr =  1.00E-02,  avg # of iterations =  6.9

     total cpu time spent up to now is      965.5 secs

     total energy              =    -361.77738721 Ry
     estimated scf accuracy    <       0.73044594 Ry

     iteration #  2     ecut=    50.00 Ry     beta= 0.10
     Davidson diagonalization with overlap

---- Real-time Memory Report at c_bands before calling an iterative solver
            51 MiB given to the printing process from OS
             0 MiB allocation reported by mallinfo(arena+hblkhd)
        125121 MiB available memory on the node where the printing process lives
------------------
     ethr =  2.03E-03,  avg # of iterations =  1.0

     total cpu time spent up to now is     1235.5 secs

     total energy              =    -361.53877076 Ry
     estimated scf accuracy    <       0.54915200 Ry

     iteration #  3     ecut=    50.00 Ry     beta= 0.10
     Davidson diagonalization with overlap

---- Real-time Memory Report at c_bands before calling an iterative solver
            51 MiB given to the printing process from OS
             0 MiB allocation reported by mallinfo(arena+hblkhd)
        125119 MiB available memory on the node where the printing process lives
------------------
     ethr =  1.53E-03,  avg # of iterations =  1.0

     total cpu time spent up to now is     1502.0 secs

     total energy              =    -361.63705154 Ry
     estimated scf accuracy    <       0.02113098 Ry

     iteration #  4     ecut=    50.00 Ry     beta= 0.10
     Davidson diagonalization with overlap

---- Real-time Memory Report at c_bands before calling an iterative solver
            51 MiB given to the printing process from OS
             0 MiB allocation reported by mallinfo(arena+hblkhd)
        125119 MiB available memory on the node where the printing process lives
------------------
     ethr =  5.87E-05,  avg # of iterations =  3.4

     total cpu time spent up to now is     1890.9 secs

     total energy              =    -361.63188050 Ry
     estimated scf accuracy    <       0.03769203 Ry

     iteration #  5     ecut=    50.00 Ry     beta= 0.10
     Davidson diagonalization with overlap

---- Real-time Memory Report at c_bands before calling an iterative solver
            51 MiB given to the printing process from OS
             0 MiB allocation reported by mallinfo(arena+hblkhd)
        125118 MiB available memory on the node where the printing process lives
------------------
     ethr =  5.87E-05,  avg # of iterations =  1.9

     total cpu time spent up to now is     2195.8 secs

     total energy              =    -361.63700261 Ry
     estimated scf accuracy    <       0.00025551 Ry

     iteration #  6     ecut=    50.00 Ry     beta= 0.10
     Davidson diagonalization with overlap

---- Real-time Memory Report at c_bands before calling an iterative solver
            51 MiB given to the printing process from OS
             0 MiB allocation reported by mallinfo(arena+hblkhd)
        125066 MiB available memory on the node where the printing process lives
------------------
     ethr =  7.10E-07,  avg # of iterations =  8.6

     total cpu time spent up to now is     2806.4 secs

     total energy              =    -361.63716943 Ry
     estimated scf accuracy    <       0.00017479 Ry

     iteration #  7     ecut=    50.00 Ry     beta= 0.10
     Davidson diagonalization with overlap

---- Real-time Memory Report at c_bands before calling an iterative solver
            51 MiB given to the printing process from OS
             0 MiB allocation reported by mallinfo(arena+hblkhd)
        125067 MiB available memory on the node where the printing process lives
------------------
     ethr =  4.86E-07,  avg # of iterations =  1.5

     total cpu time spent up to now is     3089.0 secs

     total energy              =    -361.63721111 Ry
     estimated scf accuracy    <       0.00005152 Ry

     iteration #  8     ecut=    50.00 Ry     beta= 0.10
     Davidson diagonalization with overlap

---- Real-time Memory Report at c_bands before calling an iterative solver
            51 MiB given to the printing process from OS
             0 MiB allocation reported by mallinfo(arena+hblkhd)
        125067 MiB available memory on the node where the printing process lives
------------------
     ethr =  1.43E-07,  avg # of iterations =  1.3

     total cpu time spent up to now is     3368.4 secs

     total energy              =    -361.63718743 Ry
     estimated scf accuracy    <       0.00008607 Ry

     iteration #  9     ecut=    50.00 Ry     beta= 0.10
     Davidson diagonalization with overlap

---- Real-time Memory Report at c_bands before calling an iterative solver
            51 MiB given to the printing process from OS
             0 MiB allocation reported by mallinfo(arena+hblkhd)
        125067 MiB available memory on the node where the printing process lives
------------------
     ethr =  1.43E-07,  avg # of iterations =  1.0

     total cpu time spent up to now is     3629.1 secs

     total energy              =    -361.63719007 Ry
     estimated scf accuracy    <       0.00000758 Ry

     iteration # 10     ecut=    50.00 Ry     beta= 0.10
     Davidson diagonalization with overlap

---- Real-time Memory Report at c_bands before calling an iterative solver
            51 MiB given to the printing process from OS
             0 MiB allocation reported by mallinfo(arena+hblkhd)
        125067 MiB available memory on the node where the printing process lives
------------------
     ethr =  2.11E-08,  avg # of iterations =  1.3

     total cpu time spent up to now is     3907.1 secs

     total energy              =    -361.63719129 Ry
     estimated scf accuracy    <       0.00000195 Ry

     iteration # 11     ecut=    50.00 Ry     beta= 0.10
     Davidson diagonalization with overlap

---- Real-time Memory Report at c_bands before calling an iterative solver
            51 MiB given to the printing process from OS
             0 MiB allocation reported by mallinfo(arena+hblkhd)
        125071 MiB available memory on the node where the printing process lives
------------------
     ethr =  5.42E-09,  avg # of iterations =  1.0

     total cpu time spent up to now is     4172.4 secs

     total energy              =    -361.63719144 Ry
     estimated scf accuracy    <       0.00000011 Ry

     iteration # 12     ecut=    50.00 Ry     beta= 0.10
     Davidson diagonalization with overlap

---- Real-time Memory Report at c_bands before calling an iterative solver
            51 MiB given to the printing process from OS
             0 MiB allocation reported by mallinfo(arena+hblkhd)
        125070 MiB available memory on the node where the printing process lives
------------------
     ethr =  2.97E-10,  avg # of iterations =  2.0

     total cpu time spent up to now is     4529.7 secs

     total energy              =    -361.63719149 Ry
     estimated scf accuracy    <       0.00000003 Ry

     iteration # 13     ecut=    50.00 Ry     beta= 0.10
     Davidson diagonalization with overlap

---- Real-time Memory Report at c_bands before calling an iterative solver
            51 MiB given to the printing process from OS
             0 MiB allocation reported by mallinfo(arena+hblkhd)
        125071 MiB available memory on the node where the printing process lives
------------------
     ethr =  7.30E-11,  avg # of iterations =  3.3

     total cpu time spent up to now is     4910.3 secs

     total energy              =    -361.63719149 Ry
     estimated scf accuracy    <       0.00000002 Ry

     iteration # 14     ecut=    50.00 Ry     beta= 0.10
     Davidson diagonalization with overlap

---- Real-time Memory Report at c_bands before calling an iterative solver
            51 MiB given to the printing process from OS
             0 MiB allocation reported by mallinfo(arena+hblkhd)
        125071 MiB available memory on the node where the printing process lives
------------------
     ethr =  5.34E-11,  avg # of iterations =  2.0

     total cpu time spent up to now is     5249.3 secs

     End of self-consistent calculation

          k = 0.0000 0.0000 0.0000 (  1985 PWs)   bands (ev):

   -11.0525 -10.3835   1.2373   1.2373   1.2771   1.3836   1.4207   1.4207
     2.3274   2.3274   2.5209   2.5209   2.7860   6.0202   6.0202   6.6945
     6.7738   6.7738   7.5084  11.8837  14.8439  19.5316  19.5316  20.5450
    20.7319  20.7319  23.1653  24.7725  24.7725  26.4010  26.4582  26.4582
    27.4701  29.5371  31.2137  31.2137  33.6382  34.6145  34.6145  34.9426
    37.4951  37.4951  40.7614  40.7614  41.3384  42.9791  42.9791  45.1548
    45.1548  46.8623  47.9737  49.8797  53.1645  54.3081  54.3081  55.9980
    56.1768  56.2452  57.0312  57.0312  58.6055  58.6055  59.9347  60.9418
    61.6533  61.6533  61.8893  62.1220  62.1220  63.0423  63.0423  65.5710

     occupation numbers 
     1.0000   1.0000   1.0000   1.0000   1.0000   1.0000   1.0000   1.0000
     1.0000   1.0000   1.0000   1.0000   1.0000   1.0000   1.0000   1.0000
     1.0000   1.0000   0.0000   0.0000   0.0000   0.0000   0.0000   0.0000
     0.0000   0.0000   0.0000   0.0000   0.0000   0.0000   0.0000   0.0000
     0.0000   0.0000   0.0000   0.0000   0.0000   0.0000   0.0000   0.0000
     0.0000   0.0000   0.0000   0.0000   0.0000   0.0000   0.0000   0.0000
     0.0000   0.0000   0.0000   0.0000   0.0000   0.0000   0.0000   0.0000
     0.0000   0.0000   0.0000   0.0000   0.0000   0.0000   0.0000   0.0000
     0.0000   0.0000   0.0000   0.0000   0.0000   0.0000   0.0000   0.0000

          k = 0.0000 0.0000 0.0516 (  1973 PWs)   bands (ev):

   -11.0417 -10.3955   1.2390   1.2390   1.2653   1.3450   1.4159   1.4159
     2.3322   2.3322   2.5192   2.5192   2.8713   6.0333   6.0333   6.4957
     6.7614   6.7614   7.7292  11.8233  14.8979  19.5323  19.5323  20.2826
    20.6832  20.6832  23.2656  24.8445  24.8445  26.3564  26.5402  26.5402
    27.7549  29.5112  31.1272  31.1272  33.8193  34.5006  34.5006  34.7858
    37.5262  37.5262  40.2641  40.2641  41.3179  43.6792  43.6792  45.3190
    45.3190  45.7416  48.1017  51.0025  53.1971  54.3356  54.3356  56.0085
    56.1417  56.1780  56.9052  56.9052  58.0744  58.0744  59.8228  61.0422
    61.8083  61.8083  62.0193  62.0193  62.0666  63.3119  63.3119  63.9486

     occupation numbers 
     1.0000   1.0000   1.0000   1.0000   1.0000   1.0000   1.0000   1.0000
     1.0000   1.0000   1.0000   1.0000   1.0000   1.0000   1.0000   1.0000
     1.0000   1.0000   0.0000   0.0000   0.0000   0.0000   0.0000   0.0000
     0.0000   0.0000   0.0000   0.0000   0.0000   0.0000   0.0000   0.0000
     0.0000   0.0000   0.0000   0.0000   0.0000   0.0000   0.0000   0.0000
     0.0000   0.0000   0.0000   0.0000   0.0000   0.0000   0.0000   0.0000
     0.0000   0.0000   0.0000   0.0000   0.0000   0.0000   0.0000   0.0000
     0.0000   0.0000   0.0000   0.0000   0.0000   0.0000   0.0000   0.0000
     0.0000   0.0000   0.0000   0.0000   0.0000   0.0000   0.0000   0.0000

          k = 0.0000 0.0000 0.1032 (  1955 PWs)   bands (ev):

   -11.0098 -10.4305   1.2324   1.2441   1.2441   1.2570   1.4022   1.4022
     2.3454   2.3454   2.5136   2.5136   3.0972   6.0717   6.0717   6.1311
     6.7246   6.7246   8.1562  11.6485  15.0577  19.5382  19.5382  19.6517
    20.5507  20.5507  23.4855  25.0537  25.0537  26.2085  26.7547  26.7547
    28.5238  29.5021  30.9092  30.9092  34.1569  34.1569  34.2915  34.3688
    37.6054  37.6054  39.4936  39.4936  41.2075  43.8745  45.0591  45.0591
    45.8010  45.8010  48.5016  52.7794  53.2945  54.4167  54.4167  55.8664
    56.0447  56.2734  56.3915  56.3915  57.0439  57.0439  59.4607  60.9554
    60.9554  61.3176  62.2380  62.2380  62.5632  62.7930  62.7930  63.7399

     occupation numbers 
     1.0000   1.0000   1.0000   1.0000   1.0000   1.0000   1.0000   1.0000
     1.0000   1.0000   1.0000   1.0000   1.0000   1.0000   1.0000   1.0000
     1.0000   1.0000   0.0000   0.0000   0.0000   0.0000   0.0000   0.0000
     0.0000   0.0000   0.0000   0.0000   0.0000   0.0000   0.0000   0.0000
     0.0000   0.0000   0.0000   0.0000   0.0000   0.0000   0.0000   0.0000
     0.0000   0.0000   0.0000   0.0000   0.0000   0.0000   0.0000   0.0000
     0.0000   0.0000   0.0000   0.0000   0.0000   0.0000   0.0000   0.0000
     0.0000   0.0000   0.0000   0.0000   0.0000   0.0000   0.0000   0.0000
     0.0000   0.0000   0.0000   0.0000   0.0000   0.0000   0.0000   0.0000

          k = 0.0000 0.0000 0.1549 (  1973 PWs)   bands (ev):

   -10.9588 -10.4859   1.1648   1.1843   1.2529   1.2529   1.3816   1.3816
     2.3654   2.3654   2.5031   2.5031   3.4097   5.7406   6.1327   6.1327
     6.6659   6.6659   8.6396  11.3746  15.3191  18.8788  19.5591  19.5591
    20.3666  20.3666  23.7489  25.3805  25.3805  25.9431  27.0070  27.0070
    29.5838  29.6227  30.6782  30.6782  33.5988  33.5988  33.8267  34.8952
    37.7055  37.7055  38.8801  38.8801  40.9283  42.0150  46.5721  46.5721
    46.6724  46.6724  49.1871  53.4556  53.9676  54.5469  54.5469  55.0568
    55.0568  55.4911  56.1183  56.4819  56.4819  56.9089  58.8757  58.8757
    58.8783  61.6979  62.7469  62.7469  62.8365  62.8365  63.3072  64.0085

     occupation numbers 
     1.0000   1.0000   1.0000   1.0000   1.0000   1.0000   1.0000   1.0000
     1.0000   1.0000   1.0000   1.0000   1.0000   1.0000   1.0000   1.0000
     1.0000   1.0000   0.0000   0.0000   0.0000   0.0000   0.0000   0.0000
     0.0000   0.0000   0.0000   0.0000   0.0000   0.0000   0.0000   0.0000
     0.0000   0.0000   0.0000   0.0000   0.0000   0.0000   0.0000   0.0000
     0.0000   0.0000   0.0000   0.0000   0.0000   0.0000   0.0000   0.0000
     0.0000   0.0000   0.0000   0.0000   0.0000   0.0000   0.0000   0.0000
     0.0000   0.0000   0.0000   0.0000   0.0000   0.0000   0.0000   0.0000
     0.0000   0.0000   0.0000   0.0000   0.0000   0.0000   0.0000   0.0000

          k = 0.0000 0.0000 0.2065 (  1954 PWs)   bands (ev):

   -10.8918 -10.5574   1.0963   1.1320   1.2663   1.2663   1.3568   1.3568
     2.3904   2.3904   2.4885   2.4885   3.7711   5.3463   6.2119   6.2119
     6.5890   6.5890   9.1431  11.0200  15.6802  18.0927  19.6066  19.6066
    20.1655  20.1655  24.0483  25.5830  25.7953  25.7953  27.1444  27.1444
    29.9158  30.6116  30.6116  30.6507  32.8868  32.8868  33.4008  35.4020
    37.8080  37.8080  38.4661  38.4661  40.4107  40.4683  47.5896  47.5896
    48.4078  48.4078  50.1222  53.4953  53.4953  53.6784  53.9994  54.7012
    54.7012  55.0791  56.0756  56.0756  56.2451  56.7455  56.7455  57.7081
    58.9449  62.0742  62.8936  62.8936  63.3608  63.3608  64.2354  64.2472

     occupation numbers 
     1.0000   1.0000   1.0000   1.0000   1.0000   1.0000   1.0000   1.0000
     1.0000   1.0000   1.0000   1.0000   1.0000   1.0000   1.0000   1.0000
     1.0000   1.0000   0.0000   0.0000   0.0000   0.0000   0.0000   0.0000
     0.0000   0.0000   0.0000   0.0000   0.0000   0.0000   0.0000   0.0000
     0.0000   0.0000   0.0000   0.0000   0.0000   0.0000   0.0000   0.0000
     0.0000   0.0000   0.0000   0.0000   0.0000   0.0000   0.0000   0.0000
     0.0000   0.0000   0.0000   0.0000   0.0000   0.0000   0.0000   0.0000
     0.0000   0.0000   0.0000   0.0000   0.0000   0.0000   0.0000   0.0000
     0.0000   0.0000   0.0000   0.0000   0.0000   0.0000   0.0000   0.0000

          k = 0.0000 0.0000 0.2581 (  1948 PWs)   bands (ev):

   -10.8127 -10.6396   1.0613   1.0867   1.2842   1.2842   1.3308   1.3308
     2.4175   2.4175   2.4685   2.4685   4.1570   4.9502   6.3037   6.3037
     6.4990   6.4990   9.6485  10.6029  16.1410  17.3567  19.6900  19.6900
    19.9751  19.9751  24.3891  25.1771  26.2562  26.2562  27.0359  27.0359
    30.3492  30.8569  30.8569  31.1250  32.1173  32.1173  33.6456  35.4002
    37.9123  37.9123  38.2038  38.2038  39.4525  39.9050  48.7971  48.7971
    50.1081  50.1081  51.2180  52.0797  52.0797  53.3464  53.9595  54.3315
    54.3315  54.6716  55.2546  55.2546  55.7055  55.7055  56.4464  57.2125
    60.6245  62.2707  63.0943  63.0943  63.4515  63.4515  64.4365  64.9987

     occupation numbers 
     1.0000   1.0000   1.0000   1.0000   1.0000   1.0000   1.0000   1.0000
     1.0000   1.0000   1.0000   1.0000   1.0000   1.0000   1.0000   1.0000
     1.0000   1.0000   0.0000   0.0000   0.0000   0.0000   0.0000   0.0000
     0.0000   0.0000   0.0000   0.0000   0.0000   0.0000   0.0000   0.0000
     0.0000   0.0000   0.0000   0.0000   0.0000   0.0000   0.0000   0.0000
     0.0000   0.0000   0.0000   0.0000   0.0000   0.0000   0.0000   0.0000
     0.0000   0.0000   0.0000   0.0000   0.0000   0.0000   0.0000   0.0000
     0.0000   0.0000   0.0000   0.0000   0.0000   0.0000   0.0000   0.0000
     0.0000   0.0000   0.0000   0.0000   0.0000   0.0000   0.0000   0.0000

          k = 0.0000 0.0000-0.3097 (  1930 PWs)   bands (ev):

   -10.7268 -10.7268   1.0601   1.0601   1.3062   1.3062   1.3062   1.3062
     2.4445   2.4445   2.4445   2.4445   4.5528   4.5528   6.4017   6.4017
     6.4017   6.4017  10.1403  10.1403  16.7014  16.7014  19.8134  19.8134
    19.8134  19.8134  24.7698  24.7698  26.7017  26.7017  26.7017  26.7017
    30.8342  30.8342  31.3999  31.3999  31.3999  31.3999  34.6165  34.6165
    38.0343  38.0343  38.0343  38.0343  39.4263  39.4263  50.0773  50.0773
    50.0773  50.0773  52.3484  52.3484  52.5505  52.5505  52.5505  52.5505
    54.2936  54.2936  55.3863  55.3863  55.3863  55.3863  56.7553  56.7553
    61.9246  61.9246  63.3020  63.3020  63.3020  63.3020  65.1987  65.1987

     occupation numbers 
     1.0000   1.0000   1.0000   1.0000   1.0000   1.0000   1.0000   1.0000
     1.0000   1.0000   1.0000   1.0000   1.0000   1.0000   1.0000   1.0000
     1.0000   1.0000   0.0000   0.0000   0.0000   0.0000   0.0000   0.0000
     0.0000   0.0000   0.0000   0.0000   0.0000   0.0000   0.0000   0.0000
     0.0000   0.0000   0.0000   0.0000   0.0000   0.0000   0.0000   0.0000
     0.0000   0.0000   0.0000   0.0000   0.0000   0.0000   0.0000   0.0000
     0.0000   0.0000   0.0000   0.0000   0.0000   0.0000   0.0000   0.0000
     0.0000   0.0000   0.0000   0.0000   0.0000   0.0000   0.0000   0.0000
     0.0000   0.0000   0.0000   0.0000   0.0000   0.0000   0.0000   0.0000

          k = 0.0000 0.0962 0.0000 (  1970 PWs)   bands (ev):

   -11.0165 -10.3673   1.1970   1.2586   1.3016   1.4085   1.4450   1.4505
     2.3129   2.3254   2.5242   2.5524   2.7777   5.7698   5.9305   6.2880
     6.6514   6.7262   8.0819  12.1699  14.8461  18.7904  19.5912  20.1915
    20.6635  20.8168  22.8565  24.2954  24.8967  26.3733  27.3301  27.3437
    28.0038  30.2260  30.8179  31.2809  34.2079  34.4266  34.6386  34.9459
    36.9713  37.0983  40.5883  41.4419  41.5342  42.8325  43.5591  44.9875
    45.2372  47.0672  48.3435  50.1028  50.3334  53.5956  53.8929  55.3871
    55.9237  56.7311  56.9412  57.1944  58.9663  59.1218  59.1907  59.9651
    60.3548  61.0891  62.4618  62.7309  63.1978  63.3069  65.1688  65.9524

     occupation numbers 
     1.0000   1.0000   1.0000   1.0000   1.0000   1.0000   1.0000   1.0000
     1.0000   1.0000   1.0000   1.0000   1.0000   1.0000   1.0000   1.0000
     1.0000   1.0000   0.0000   0.0000   0.0000   0.0000   0.0000   0.0000
     0.0000   0.0000   0.0000   0.0000   0.0000   0.0000   0.0000   0.0000
     0.0000   0.0000   0.0000   0.0000   0.0000   0.0000   0.0000   0.0000
     0.0000   0.0000   0.0000   0.0000   0.0000   0.0000   0.0000   0.0000
     0.0000   0.0000   0.0000   0.0000   0.0000   0.0000   0.0000   0.0000
     0.0000   0.0000   0.0000   0.0000   0.0000   0.0000   0.0000   0.0000
     0.0000   0.0000   0.0000   0.0000   0.0000   0.0000   0.0000   0.0000

          k = 0.0000 0.0962 0.0516 (  1974 PWs)   bands (ev):

   -11.0060 -10.3789   1.1915   1.2604   1.2960   1.3694   1.4377   1.4454
     2.3180   2.3299   2.5222   2.5430   2.8727   5.7830   5.9444   6.1869
     6.6418   6.7130   8.2025  12.1037  14.9019  18.8003  19.5920  20.1300
    20.3856  20.7631  23.0564  24.3933  24.9404  26.3775  27.3078  27.3964
    28.2348  30.2098  30.8312  31.1919  33.9903  34.5155  34.5297  34.9375
    37.0420  37.1350  40.2657  40.9030  41.5135  43.5452  43.7990  45.2275
    45.4984  45.9867  48.5281  50.3617  51.2124  53.4614  53.8711  55.3528
    55.9307  56.6508  57.0471  57.0788  58.6698  58.7149  59.0671  59.8784
    60.2966  61.0636  62.4103  62.8187  62.9456  63.4302  64.4070  64.5421

     occupation numbers 
     1.0000   1.0000   1.0000   1.0000   1.0000   1.0000   1.0000   1.0000
     1.0000   1.0000   1.0000   1.0000   1.0000   1.0000   1.0000   1.0000
     1.0000   1.0000   0.0000   0.0000   0.0000   0.0000   0.0000   0.0000
     0.0000   0.0000   0.0000   0.0000   0.0000   0.0000   0.0000   0.0000
     0.0000   0.0000   0.0000   0.0000   0.0000   0.0000   0.0000   0.0000
     0.0000   0.0000   0.0000   0.0000   0.0000   0.0000   0.0000   0.0000
     0.0000   0.0000   0.0000   0.0000   0.0000   0.0000   0.0000   0.0000
     0.0000   0.0000   0.0000   0.0000   0.0000   0.0000   0.0000   0.0000
     0.0000   0.0000   0.0000   0.0000   0.0000   0.0000   0.0000   0.0000

          k = 0.0000 0.0962 0.1032 (  1956 PWs)   bands (ev):

   -10.9750 -10.4127   1.1725   1.2649   1.2660   1.2970   1.4229   1.4314
     2.3330   2.3431   2.5159   2.5291   3.1103   5.8125   5.9548   5.9852
     6.6026   6.6743   8.5100  11.9141  15.0649  18.8224  19.5983  19.6666
    20.0802  20.6200  23.4520  24.6694  25.0816  26.3434  27.2746  27.5238
    28.8680  30.2072  30.8343  30.9749  33.5052  34.1712  34.7875  34.8644
    37.2142  37.2345  39.6345  40.0337  41.4959  44.0369  44.4880  44.6279
    45.9960  46.3007  49.0840  50.4458  52.9644  53.1296  53.7556  55.2450
    56.0283  56.0697  56.6954  57.4594  57.8156  57.9484  58.9589  59.7933
    60.1390  61.1545  61.4018  61.8832  63.1831  63.2825  63.7983  63.8700

     occupation numbers 
     1.0000   1.0000   1.0000   1.0000   1.0000   1.0000   1.0000   1.0000
     1.0000   1.0000   1.0000   1.0000   1.0000   1.0000   1.0000   1.0000
     1.0000   1.0000   0.0000   0.0000   0.0000   0.0000   0.0000   0.0000
     0.0000   0.0000   0.0000   0.0000   0.0000   0.0000   0.0000   0.0000
     0.0000   0.0000   0.0000   0.0000   0.0000   0.0000   0.0000   0.0000
     0.0000   0.0000   0.0000   0.0000   0.0000   0.0000   0.0000   0.0000
     0.0000   0.0000   0.0000   0.0000   0.0000   0.0000   0.0000   0.0000
     0.0000   0.0000   0.0000   0.0000   0.0000   0.0000   0.0000   0.0000
     0.0000   0.0000   0.0000   0.0000   0.0000   0.0000   0.0000   0.0000

          k = 0.0000 0.0962 0.1549 (  1953 PWs)   bands (ev):

   -10.9253 -10.4663   1.1370   1.1700   1.2757   1.2885   1.4020   1.4101
     2.3559   2.3633   2.5048   2.5139   3.4290   5.6170   5.9080   6.0497
     6.5322   6.6124   8.9216  11.6222  15.3276  18.7046  19.0802  19.6194
    19.9045  20.4269  23.8482  25.0841  25.3150  26.2072  27.3069  27.6266
    29.6857  30.1754  30.7720  30.9445  32.9966  33.6516  34.4940  35.3385
    37.3619  37.4226  38.9901  39.3140  41.2389  42.2438  45.3788  45.7169
    47.0345  47.5697  49.9715  50.5779  52.7152  53.3149  54.0326  54.7915
    55.1295  56.2519  56.5601  57.0860  57.6060  57.9591  58.2071  59.5506
    60.0346  60.0696  60.5576  61.6337  63.0222  63.4199  63.6339  63.8563

     occupation numbers 
     1.0000   1.0000   1.0000   1.0000   1.0000   1.0000   1.0000   1.0000
     1.0000   1.0000   1.0000   1.0000   1.0000   1.0000   1.0000   1.0000
     1.0000   1.0000   0.0000   0.0000   0.0000   0.0000   0.0000   0.0000
     0.0000   0.0000   0.0000   0.0000   0.0000   0.0000   0.0000   0.0000
     0.0000   0.0000   0.0000   0.0000   0.0000   0.0000   0.0000   0.0000
     0.0000   0.0000   0.0000   0.0000   0.0000   0.0000   0.0000   0.0000
     0.0000   0.0000   0.0000   0.0000   0.0000   0.0000   0.0000   0.0000
     0.0000   0.0000   0.0000   0.0000   0.0000   0.0000   0.0000   0.0000
     0.0000   0.0000   0.0000   0.0000   0.0000   0.0000   0.0000   0.0000

          k = 0.0000 0.0962 0.2065 (  1959 PWs)   bands (ev):

   -10.8600 -10.5354   1.0876   1.0992   1.2898   1.2941   1.3771   1.3845
     2.3838   2.3882   2.4888   2.4950   3.7902   5.2810   5.9927   6.1334
     6.4378   6.5313   9.3854  11.2513  15.6859  18.0371  19.0682  19.6663
    19.7129  20.2214  24.2077  25.4589  25.5951  26.1546  27.3561  27.5542
    29.9148  30.4584  30.7751  31.2985  32.7811  33.0083  34.1227  35.8167
    37.4683  37.6337  38.4407  38.7733  40.6268  40.8119  46.5301  46.8859
    48.2855  49.0829  50.7257  51.0480  52.2902  52.4141  53.3322  53.8203
    55.0687  55.7328  56.2535  56.9263  57.2745  57.9281  58.5153  58.5751
    59.1843  60.2518  60.8015  61.9360  62.6820  63.1854  63.7597  64.1341

     occupation numbers 
     1.0000   1.0000   1.0000   1.0000   1.0000   1.0000   1.0000   1.0000
     1.0000   1.0000   1.0000   1.0000   1.0000   1.0000   1.0000   1.0000
     1.0000   1.0000   0.0000   0.0000   0.0000   0.0000   0.0000   0.0000
     0.0000   0.0000   0.0000   0.0000   0.0000   0.0000   0.0000   0.0000
     0.0000   0.0000   0.0000   0.0000   0.0000   0.0000   0.0000   0.0000
     0.0000   0.0000   0.0000   0.0000   0.0000   0.0000   0.0000   0.0000
     0.0000   0.0000   0.0000   0.0000   0.0000   0.0000   0.0000   0.0000
     0.0000   0.0000   0.0000   0.0000   0.0000   0.0000   0.0000   0.0000
     0.0000   0.0000   0.0000   0.0000   0.0000   0.0000   0.0000   0.0000

          k = 0.0000 0.0962 0.2581 (  1963 PWs)   bands (ev):

   -10.7831 -10.6151   1.0470   1.0587   1.3079   1.3085   1.3515   1.3574
     2.4142   2.4156   2.4678   2.4714   4.1692   4.9227   6.0971   6.2303
     6.3281   6.4363   9.8710  10.8229  16.1395  17.3269  19.1843  19.5193
    19.7483  20.0303  24.5514  25.2417  26.1606  26.4842  27.2308  27.2525
    29.9118  30.4606  31.0850  31.8152  32.3088  32.8282  34.1957  35.8709
    37.5304  37.8480  38.0266  38.3798  39.7371  40.2112  47.8347  48.1714
    49.5316  50.3667  50.7847  51.0271  51.8214  52.4506  52.4598  52.9002
    54.6968  55.1230  55.4004  55.8572  57.1189  58.0215  58.0264  58.4200
    60.1677  60.8525  61.5681  61.8019  62.4918  62.5688  64.1306  64.5739

     occupation numbers 
     1.0000   1.0000   1.0000   1.0000   1.0000   1.0000   1.0000   1.0000
     1.0000   1.0000   1.0000   1.0000   1.0000   1.0000   1.0000   1.0000
     1.0000   1.0000   0.0000   0.0000   0.0000   0.0000   0.0000   0.0000
     0.0000   0.0000   0.0000   0.0000   0.0000   0.0000   0.0000   0.0000
     0.0000   0.0000   0.0000   0.0000   0.0000   0.0000   0.0000   0.0000
     0.0000   0.0000   0.0000   0.0000   0.0000   0.0000   0.0000   0.0000
     0.0000   0.0000   0.0000   0.0000   0.0000   0.0000   0.0000   0.0000
     0.0000   0.0000   0.0000   0.0000   0.0000   0.0000   0.0000   0.0000
     0.0000   0.0000   0.0000   0.0000   0.0000   0.0000   0.0000   0.0000

          k = 0.0000 0.0962-0.3097 (  1958 PWs)   bands (ev):

   -10.6996 -10.6996   1.0386   1.0386   1.3277   1.3277   1.3315   1.3315
     2.4431   2.4431   2.4440   2.4440   4.5500   4.5500   6.2116   6.2116
     6.3337   6.3337  10.3566  10.3566  16.6881  16.6881  19.3390  19.3390
    19.8700  19.8700  24.9001  24.9001  26.7306  26.7306  26.9240  26.9240
    30.1414  30.1414  31.6351  31.6351  32.3945  32.3945  35.1097  35.1097
    37.7201  37.7201  38.0858  38.0858  39.7307  39.7307  49.1703  49.1703
    49.5066  49.5066  51.3862  51.3862  51.4755  51.4755  53.3572  53.3572
    53.7351  53.7351  55.5508  55.5508  57.3693  57.3693  58.2215  58.2215
    61.1681  61.1681  61.6616  61.6616  62.3729  62.3729  64.5617  64.5617

     occupation numbers 
     1.0000   1.0000   1.0000   1.0000   1.0000   1.0000   1.0000   1.0000
     1.0000   1.0000   1.0000   1.0000   1.0000   1.0000   1.0000   1.0000
     1.0000   1.0000   0.0000   0.0000   0.0000   0.0000   0.0000   0.0000
     0.0000   0.0000   0.0000   0.0000   0.0000   0.0000   0.0000   0.0000
     0.0000   0.0000   0.0000   0.0000   0.0000   0.0000   0.0000   0.0000
     0.0000   0.0000   0.0000   0.0000   0.0000   0.0000   0.0000   0.0000
     0.0000   0.0000   0.0000   0.0000   0.0000   0.0000   0.0000   0.0000
     0.0000   0.0000   0.0000   0.0000   0.0000   0.0000   0.0000   0.0000
     0.0000   0.0000   0.0000   0.0000   0.0000   0.0000   0.0000   0.0000

          k = 0.0000 0.1925 0.0000 (  1972 PWs)   bands (ev):

   -10.9155 -10.3244   1.1049   1.3145   1.3382   1.4200   1.5361   1.6009
     2.2726   2.3266   2.5317   2.6473   2.7555   5.1249   5.6667   5.6871
     6.5170   6.5917   8.9783  12.8679  14.8493  17.4961  19.1446  19.7566
    20.6235  20.8977  21.9457  23.9887  24.9884  27.4113  28.5628  29.0049
    29.0914  29.8136  31.4971  32.7671  33.4703  34.6139  34.6734  35.6935
    36.0591  37.0586  39.1661  42.2892  42.4815  43.1951  43.5324  45.2308
    45.8909  47.6417  47.6486  49.4979  50.5970  51.0040  52.3053  53.1598
    53.7401  55.2453  57.3439  57.4903  58.1709  58.9921  59.7474  60.9911
    61.1281  61.7122  61.8475  62.7067  63.2877  63.5075  64.6320  64.7947

     occupation numbers 
     1.0000   1.0000   1.0000   1.0000   1.0000   1.0000   1.0000   1.0000
     1.0000   1.0000   1.0000   1.0000   1.0000   1.0000   1.0000   1.0000
     1.0000   1.0000   0.0000   0.0000   0.0000   0.0000   0.0000   0.0000
     0.0000   0.0000   0.0000   0.0000   0.0000   0.0000   0.0000   0.0000
     0.0000   0.0000   0.0000   0.0000   0.0000   0.0000   0.0000   0.0000
     0.0000   0.0000   0.0000   0.0000   0.0000   0.0000   0.0000   0.0000
     0.0000   0.0000   0.0000   0.0000   0.0000   0.0000   0.0000   0.0000
     0.0000   0.0000   0.0000   0.0000   0.0000   0.0000   0.0000   0.0000
     0.0000   0.0000   0.0000   0.0000   0.0000   0.0000   0.0000   0.0000

          k = 0.0000 0.1925 0.0516 (  1968 PWs)   bands (ev):

   -10.9058 -10.3347   1.0976   1.3168   1.3243   1.4048   1.5305   1.5691
     2.2805   2.3309   2.5294   2.6043   2.8892   5.1390   5.6251   5.7031
     6.4989   6.5767   9.0487  12.7829  14.9106  17.5114  19.1076  19.7573
    20.3569  20.8431  22.1211  24.1038  25.0733  27.4303  28.3619  29.0115
    29.3380  29.8892  31.4059  32.7087  33.3497  34.5113  34.6632  35.7775
    36.2394  37.0573  39.1856  41.8402  42.3362  43.3941  43.7459  45.7075
    45.8299  46.6155  47.7148  49.7844  50.8610  51.6570  52.2684  53.3929
    53.8165  55.2526  57.0270  57.1149  58.0466  58.7241  59.7885  60.6245
    61.0199  61.6667  61.9624  62.6889  63.1126  63.8441  64.2566  64.7771

     occupation numbers 
     1.0000   1.0000   1.0000   1.0000   1.0000   1.0000   1.0000   1.0000
     1.0000   1.0000   1.0000   1.0000   1.0000   1.0000   1.0000   1.0000
     1.0000   1.0000   0.0000   0.0000   0.0000   0.0000   0.0000   0.0000
     0.0000   0.0000   0.0000   0.0000   0.0000   0.0000   0.0000   0.0000
     0.0000   0.0000   0.0000   0.0000   0.0000   0.0000   0.0000   0.0000
     0.0000   0.0000   0.0000   0.0000   0.0000   0.0000   0.0000   0.0000
     0.0000   0.0000   0.0000   0.0000   0.0000   0.0000   0.0000   0.0000
     0.0000   0.0000   0.0000   0.0000   0.0000   0.0000   0.0000   0.0000
     0.0000   0.0000   0.0000   0.0000   0.0000   0.0000   0.0000   0.0000

          k = 0.0000 0.1925 0.1032 (  1967 PWs)   bands (ev):

   -10.8772 -10.3651   1.0767   1.2652   1.3240   1.3769   1.5149   1.5161
     2.3017   2.3433   2.5216   2.5687   3.1546   5.1726   5.5209   5.7498
     6.4388   6.5329   9.2510  12.5490  15.0809  17.5487  18.9797  19.7625
    19.8248  20.7014  22.4657  24.4259  25.2344  27.4241  28.2330  28.9774
    29.6351  30.0856  31.2175  32.4949  33.2825  34.1645  34.7693  35.8698
    36.6144  37.1478  39.1065  40.9965  42.2229  43.9108  43.9532  44.7542
    46.1319  46.5903  48.0194  50.5604  50.5841  52.0900  53.0774  53.9602
    54.2953  55.2688  55.8375  56.4846  57.3262  58.9087  59.4812  60.1382
    60.9883  61.5798  62.0111  62.2097  62.5578  63.4557  63.5782  64.6126

     occupation numbers 
     1.0000   1.0000   1.0000   1.0000   1.0000   1.0000   1.0000   1.0000
     1.0000   1.0000   1.0000   1.0000   1.0000   1.0000   1.0000   1.0000
     1.0000   1.0000   0.0000   0.0000   0.0000   0.0000   0.0000   0.0000
     0.0000   0.0000   0.0000   0.0000   0.0000   0.0000   0.0000   0.0000
     0.0000   0.0000   0.0000   0.0000   0.0000   0.0000   0.0000   0.0000
     0.0000   0.0000   0.0000   0.0000   0.0000   0.0000   0.0000   0.0000
     0.0000   0.0000   0.0000   0.0000   0.0000   0.0000   0.0000   0.0000
     0.0000   0.0000   0.0000   0.0000   0.0000   0.0000   0.0000   0.0000
     0.0000   0.0000   0.0000   0.0000   0.0000   0.0000   0.0000   0.0000

          k = 0.0000 0.1925 0.1549 (  1963 PWs)   bands (ev):

   -10.8314 -10.4132   1.0453   1.1673   1.3361   1.3638   1.4759   1.4913
     2.3323   2.3627   2.5086   2.5418   3.4813   5.1652   5.4380   5.8238
     6.3300   6.4629   9.5625  12.2075  15.3388  17.5674  18.7189  19.3418
    19.7808  20.5161  22.8661  24.9071  25.2780  27.3970  28.3924  28.7592
    29.7117  30.2161  31.1447  32.4609  33.4166  33.7471  34.8212  35.9341
    37.0198  37.3949  38.7680  40.1480  42.0422  43.0830  44.1543  44.7037
    46.8505  47.1816  48.7022  50.4743  51.3140  51.9678  53.4324  54.2760
    54.7579  54.7945  55.5352  56.0753  56.9559  58.6376  59.4232  59.5002
    61.0209  61.1436  61.4936  61.7984  62.1491  62.5205  63.0325  64.5842

     occupation numbers 
     1.0000   1.0000   1.0000   1.0000   1.0000   1.0000   1.0000   1.0000
     1.0000   1.0000   1.0000   1.0000   1.0000   1.0000   1.0000   1.0000
     1.0000   1.0000   0.0000   0.0000   0.0000   0.0000   0.0000   0.0000
     0.0000   0.0000   0.0000   0.0000   0.0000   0.0000   0.0000   0.0000
     0.0000   0.0000   0.0000   0.0000   0.0000   0.0000   0.0000   0.0000
     0.0000   0.0000   0.0000   0.0000   0.0000   0.0000   0.0000   0.0000
     0.0000   0.0000   0.0000   0.0000   0.0000   0.0000   0.0000   0.0000
     0.0000   0.0000   0.0000   0.0000   0.0000   0.0000   0.0000   0.0000
     0.0000   0.0000   0.0000   0.0000   0.0000   0.0000   0.0000   0.0000

          k = 0.0000 0.1925 0.2065 (  1972 PWs)   bands (ev):

   -10.7714 -10.4756   1.0116   1.0765   1.3534   1.3634   1.4431   1.4627
     2.3686   2.3870   2.4903   2.5138   3.8302   5.0122   5.4955   5.9195
     6.1774   6.3711   9.9541  11.7952  15.6730  17.4344  18.4479  19.0209
    19.8220  20.3242  23.3129  25.0934  25.5032  27.5180  28.2782  28.6849
    29.4563  30.1827  31.3302  32.8281  33.2752  33.7442  34.7518  36.1585
    37.4157  37.5478  38.3752  39.4007  41.0824  42.0040  44.9168  45.7006
    47.4542  47.7928  49.1490  50.8207  50.9969  52.7305  52.8785  53.2201
    54.3907  55.4666  55.5491  56.2890  57.6030  57.8625  58.2817  59.9322
    60.0089  60.8775  61.3725  61.6122  61.8609  62.0315  62.9542  64.7801

     occupation numbers 
     1.0000   1.0000   1.0000   1.0000   1.0000   1.0000   1.0000   1.0000
     1.0000   1.0000   1.0000   1.0000   1.0000   1.0000   1.0000   1.0000
     1.0000   1.0000   0.0000   0.0000   0.0000   0.0000   0.0000   0.0000
     0.0000   0.0000   0.0000   0.0000   0.0000   0.0000   0.0000   0.0000
     0.0000   0.0000   0.0000   0.0000   0.0000   0.0000   0.0000   0.0000
     0.0000   0.0000   0.0000   0.0000   0.0000   0.0000   0.0000   0.0000
     0.0000   0.0000   0.0000   0.0000   0.0000   0.0000   0.0000   0.0000
     0.0000   0.0000   0.0000   0.0000   0.0000   0.0000   0.0000   0.0000
     0.0000   0.0000   0.0000   0.0000   0.0000   0.0000   0.0000   0.0000

          k = 0.0000 0.1925 0.2581 (  1972 PWs)   bands (ev):

   -10.7009 -10.5478   0.9880   1.0149   1.3729   1.3758   1.4145   1.4321
     2.4077   2.4141   2.4676   2.4820   4.1736   4.7749   5.6346   5.9967
     6.0299   6.2636  10.3975  11.3406  16.0788  17.0397  18.4240  18.7756
    19.8949  20.1490  23.7929  24.7308  26.1784  27.6216  27.8149  28.6829
    29.3490  29.9974  31.7228  32.7577  33.2893  33.9539  35.0260  36.3986
    37.2648  37.8173  38.1479  38.7755  40.2805  41.2035  46.0929  46.7379
    47.5786  48.2346  49.2581  50.3966  50.7781  52.1591  53.0271  53.7582
    54.2931  55.5493  55.9487  56.1886  57.1401  57.3704  57.9533  58.8435
    60.1933  60.9690  61.3342  61.5006  61.5454  62.2435  63.4181  64.6210

     occupation numbers 
     1.0000   1.0000   1.0000   1.0000   1.0000   1.0000   1.0000   1.0000
     1.0000   1.0000   1.0000   1.0000   1.0000   1.0000   1.0000   1.0000
     1.0000   1.0000   0.0000   0.0000   0.0000   0.0000   0.0000   0.0000
     0.0000   0.0000   0.0000   0.0000   0.0000   0.0000   0.0000   0.0000
     0.0000   0.0000   0.0000   0.0000   0.0000   0.0000   0.0000   0.0000
     0.0000   0.0000   0.0000   0.0000   0.0000   0.0000   0.0000   0.0000
     0.0000   0.0000   0.0000   0.0000   0.0000   0.0000   0.0000   0.0000
     0.0000   0.0000   0.0000   0.0000   0.0000   0.0000   0.0000   0.0000
     0.0000   0.0000   0.0000   0.0000   0.0000   0.0000   0.0000   0.0000

          k = 0.0000 0.1925-0.3097 (  1984 PWs)   bands (ev):

   -10.6247 -10.6247   0.9863   0.9863   1.3904   1.3904   1.4024   1.4024
     2.4415   2.4415   2.4461   2.4461   4.4921   4.4921   5.8087   5.8087
     6.1472   6.1472  10.8673  10.8673  16.5468  16.5468  18.5673  18.5673
    20.0039  20.0039  24.2782  24.2782  26.8989  26.8989  28.2373  28.2373
    29.6785  29.6785  32.2232  32.2232  33.6920  33.6920  35.8683  35.8683
    37.5591  37.5591  38.2581  38.2581  40.5059  40.5059  47.3685  47.3685
    47.4368  47.4368  49.7385  49.7385  51.1192  51.1192  54.1584  54.1584
    54.5564  54.5564  55.9104  55.9104  57.5472  57.5472  57.8060  57.8060
    60.4730  60.4730  61.3921  61.3921  62.0829  62.0829  64.2863  64.2863

     occupation numbers 
     1.0000   1.0000   1.0000   1.0000   1.0000   1.0000   1.0000   1.0000
     1.0000   1.0000   1.0000   1.0000   1.0000   1.0000   1.0000   1.0000
     1.0000   1.0000   0.0000   0.0000   0.0000   0.0000   0.0000   0.0000
     0.0000   0.0000   0.0000   0.0000   0.0000   0.0000   0.0000   0.0000
     0.0000   0.0000   0.0000   0.0000   0.0000   0.0000   0.0000   0.0000
     0.0000   0.0000   0.0000   0.0000   0.0000   0.0000   0.0000   0.0000
     0.0000   0.0000   0.0000   0.0000   0.0000   0.0000   0.0000   0.0000
     0.0000   0.0000   0.0000   0.0000   0.0000   0.0000   0.0000   0.0000
     0.0000   0.0000   0.0000   0.0000   0.0000   0.0000   0.0000   0.0000

          k = 0.0000 0.2887 0.0000 (  1972 PWs)   bands (ev):

   -10.7692 -10.2700   1.0128   1.3292   1.3829   1.5059   1.6660   1.8183
     2.2256   2.3479   2.5410   2.7130   2.8195   4.3574   5.0815   5.3520
     6.2907   6.3987   9.9514  13.6425  14.8313  16.3123  18.1872  19.7985
    19.9574  20.7542  21.9900  24.4437  24.7841  27.0995  29.6103  30.5101
    30.9132  30.9635  31.8875  33.1136  34.4173  34.6177  34.9191  35.2740
    36.6747  37.6351  38.2931  41.1059  43.0812  43.4667  44.1461  45.2664
    46.4308  47.5098  48.3354  49.1138  49.9257  50.0785  50.5213  51.5707
    52.0590  55.2846  56.1244  57.3263  57.4670  57.6943  59.0339  60.1143
    60.4295  61.1094  61.8754  62.1118  62.3217  62.6444  63.5288  63.9629

     occupation numbers 
     1.0000   1.0000   1.0000   1.0000   1.0000   1.0000   1.0000   1.0000
     1.0000   1.0000   1.0000   1.0000   1.0000   1.0000   1.0000   1.0000
     1.0000   1.0000   0.0000   0.0000   0.0000   0.0000   0.0000   0.0000
     0.0000   0.0000   0.0000   0.0000   0.0000   0.0000   0.0000   0.0000
     0.0000   0.0000   0.0000   0.0000   0.0000   0.0000   0.0000   0.0000
     0.0000   0.0000   0.0000   0.0000   0.0000   0.0000   0.0000   0.0000
     0.0000   0.0000   0.0000   0.0000   0.0000   0.0000   0.0000   0.0000
     0.0000   0.0000   0.0000   0.0000   0.0000   0.0000   0.0000   0.0000
     0.0000   0.0000   0.0000   0.0000   0.0000   0.0000   0.0000   0.0000

          k = 0.0000 0.2887 0.0516 (  1978 PWs)   bands (ev):

   -10.7608 -10.2785   1.0054   1.3086   1.3863   1.4990   1.6593   1.7686
     2.2388   2.3513   2.5378   2.6586   2.9663   4.3785   5.0554   5.3709
     6.2836   6.3816   9.9930  13.5239  14.9044  16.3313  18.1726  19.7468
    19.9572  20.7209  21.9084  24.5452  24.8861  27.1875  29.3468  30.4834
    30.8744  31.2551  31.8274  33.0458  34.3651  34.3826  34.8562  35.6209
    36.8397  37.7414  38.2881  41.1990  42.5562  43.7642  44.1398  45.1635
    46.8632  46.8878  47.6952  49.2301  50.0274  50.2875  50.6691  51.7980
    52.9034  55.1673  55.9524  56.7200  57.0793  57.9362  58.9099  60.0058
    60.3567  61.1168  61.4854  61.6039  62.6043  62.7597  63.5828  64.2348

     occupation numbers 
     1.0000   1.0000   1.0000   1.0000   1.0000   1.0000   1.0000   1.0000
     1.0000   1.0000   1.0000   1.0000   1.0000   1.0000   1.0000   1.0000
     1.0000   1.0000   0.0000   0.0000   0.0000   0.0000   0.0000   0.0000
     0.0000   0.0000   0.0000   0.0000   0.0000   0.0000   0.0000   0.0000
     0.0000   0.0000   0.0000   0.0000   0.0000   0.0000   0.0000   0.0000
     0.0000   0.0000   0.0000   0.0000   0.0000   0.0000   0.0000   0.0000
     0.0000   0.0000   0.0000   0.0000   0.0000   0.0000   0.0000   0.0000
     0.0000   0.0000   0.0000   0.0000   0.0000   0.0000   0.0000   0.0000
     0.0000   0.0000   0.0000   0.0000   0.0000   0.0000   0.0000   0.0000

          k = 0.0000 0.2887 0.1032 (  1972 PWs)   bands (ev):

   -10.7360 -10.3035   0.9853   1.2448   1.3966   1.4827   1.6406   1.6768
     2.2703   2.3617   2.5289   2.6142   3.2323   4.4376   4.9924   5.4262
     6.2490   6.3314  10.1205  13.2257  15.0781  16.3805  18.1167  19.5742
    19.9595  20.6312  21.8131  24.8374  25.0263  27.4490  28.9366  30.4976
    30.5233  31.6032  31.8132  33.1038  34.0391  34.3775  34.7447  36.1824
    36.9762  37.9296  38.4892  41.3053  42.1726  43.1850  44.7551  45.1237
    45.6643  46.7259  47.3223  49.8466  50.1205  50.7999  50.8600  52.5629
    54.0381  54.7588  55.3881  55.7531  56.8657  58.0760  58.6095  59.3939
    59.8367  60.8795  61.1809  61.6281  62.5202  62.8275  63.6004  64.7865

     occupation numbers 
     1.0000   1.0000   1.0000   1.0000   1.0000   1.0000   1.0000   1.0000
     1.0000   1.0000   1.0000   1.0000   1.0000   1.0000   1.0000   1.0000
     1.0000   1.0000   0.0000   0.0000   0.0000   0.0000   0.0000   0.0000
     0.0000   0.0000   0.0000   0.0000   0.0000   0.0000   0.0000   0.0000
     0.0000   0.0000   0.0000   0.0000   0.0000   0.0000   0.0000   0.0000
     0.0000   0.0000   0.0000   0.0000   0.0000   0.0000   0.0000   0.0000
     0.0000   0.0000   0.0000   0.0000   0.0000   0.0000   0.0000   0.0000
     0.0000   0.0000   0.0000   0.0000   0.0000   0.0000   0.0000   0.0000
     0.0000   0.0000   0.0000   0.0000   0.0000   0.0000   0.0000   0.0000

          k = 0.0000 0.2887 0.1549 (  1974 PWs)   bands (ev):

   -10.6966 -10.3433   0.9575   1.1483   1.4138   1.4682   1.6031   1.6120
     2.3115   2.3781   2.5142   2.5790   3.5292   4.5064   4.9456   5.5131
     6.1610   6.2512  10.3378  12.8284  15.3009  16.4326  18.0189  19.2678
    19.9715  20.5078  21.9181  24.9491  25.2922  27.8382  28.6863  29.8259
    30.6040  31.4633  31.9697  33.6649  33.7599  34.4706  34.6764  36.7498
    36.8384  37.9454  39.0045  40.9136  42.2402  43.2662  43.6279  45.1347
    45.2127  46.5433  47.4819  50.1433  50.9723  51.0515  51.4820  53.0609
    53.4770  53.8915  55.5041  55.9287  56.8467  57.6192  58.0816  59.0297
    59.7424  60.5851  60.8365  61.6442  62.4143  62.6277  63.7400  63.8691

     occupation numbers 
     1.0000   1.0000   1.0000   1.0000   1.0000   1.0000   1.0000   1.0000
     1.0000   1.0000   1.0000   1.0000   1.0000   1.0000   1.0000   1.0000
     1.0000   1.0000   0.0000   0.0000   0.0000   0.0000   0.0000   0.0000
     0.0000   0.0000   0.0000   0.0000   0.0000   0.0000   0.0000   0.0000
     0.0000   0.0000   0.0000   0.0000   0.0000   0.0000   0.0000   0.0000
     0.0000   0.0000   0.0000   0.0000   0.0000   0.0000   0.0000   0.0000
     0.0000   0.0000   0.0000   0.0000   0.0000   0.0000   0.0000   0.0000
     0.0000   0.0000   0.0000   0.0000   0.0000   0.0000   0.0000   0.0000
     0.0000   0.0000   0.0000   0.0000   0.0000   0.0000   0.0000   0.0000

          k = 0.0000 0.2887 0.2065 (  1978 PWs)   bands (ev):

   -10.6450 -10.3951   0.9315   1.0498   1.4374   1.4633   1.5520   1.5769
     2.3587   2.3988   2.4949   2.5426   3.8076   4.4992   5.0203   5.6248
     6.0031   6.1460  10.6419  12.3804  15.5550  16.4333  17.9420  18.8821
    20.0017  20.3739  22.2664  24.5870  25.8790  28.2253  28.6396  29.0148
    30.6835  31.1780  32.2354  33.4884  34.2913  34.5319  34.8886  36.7762
    37.3165  37.6180  39.6185  40.1375  41.7706  43.2216  43.8806  44.2997
    45.1426  47.0243  47.6644  50.1042  51.2867  51.5656  52.1368  52.2150
    53.2393  53.9455  55.5768  56.2147  56.7659  56.8314  57.5739  59.2317
    59.8461  59.8707  60.9265  61.5572  62.3395  62.5433  62.9987  63.9518

     occupation numbers 
     1.0000   1.0000   1.0000   1.0000   1.0000   1.0000   1.0000   1.0000
     1.0000   1.0000   1.0000   1.0000   1.0000   1.0000   1.0000   1.0000
     1.0000   1.0000   0.0000   0.0000   0.0000   0.0000   0.0000   0.0000
     0.0000   0.0000   0.0000   0.0000   0.0000   0.0000   0.0000   0.0000
     0.0000   0.0000   0.0000   0.0000   0.0000   0.0000   0.0000   0.0000
     0.0000   0.0000   0.0000   0.0000   0.0000   0.0000   0.0000   0.0000
     0.0000   0.0000   0.0000   0.0000   0.0000   0.0000   0.0000   0.0000
     0.0000   0.0000   0.0000   0.0000   0.0000   0.0000   0.0000   0.0000
     0.0000   0.0000   0.0000   0.0000   0.0000   0.0000   0.0000   0.0000

          k = 0.0000 0.2887 0.2581 (  1982 PWs)   bands (ev):

   -10.5849 -10.4555   0.9191   0.9743   1.4671   1.4699   1.5145   1.5390
     2.4080   2.4225   2.4722   2.5017   4.0432   4.3928   5.2360   5.7530
     5.7786   6.0225  11.0200  11.9129  15.8294  16.3217  17.9846  18.4992
    20.0566  20.2470  22.7891  24.0336  26.5705  28.1684  28.4942  28.6811
[...]
     1.0000   1.0000   0.0000   0.0000   0.0000   0.0000   0.0000   0.0000
     0.0000   0.0000   0.0000   0.0000   0.0000   0.0000   0.0000   0.0000
     0.0000   0.0000   0.0000   0.0000   0.0000   0.0000   0.0000   0.0000
     0.0000   0.0000   0.0000   0.0000   0.0000   0.0000   0.0000   0.0000
     0.0000   0.0000   0.0000   0.0000   0.0000   0.0000   0.0000   0.0000
     0.0000   0.0000   0.0000   0.0000   0.0000   0.0000   0.0000   0.0000
     0.0000   0.0000   0.0000   0.0000   0.0000   0.0000   0.0000   0.0000

          k = 0.3333 0.5774 0.0000 (  1989 PWs)   bands (ev):

   -10.2615 -10.2615   1.2047   1.5898   1.5898   1.9491   2.1797   2.1797
     2.2651   2.3846   2.4381   2.4381   3.1546   3.3119   3.3119   4.9329
     4.9329   5.1228  14.2715  14.2715  14.4361  14.8474  17.3623  17.3623
    19.7641  20.2189  20.2189  27.6600  27.7108  27.7108  28.9798  31.1972
    32.5472  32.5472  32.7666  32.7666  33.1530  34.0792  35.2379  35.2379
    41.0358  41.0358  43.6729  43.8622  43.8622  45.0871  46.0983  46.0983
    47.1481  47.3059  47.3059  47.6599  49.6489  49.6714  49.6714  50.2308
    50.6444  50.6444  50.6740  51.5931  51.5931  53.6692  53.6692  55.0744
    56.5566  56.5566  57.5993  60.9447  60.9447  61.1994  61.9188  61.9188

     occupation numbers 
     1.0000   1.0000   1.0000   1.0000   1.0000   1.0000   1.0000   1.0000
     1.0000   1.0000   1.0000   1.0000   1.0000   1.0000   1.0000   1.0000
     1.0000   1.0000   0.0000   0.0000   0.0000   0.0000   0.0000   0.0000
     0.0000   0.0000   0.0000   0.0000   0.0000   0.0000   0.0000   0.0000
     0.0000   0.0000   0.0000   0.0000   0.0000   0.0000   0.0000   0.0000
     0.0000   0.0000   0.0000   0.0000   0.0000   0.0000   0.0000   0.0000
     0.0000   0.0000   0.0000   0.0000   0.0000   0.0000   0.0000   0.0000
     0.0000   0.0000   0.0000   0.0000   0.0000   0.0000   0.0000   0.0000
     0.0000   0.0000   0.0000   0.0000   0.0000   0.0000   0.0000   0.0000

          k = 0.3333 0.5774 0.0516 (  1986 PWs)   bands (ev):

   -10.2609 -10.2609   1.2117   1.5667   1.5667   1.9188   2.1382   2.1382
     2.2701   2.3830   2.4885   2.4885   3.1994   3.2998   3.2998   4.9790
     4.9790   5.0901  14.2809  14.2809  14.4506  14.8449  17.1944  17.1944
    19.8356  20.4008  20.4008  27.1603  27.5828  27.5828  29.2206  31.1174
    32.2903  32.2903  33.2375  33.2375  33.4919  34.2350  35.1763  35.1763
    41.0863  41.0863  43.3529  43.8557  43.8557  45.0636  46.0779  46.0779
    47.1515  47.1515  47.2712  47.4622  49.2405  49.2405  49.9153  50.0560
    50.4623  50.4623  50.8119  52.1908  52.1908  53.8984  53.8984  54.4304
    56.4618  56.4618  58.4030  60.5541  60.5541  60.9171  62.3097  62.3097

     occupation numbers 
     1.0000   1.0000   1.0000   1.0000   1.0000   1.0000   1.0000   1.0000
     1.0000   1.0000   1.0000   1.0000   1.0000   1.0000   1.0000   1.0000
     1.0000   1.0000   0.0000   0.0000   0.0000   0.0000   0.0000   0.0000
     0.0000   0.0000   0.0000   0.0000   0.0000   0.0000   0.0000   0.0000
     0.0000   0.0000   0.0000   0.0000   0.0000   0.0000   0.0000   0.0000
     0.0000   0.0000   0.0000   0.0000   0.0000   0.0000   0.0000   0.0000
     0.0000   0.0000   0.0000   0.0000   0.0000   0.0000   0.0000   0.0000
     0.0000   0.0000   0.0000   0.0000   0.0000   0.0000   0.0000   0.0000
     0.0000   0.0000   0.0000   0.0000   0.0000   0.0000   0.0000   0.0000

          k = 0.3333 0.5774 0.1032 (  1983 PWs)   bands (ev):

   -10.2593 -10.2593   1.2327   1.5025   1.5025   1.8422   2.0714   2.0714
     2.2812   2.3782   2.5825   2.5825   3.2686   3.2686   3.3226   4.9948
     5.1023   5.1023  14.3105  14.3105  14.4907  14.8369  16.7975  16.7975
    20.0501  20.8390  20.8390  26.2045  27.2490  27.2490  29.5094  30.9220
    32.1361  32.1361  33.8949  33.8949  34.3946  34.6564  35.1057  35.1057
    41.2077  41.2077  42.5653  43.7947  43.7947  45.0689  45.9383  45.9383
    46.6937  46.6937  46.9578  47.5729  48.6562  48.6562  48.8776  50.3576
    50.3576  51.0989  51.3397  53.0939  53.0939  53.4766  54.3015  54.3015
    56.2697  56.2697  59.6696  60.1223  60.1223  60.1448  62.7977  62.7977

     occupation numbers 
     1.0000   1.0000   1.0000   1.0000   1.0000   1.0000   1.0000   1.0000
     1.0000   1.0000   1.0000   1.0000   1.0000   1.0000   1.0000   1.0000
     1.0000   1.0000   0.0000   0.0000   0.0000   0.0000   0.0000   0.0000
     0.0000   0.0000   0.0000   0.0000   0.0000   0.0000   0.0000   0.0000
     0.0000   0.0000   0.0000   0.0000   0.0000   0.0000   0.0000   0.0000
     0.0000   0.0000   0.0000   0.0000   0.0000   0.0000   0.0000   0.0000
     0.0000   0.0000   0.0000   0.0000   0.0000   0.0000   0.0000   0.0000
     0.0000   0.0000   0.0000   0.0000   0.0000   0.0000   0.0000   0.0000
     0.0000   0.0000   0.0000   0.0000   0.0000   0.0000   0.0000   0.0000

          k = 0.3333 0.5774 0.1549 (  1977 PWs)   bands (ev):

   -10.2570 -10.2570   1.2675   1.4154   1.4154   1.7437   2.0214   2.0214
     2.2939   2.3705   2.6734   2.6734   3.2285   3.2285   3.5015   4.8452
     5.2661   5.2661  14.3627  14.3627  14.5479  14.8226  16.3321  16.3321
    20.4075  21.3687  21.3687  25.1586  26.8134  26.8134  29.6931  30.6852
    32.1143  32.1143  34.1317  34.1317  35.2613  35.5580  35.5580  35.6271
    41.3318  41.3318  41.6145  43.4776  43.4776  45.1441  45.4924  45.4924
    46.1332  46.3884  46.3884  47.6327  47.9998  48.3428  48.3428  50.4427
    50.4427  51.8432  52.4995  52.8510  53.7201  53.7201  54.6223  54.6223
    56.1026  56.1026  59.0878  60.0966  60.0966  60.6481  63.0269  63.0269

     occupation numbers 
     1.0000   1.0000   1.0000   1.0000   1.0000   1.0000   1.0000   1.0000
     1.0000   1.0000   1.0000   1.0000   1.0000   1.0000   1.0000   1.0000
     1.0000   1.0000   0.0000   0.0000   0.0000   0.0000   0.0000   0.0000
     0.0000   0.0000   0.0000   0.0000   0.0000   0.0000   0.0000   0.0000
     0.0000   0.0000   0.0000   0.0000   0.0000   0.0000   0.0000   0.0000
     0.0000   0.0000   0.0000   0.0000   0.0000   0.0000   0.0000   0.0000
     0.0000   0.0000   0.0000   0.0000   0.0000   0.0000   0.0000   0.0000
     0.0000   0.0000   0.0000   0.0000   0.0000   0.0000   0.0000   0.0000
     0.0000   0.0000   0.0000   0.0000   0.0000   0.0000   0.0000   0.0000

          k = 0.3333 0.5774 0.2065 (  1986 PWs)   bands (ev):

   -10.2547 -10.2547   1.3162   1.3312   1.3312   1.6407   1.9905   1.9905
     2.3071   2.3603   2.7476   2.7476   3.1889   3.1889   3.7159   4.6530
     5.4261   5.4261  14.4388  14.4388  14.6117  14.8004  15.9003  15.9003
    20.9057  21.8740  21.8740  24.1304  26.3781  26.3781  29.8249  30.4554
    32.1755  32.1755  33.9161  33.9161  35.9853  36.5722  36.5722  36.9340
    40.7608  41.3697  41.3697  42.6684  42.6684  44.7739  45.2416  45.2416
    45.2910  46.2709  46.2709  46.7587  48.2056  48.2056  48.5369  50.6664
    50.6664  51.4078  53.3476  53.6826  53.6826  54.0806  54.9793  54.9793
    56.1762  56.1762  57.9498  60.2581  60.2581  61.0370  62.5676  62.8910

     occupation numbers 
     1.0000   1.0000   1.0000   1.0000   1.0000   1.0000   1.0000   1.0000
     1.0000   1.0000   1.0000   1.0000   1.0000   1.0000   1.0000   1.0000
     1.0000   1.0000   0.0000   0.0000   0.0000   0.0000   0.0000   0.0000
     0.0000   0.0000   0.0000   0.0000   0.0000   0.0000   0.0000   0.0000
     0.0000   0.0000   0.0000   0.0000   0.0000   0.0000   0.0000   0.0000
     0.0000   0.0000   0.0000   0.0000   0.0000   0.0000   0.0000   0.0000
     0.0000   0.0000   0.0000   0.0000   0.0000   0.0000   0.0000   0.0000
     0.0000   0.0000   0.0000   0.0000   0.0000   0.0000   0.0000   0.0000
     0.0000   0.0000   0.0000   0.0000   0.0000   0.0000   0.0000   0.0000

          k = 0.3333 0.5774 0.2581 (  1992 PWs)   bands (ev):

   -10.2530 -10.2530   1.2720   1.2720   1.3787   1.5428   1.9743   1.9743
     2.3207   2.3479   2.7978   2.7978   3.1584   3.1584   3.9506   4.4312
     5.5416   5.5416  14.5263  14.5263  14.6730  14.7686  15.5757  15.5757
    21.5389  22.2536  22.2536  23.1676  26.0423  26.0423  29.9479  30.2541
    32.2667  32.2667  33.6718  33.6718  36.7715  37.6896  37.6896  37.7744
    40.5293  41.0182  41.0182  41.9350  41.9350  43.1231  45.2742  45.2742
    45.5125  46.1583  46.1583  46.2134  48.1781  48.1781  49.1697  50.6418
    50.8888  50.8888  53.5018  53.5018  54.2952  54.8073  54.8073  55.5587
    56.8467  56.8467  57.0399  59.7787  59.9866  59.9866  62.4160  62.8564

     occupation numbers 
     1.0000   1.0000   1.0000   1.0000   1.0000   1.0000   1.0000   1.0000
     1.0000   1.0000   1.0000   1.0000   1.0000   1.0000   1.0000   1.0000
     1.0000   1.0000   0.0000   0.0000   0.0000   0.0000   0.0000   0.0000
     0.0000   0.0000   0.0000   0.0000   0.0000   0.0000   0.0000   0.0000
     0.0000   0.0000   0.0000   0.0000   0.0000   0.0000   0.0000   0.0000
     0.0000   0.0000   0.0000   0.0000   0.0000   0.0000   0.0000   0.0000
     0.0000   0.0000   0.0000   0.0000   0.0000   0.0000   0.0000   0.0000
     0.0000   0.0000   0.0000   0.0000   0.0000   0.0000   0.0000   0.0000
     0.0000   0.0000   0.0000   0.0000   0.0000   0.0000   0.0000   0.0000

          k = 0.3333 0.5774-0.3097 (  1992 PWs)   bands (ev):

   -10.2524 -10.2524   1.2510   1.2510   1.4547   1.4547   1.9690   1.9690
     2.3347   2.3347   2.8163   2.8163   3.1466   3.1466   4.1930   4.1930
     5.5836   5.5836  14.5728  14.5728  14.7261  14.7261  15.4461  15.4461
    22.2975  22.2975  22.3992  22.3992  25.9117  25.9117  30.0865  30.0865
    32.3135  32.3135  33.5676  33.5676  37.5091  37.5091  38.3487  38.3487
    40.4792  40.4792  41.5389  41.5389  41.8080  41.8080  45.3254  45.3254
    45.8152  45.8152  46.0971  46.0971  48.1840  48.1840  49.8794  49.8794
    50.9782  50.9782  53.4438  53.4438  54.6491  54.6491  55.2976  55.2976
    57.2930  57.2930  57.9974  57.9974  59.6571  59.6571  62.7841  62.7841

     occupation numbers 
     1.0000   1.0000   1.0000   1.0000   1.0000   1.0000   1.0000   1.0000
     1.0000   1.0000   1.0000   1.0000   1.0000   1.0000   1.0000   1.0000
     1.0000   1.0000   0.0000   0.0000   0.0000   0.0000   0.0000   0.0000
     0.0000   0.0000   0.0000   0.0000   0.0000   0.0000   0.0000   0.0000
     0.0000   0.0000   0.0000   0.0000   0.0000   0.0000   0.0000   0.0000
     0.0000   0.0000   0.0000   0.0000   0.0000   0.0000   0.0000   0.0000
     0.0000   0.0000   0.0000   0.0000   0.0000   0.0000   0.0000   0.0000
     0.0000   0.0000   0.0000   0.0000   0.0000   0.0000   0.0000   0.0000
     0.0000   0.0000   0.0000   0.0000   0.0000   0.0000   0.0000   0.0000

     highest occupied, lowest unoccupied level (ev):     6.7738    7.5084

!    total energy              =    -361.63719150 Ry
     estimated scf accuracy    <          7.5E-11 Ry

     The total energy is the sum of the following terms:
     one-electron contribution =    -155.39823224 Ry
     hartree contribution      =     118.59679364 Ry
     xc contribution           =    -109.52980420 Ry
     ewald contribution        =    -215.30594870 Ry

     convergence has been achieved in  14 iterations

     Forces acting on atoms (cartesian axes, Ry/au):

     atom    1 type  1   force =     0.00000000    0.00000000    0.00001766
     atom    2 type  1   force =     0.00000000   -0.00000000    0.00001766
     atom    3 type  2   force =     0.00000000    0.00000000   -0.00001766
     atom    4 type  2   force =     0.00000000    0.00000000   -0.00001766
     The non-local contrib.  to forces
     atom    1 type  1   force =     0.00000000   -0.00000000   -0.00480435
     atom    2 type  1   force =     0.00000000    0.00000000   -0.00480435
     atom    3 type  2   force =     0.00000000    0.00000000    0.00539178
     atom    4 type  2   force =     0.00000000   -0.00000000    0.00539178
     The ionic contribution  to forces
     atom    1 type  1   force =    -0.00000000    0.00000000    0.06174506
     atom    2 type  1   force =     0.00000000   -0.00000000    0.06174506
     atom    3 type  2   force =    -0.00000000    0.00000000   -0.06174506
     atom    4 type  2   force =     0.00000000   -0.00000000   -0.06174506
     The local contribution  to forces
     atom    1 type  1   force =    -0.00000002    0.00000001   -0.05736985
     atom    2 type  1   force =     0.00000006   -0.00000004   -0.05736986
     atom    3 type  2   force =    -0.00000001    0.00000000    0.05639327
     atom    4 type  2   force =     0.00000002   -0.00000001    0.05639327
     The core correction contribution to forces
     atom    1 type  1   force =    -0.00000000    0.00000000    0.00046530
     atom    2 type  1   force =     0.00000001   -0.00000000    0.00046530
     atom    3 type  2   force =     0.00000000   -0.00000000   -0.00002933
     atom    4 type  2   force =    -0.00000000    0.00000000   -0.00002933
     The Hubbard contrib.    to forces
     atom    1 type  1   force =     0.00000000    0.00000000    0.00000000
     atom    2 type  1   force =     0.00000000    0.00000000    0.00000000
     atom    3 type  2   force =     0.00000000    0.00000000    0.00000000
     atom    4 type  2   force =     0.00000000    0.00000000    0.00000000
     The SCF correction term to forces
     atom    1 type  1   force =     0.00000000   -0.00000000    0.00000812
     atom    2 type  1   force =    -0.00000000    0.00000000    0.00000812
     atom    3 type  2   force =     0.00000000   -0.00000000   -0.00000169
     atom    4 type  2   force =    -0.00000000    0.00000000   -0.00000169

     Total force =     0.000035     Total SCF correction =     0.000012
     SCF correction compared to forces is large: reduce conv_thr to get better values


     Computing stress (Cartesian axis) and pressure

          total   stress  (Ry/bohr**3)                   (kbar)     P=      -10.80
  -0.00007340   0.00000000   0.00000000          -10.80        0.00        0.00
   0.00000000  -0.00007340   0.00000000            0.00      -10.80        0.00
   0.00000000   0.00000000  -0.00007352            0.00        0.00      -10.81

     kinetic stress (kbar)  23902.44      0.00      0.00
                                0.00  23902.44     -0.00
                                0.00     -0.00  23924.22

     local   stress (kbar)   3383.95     -0.00     -0.00
                               -0.00   3383.95      0.00
                               -0.00      0.00   1485.93

     nonloc. stress (kbar)  -3117.64     -0.00      0.00
                               -0.00  -3117.64      0.00
                                0.00      0.00  -3123.37

     hartree stress (kbar)  17201.85      0.00      0.00
                                0.00  17201.85     -0.00
                                0.00     -0.00  18093.52

     exc-cor stress (kbar)  13371.76      0.00      0.00
                                0.00  13371.76     -0.00
                                0.00     -0.00  13371.63

     corecor stress (kbar) -22654.52     -0.00     -0.00
                               -0.00 -22654.52      0.00
                               -0.00      0.00 -22654.22

     ewald   stress (kbar) -32098.64      0.00      0.00
                                0.00 -32098.64     -0.00
                                0.00     -0.00 -31108.52

     hubbard stress (kbar)      0.00      0.00      0.00
                                0.00      0.00      0.00
                                0.00      0.00      0.00

     DFT-D   stress (kbar)      0.00      0.00      0.00
                                0.00      0.00      0.00
                                0.00      0.00      0.00

     XDM     stress (kbar)      0.00      0.00      0.00
                                0.00      0.00      0.00
                                0.00      0.00      0.00

     dft-nl  stress (kbar)      0.00      0.00      0.00
                                0.00      0.00      0.00
                                0.00      0.00      0.00

     TS-vdW  stress (kbar)      0.00      0.00      0.00
                                0.00      0.00      0.00
                                0.00      0.00      0.00

     MDB     stress (kbar)      0.00      0.00      0.00
                                0.00      0.00      0.00
                                0.00      0.00      0.00

     3D-RISM stress (kbar)      0.00      0.00      0.00
                                0.00      0.00      0.00
                                0.00      0.00      0.00


     Writing all to output data dir ./ZnO_PBE_bulk.save/

     init_run     :     71.36s CPU    105.08s WALL (       1 calls)
     electrons    :   3392.23s CPU   5138.77s WALL (       1 calls)
     forces       :     50.54s CPU     78.57s WALL (       1 calls)
     stress       :     13.84s CPU     20.95s WALL (       1 calls)

     Called by init_run:
     wfcinit      :     70.93s CPU    104.63s WALL (       1 calls)
     wfcinit:atom :      0.01s CPU      0.00s WALL (      34 calls)
     wfcinit:wfcr :     70.87s CPU    104.59s WALL (      34 calls)
     potinit      :      0.07s CPU      0.07s WALL (       1 calls)
     hinit0       :      0.33s CPU      0.34s WALL (       1 calls)

     Called by electrons:
     c_bands      :   3113.43s CPU   4750.94s WALL (      14 calls)
     sum_band     :    276.60s CPU    385.74s WALL (      14 calls)
     v_of_rho     :      0.10s CPU      0.10s WALL (      15 calls)
     v_h          :      0.01s CPU      0.01s WALL (      15 calls)
     v_xc         :      0.10s CPU      0.10s WALL (      17 calls)
     newd         :      0.10s CPU      0.10s WALL (      15 calls)
     mix_rho      :      0.20s CPU      0.20s WALL (      14 calls)

     Called by c_bands:
     init_us_2    :      0.18s CPU      0.25s WALL (    1054 calls)
     init_us_2:cp :      0.17s CPU      0.25s WALL (    1054 calls)
     cegterg      :   2571.71s CPU   3952.89s WALL (     476 calls)

     Called by sum_band:
     sum_band:wei :      0.46s CPU      0.44s WALL (      14 calls)
     sum_band:loo :    261.50s CPU    364.10s WALL (      14 calls)
     sum_band:buf :      0.02s CPU      0.04s WALL (     476 calls)
     sum_band:ini :      0.05s CPU      0.07s WALL (     476 calls)
     sum_band:cal :    144.24s CPU    186.35s WALL (     476 calls)
     sum_band:bec :      0.03s CPU      0.06s WALL (     476 calls)
     addusdens    :      0.09s CPU      0.09s WALL (      14 calls)
                                        0.00s GPU  (      14 calls)
     addusd:skk   :      0.00s CPU      0.00s WALL (      28 calls)
                                        0.00s GPU  (      28 calls)

     Called by *egterg:
     cdiaghg      :    257.34s CPU    458.69s WALL (    1754 calls)
     cegterg:over :    592.14s CPU    822.00s WALL (    1278 calls)
     cegterg:upda :     19.52s CPU     54.38s WALL (    1278 calls)
     cegterg:last :     22.97s CPU     62.47s WALL (     843 calls)
     h_psi        :   1052.79s CPU   1735.50s WALL (    1788 calls)
     s_psi        :     10.16s CPU     26.01s WALL (    1788 calls)
     g_psi        :      0.11s CPU      0.06s WALL (    1278 calls)

     Called by h_psi:
     h_psi:calbec :    426.05s CPU    606.42s WALL (    1788 calls)
     vloc_psi     :    602.85s CPU   1049.12s WALL (    1788 calls)
     add_vuspsi   :     23.78s CPU     79.84s WALL (    1788 calls)

     General routines
     calbec       :    632.19s CPU    888.96s WALL (    2434 calls)
     fft          :      0.24s CPU      0.24s WALL (     190 calls)
     ffts         :      0.62s CPU      0.62s WALL (     413 calls)
     fftw         :    717.90s CPU   1224.16s WALL (  193576 calls)

     Parallel routines

     PWSCF        :  58m52.72s CPU      1h29m WALL


   This run was terminated on:  15:54:46  30May2025            

=------------------------------------------------------------------------------=
   JOB DONE.
=------------------------------------------------------------------------------=
