
     Program PWSCF v.7.2 starts on 30May2025 at 20:17: 3 

     This program is part of the open-source Quantum ESPRESSO suite
     for quantum simulation of materials; please cite
         "P. Giannozzi et al., J. Phys.:Condens. Matter 21 395502 (2009);
         "P. Giannozzi et al., J. Phys.:Condens. Matter 29 465901 (2017);
         "P. Giannozzi et al., J. Chem. Phys. 152 154105 (2020);
          URL http://www.quantum-espresso.org", 
     in publications or presentations arising from this work. More details at
     http://www.quantum-espresso.org/quote

     Parallel version (MPI), running on    64 processors

     MPI processes distributed on     1 nodes
     125684 MiB available memory on the printing compute node when the environment starts

     Reading input from ecut_110.in

     Current dimensions of program PWSCF are:
     Max number of different atomic species (ntypx) = 10
     Max number of k-points (npk) =  40000
     Max angular momentum in pseudopotentials (lmaxx) =  4
     file Zn.upf: wavefunction(s)  3D renormalized

     K-points division:     npool     =       2
     R & G space division:  proc/nbgrp/npool/nimage =      32
     Subspace diagonalization in iterative solution of the eigenvalue problem:
     a serial algorithm will be used


     Parallelization info
     --------------------
     sticks:   dense  smooth     PW     G-vecs:    dense   smooth      PW
     Min          36      36     10                 1616     1616     246
     Max          37      37     13                 1625     1625     249
     Sum        1159    1159    337                51781    51781    7931

     Using Slab Decomposition



     bravais-lattice index     =            4
     lattice parameter (alat)  =       6.1946  a.u.
     unit-cell volume          =     332.3260 (a.u.)^3
     number of atoms/cell      =            4
     number of atomic types    =            2
     number of electrons       =        36.00
     number of Kohn-Sham states=           72
     kinetic-energy cutoff     =     110.0000  Ry
     charge density cutoff     =     440.0000  Ry
     scf convergence threshold =      1.0E-09
     mixing beta               =       0.1000
     number of iterations used =            8  local-TF  mixing
     Exchange-correlation= PBE
                           (   1   4   3   4   0   0   0)

     celldm(1)=   6.194571  celldm(2)=   0.000000  celldm(3)=   1.614358
     celldm(4)=   0.000000  celldm(5)=   0.000000  celldm(6)=   0.000000

     crystal axes: (cart. coord. in units of alat)
               a(1) = (   1.000000   0.000000   0.000000 )  
               a(2) = (  -0.500000   0.866025   0.000000 )  
               a(3) = (   0.000000   0.000000   1.614358 )  

     reciprocal axes: (cart. coord. in units 2 pi/alat)
               b(1) = (  1.000000  0.577350 -0.000000 )  
               b(2) = (  0.000000  1.154701  0.000000 )  
               b(3) = (  0.000000 -0.000000  0.619441 )  


     PseudoPot. # 1 for Zn read from file:
     ../pseudos/Zn.upf
     MD5 check sum: 7f56cabf9682ed8c977c2f7d0c5985c5
     Pseudo is Ultrasoft + core correction, Zval = 12.0
     Generated using &quot;atomic&quot; code by A. Dal Corso  v.6.2.2
     Using radial grid of 1201 points,  6 beta functions with: 
                l(1) =   0
                l(2) =   0
                l(3) =   1
                l(4) =   1
                l(5) =   2
                l(6) =   2
     Q(r) pseudized with 0 coefficients 


     PseudoPot. # 2 for O  read from file:
     ../pseudos/O.upf
     MD5 check sum: 91400c9766925bcf19f520983a725ff0
     Pseudo is Ultrasoft + core correction, Zval =  6.0
     Generated using &quot;atomic&quot; code by A. Dal Corso  v.6.3MaX
     Using radial grid of 1095 points,  4 beta functions with: 
                l(1) =   0
                l(2) =   0
                l(3) =   1
                l(4) =   1
     Q(r) pseudized with 0 coefficients 


     atomic species   valence    mass     pseudopotential
        Zn            12.00    63.38000     Zn( 1.00)
        O              6.00    15.99900     O ( 1.00)

     12 Sym. Ops. (no inversion) found ( 6 have fractional translation)


                                    s                        frac. trans.

      isym =  1     identity                                     

 cryst.   s( 1) = (     1          0          0      )
                  (     0          1          0      )
                  (     0          0          1      )

 cart.    s( 1) = (  1.0000000  0.0000000  0.0000000 )
                  (  0.0000000  1.0000000  0.0000000 )
                  (  0.0000000  0.0000000  1.0000000 )


      isym =  2     180 deg rotation - cart. axis [0,0,1]        

 cryst.   s( 2) = (    -1          0          0      )    f =(  0.0000000 )
                  (     0         -1          0      )       (  0.0000000 )
                  (     0          0          1      )       (  0.5000000 )

 cart.    s( 2) = ( -1.0000000  0.0000000  0.0000000 )    f =(  0.0000000 )
                  (  0.0000000 -1.0000000  0.0000000 )       (  0.0000000 )
                  (  0.0000000  0.0000000  1.0000000 )       (  0.8071792 )


      isym =  3      60 deg rotation - cryst. axis [0,0,1]       

 cryst.   s( 3) = (     1          1          0      )    f =( -0.0000000 )
                  (    -1          0          0      )       (  0.0000000 )
                  (     0          0          1      )       (  0.5000000 )

 cart.    s( 3) = (  0.5000000 -0.8660254  0.0000000 )    f =( -0.0000000 )
                  (  0.8660254  0.5000000  0.0000000 )       (  0.0000000 )
                  (  0.0000000  0.0000000  1.0000000 )       (  0.8071792 )


      isym =  4      60 deg rotation - cryst. axis [0,0,-1]      

 cryst.   s( 4) = (     0         -1          0      )    f =(  0.0000000 )
                  (     1          1          0      )       (  0.0000000 )
                  (     0          0          1      )       (  0.5000000 )

 cart.    s( 4) = (  0.5000000  0.8660254  0.0000000 )    f =( -0.0000000 )
                  ( -0.8660254  0.5000000  0.0000000 )       (  0.0000000 )
                  (  0.0000000  0.0000000  1.0000000 )       (  0.8071792 )


      isym =  5     120 deg rotation - cryst. axis [0,0,1]       

 cryst.   s( 5) = (     0          1          0      )
                  (    -1         -1          0      )
                  (     0          0          1      )

 cart.    s( 5) = ( -0.5000000 -0.8660254  0.0000000 )
                  (  0.8660254 -0.5000000  0.0000000 )
                  (  0.0000000  0.0000000  1.0000000 )


      isym =  6     120 deg rotation - cryst. axis [0,0,-1]      

 cryst.   s( 6) = (    -1         -1          0      )
                  (     1          0          0      )
                  (     0          0          1      )

 cart.    s( 6) = ( -0.5000000  0.8660254  0.0000000 )
                  ( -0.8660254 -0.5000000  0.0000000 )
                  (  0.0000000  0.0000000  1.0000000 )


      isym =  7     inv. 180 deg rotation - cart. axis [0,1,0]   

 cryst.   s( 7) = (     1          0          0      )    f =( -0.0000000 )
                  (    -1         -1          0      )       (  0.0000000 )
                  (     0          0          1      )       (  0.5000000 )

 cart.    s( 7) = (  1.0000000  0.0000000  0.0000000 )    f =( -0.0000000 )
                  (  0.0000000 -1.0000000  0.0000000 )       (  0.0000000 )
                  (  0.0000000  0.0000000  1.0000000 )       (  0.8071792 )


      isym =  8     inv. 180 deg rotation - cart. axis [1,0,0]   

 cryst.   s( 8) = (    -1          0          0      )
                  (     1          1          0      )
                  (     0          0          1      )

 cart.    s( 8) = ( -1.0000000  0.0000000  0.0000000 )
                  (  0.0000000  1.0000000  0.0000000 )
                  (  0.0000000  0.0000000  1.0000000 )


      isym =  9     inv. 180 deg rotation - cryst. axis [1,-1,0] 

 cryst.   s( 9) = (     0          1          0      )    f =(  0.0000000 )
                  (     1          0          0      )       (  0.0000000 )
                  (     0          0          1      )       (  0.5000000 )

 cart.    s( 9) = ( -0.5000000  0.8660254  0.0000000 )    f =(  0.0000000 )
                  (  0.8660254  0.5000000  0.0000000 )       (  0.0000000 )
                  (  0.0000000  0.0000000  1.0000000 )       (  0.8071792 )


      isym = 10     inv. 180 deg rotation - cryst. axis [2,1,0]  

 cryst.   s(10) = (    -1         -1          0      )    f =(  0.0000000 )
                  (     0          1          0      )       (  0.0000000 )
                  (     0          0          1      )       (  0.5000000 )

 cart.    s(10) = ( -0.5000000 -0.8660254  0.0000000 )    f =( -0.0000000 )
                  ( -0.8660254  0.5000000  0.0000000 )       (  0.0000000 )
                  (  0.0000000  0.0000000  1.0000000 )       (  0.8071792 )


      isym = 11     inv. 180 deg rotation - cryst. axis [0,1,0]  

 cryst.   s(11) = (     1          1          0      )
                  (     0         -1          0      )
                  (     0          0          1      )

 cart.    s(11) = (  0.5000000  0.8660254  0.0000000 )
                  (  0.8660254 -0.5000000  0.0000000 )
                  (  0.0000000  0.0000000  1.0000000 )


      isym = 12     inv. 180 deg rotation - cryst. axis [1,1,0]  

 cryst.   s(12) = (     0         -1          0      )
                  (    -1          0          0      )
                  (     0          0          1      )

 cart.    s(12) = (  0.5000000 -0.8660254  0.0000000 )
                  ( -0.8660254 -0.5000000  0.0000000 )
                  (  0.0000000  0.0000000  1.0000000 )


     point group C_6v (6mm) 
     there are  6 classes
     the character table:

       E     2C6   2C3   C2    3s_v  3s_d 
A_1    1.00  1.00  1.00  1.00  1.00  1.00
A_2    1.00  1.00  1.00  1.00 -1.00 -1.00
B_1    1.00 -1.00  1.00 -1.00  1.00 -1.00
B_2    1.00 -1.00  1.00 -1.00 -1.00  1.00
E_1    2.00  1.00 -1.00 -2.00  0.00  0.00
E_2    2.00 -1.00 -1.00  2.00  0.00  0.00

     the symmetry operations in each class and the name of the first element:

     E        1
          identity                                               
     2C6      3    4
           60 deg rotation - cryst. axis [0,0,1]                 
     2C3      5    6
          120 deg rotation - cryst. axis [0,0,1]                 
     C2       2
          180 deg rotation - cart. axis [0,0,1]                  
     3s_v     8   12   11
          inv. 180 deg rotation - cart. axis [1,0,0]             
     3s_d     7    9   10
          inv. 180 deg rotation - cart. axis [0,1,0]             

   Cartesian axes

     site n.     atom                  positions (alat units)
         1           Zn  tau(   1) = (   0.5000000   0.2886751   0.8082166  )
         2           Zn  tau(   2) = (  -0.0000000   0.5773503   0.0010374  )
         3           O   tau(   3) = (   0.5000000   0.2886751   1.4200984  )
         4           O   tau(   4) = (  -0.0000000   0.5773503   0.6129192  )

   Crystallographic axes

     site n.     atom                  positions (cryst. coord.)
         1           Zn  tau(   1) = (  0.6666667  0.3333333  0.5006426  )
         2           Zn  tau(   2) = (  0.3333333  0.6666667  0.0006426  )
         3           O   tau(   3) = (  0.6666667  0.3333333  0.8796674  )
         4           O   tau(   4) = (  0.3333333  0.6666667  0.3796674  )

     number of k points=   133
                       cart. coord. in units 2pi/alat
        k(    1) = (   0.0000000   0.0000000   0.0000000), wk =   0.0011574
        k(    2) = (   0.0000000   0.0000000   0.0516201), wk =   0.0023148
        k(    3) = (   0.0000000   0.0000000   0.1032402), wk =   0.0023148
        k(    4) = (   0.0000000   0.0000000   0.1548603), wk =   0.0023148
        k(    5) = (   0.0000000   0.0000000   0.2064804), wk =   0.0023148
        k(    6) = (   0.0000000   0.0000000   0.2581005), wk =   0.0023148
        k(    7) = (   0.0000000   0.0000000  -0.3097206), wk =   0.0011574
        k(    8) = (   0.0000000   0.0962250   0.0000000), wk =   0.0069444
        k(    9) = (   0.0000000   0.0962250   0.0516201), wk =   0.0138889
        k(   10) = (   0.0000000   0.0962250   0.1032402), wk =   0.0138889
        k(   11) = (   0.0000000   0.0962250   0.1548603), wk =   0.0138889
        k(   12) = (   0.0000000   0.0962250   0.2064804), wk =   0.0138889
        k(   13) = (   0.0000000   0.0962250   0.2581005), wk =   0.0138889
        k(   14) = (   0.0000000   0.0962250  -0.3097206), wk =   0.0069444
        k(   15) = (   0.0000000   0.1924501   0.0000000), wk =   0.0069444
        k(   16) = (   0.0000000   0.1924501   0.0516201), wk =   0.0138889
        k(   17) = (   0.0000000   0.1924501   0.1032402), wk =   0.0138889
        k(   18) = (   0.0000000   0.1924501   0.1548603), wk =   0.0138889
        k(   19) = (   0.0000000   0.1924501   0.2064804), wk =   0.0138889
        k(   20) = (   0.0000000   0.1924501   0.2581005), wk =   0.0138889
        k(   21) = (   0.0000000   0.1924501  -0.3097206), wk =   0.0069444
        k(   22) = (   0.0000000   0.2886751   0.0000000), wk =   0.0069444
        k(   23) = (   0.0000000   0.2886751   0.0516201), wk =   0.0138889
        k(   24) = (   0.0000000   0.2886751   0.1032402), wk =   0.0138889
        k(   25) = (   0.0000000   0.2886751   0.1548603), wk =   0.0138889
        k(   26) = (   0.0000000   0.2886751   0.2064804), wk =   0.0138889
        k(   27) = (   0.0000000   0.2886751   0.2581005), wk =   0.0138889
        k(   28) = (   0.0000000   0.2886751  -0.3097206), wk =   0.0069444
        k(   29) = (   0.0000000   0.3849002   0.0000000), wk =   0.0069444
        k(   30) = (   0.0000000   0.3849002   0.0516201), wk =   0.0138889
        k(   31) = (   0.0000000   0.3849002   0.1032402), wk =   0.0138889
        k(   32) = (   0.0000000   0.3849002   0.1548603), wk =   0.0138889
        k(   33) = (   0.0000000   0.3849002   0.2064804), wk =   0.0138889
        k(   34) = (   0.0000000   0.3849002   0.2581005), wk =   0.0138889
        k(   35) = (   0.0000000   0.3849002  -0.3097206), wk =   0.0069444
        k(   36) = (   0.0000000   0.4811252   0.0000000), wk =   0.0069444
        k(   37) = (   0.0000000   0.4811252   0.0516201), wk =   0.0138889
        k(   38) = (   0.0000000   0.4811252   0.1032402), wk =   0.0138889
        k(   39) = (   0.0000000   0.4811252   0.1548603), wk =   0.0138889
        k(   40) = (   0.0000000   0.4811252   0.2064804), wk =   0.0138889
        k(   41) = (   0.0000000   0.4811252   0.2581005), wk =   0.0138889
        k(   42) = (   0.0000000   0.4811252  -0.3097206), wk =   0.0069444
        k(   43) = (   0.0000000  -0.5773503   0.0000000), wk =   0.0034722
        k(   44) = (   0.0000000  -0.5773503   0.0516201), wk =   0.0069444
        k(   45) = (   0.0000000  -0.5773503   0.1032402), wk =   0.0069444
        k(   46) = (   0.0000000  -0.5773503   0.1548603), wk =   0.0069444
        k(   47) = (   0.0000000  -0.5773503   0.2064804), wk =   0.0069444
        k(   48) = (   0.0000000  -0.5773503   0.2581005), wk =   0.0069444
        k(   49) = (   0.0000000  -0.5773503  -0.3097206), wk =   0.0034722
        k(   50) = (   0.0833333   0.1443376   0.0000000), wk =   0.0069444
        k(   51) = (   0.0833333   0.1443376   0.0516201), wk =   0.0138889
        k(   52) = (   0.0833333   0.1443376   0.1032402), wk =   0.0138889
        k(   53) = (   0.0833333   0.1443376   0.1548603), wk =   0.0138889
        k(   54) = (   0.0833333   0.1443376   0.2064804), wk =   0.0138889
        k(   55) = (   0.0833333   0.1443376   0.2581005), wk =   0.0138889
        k(   56) = (   0.0833333   0.1443376  -0.3097206), wk =   0.0069444
        k(   57) = (   0.0833333   0.2405626   0.0000000), wk =   0.0138889
        k(   58) = (   0.0833333   0.2405626   0.0516201), wk =   0.0277778
        k(   59) = (   0.0833333   0.2405626   0.1032402), wk =   0.0277778
        k(   60) = (   0.0833333   0.2405626   0.1548603), wk =   0.0277778
        k(   61) = (   0.0833333   0.2405626   0.2064804), wk =   0.0277778
        k(   62) = (   0.0833333   0.2405626   0.2581005), wk =   0.0277778
        k(   63) = (   0.0833333   0.2405626  -0.3097206), wk =   0.0138889
        k(   64) = (   0.0833333   0.3367877   0.0000000), wk =   0.0138889
        k(   65) = (   0.0833333   0.3367877   0.0516201), wk =   0.0277778
        k(   66) = (   0.0833333   0.3367877   0.1032402), wk =   0.0277778
        k(   67) = (   0.0833333   0.3367877   0.1548603), wk =   0.0277778
        k(   68) = (   0.0833333   0.3367877   0.2064804), wk =   0.0277778
        k(   69) = (   0.0833333   0.3367877   0.2581005), wk =   0.0277778
        k(   70) = (   0.0833333   0.3367877  -0.3097206), wk =   0.0138889
        k(   71) = (   0.0833333   0.4330127   0.0000000), wk =   0.0138889
        k(   72) = (   0.0833333   0.4330127   0.0516201), wk =   0.0277778
        k(   73) = (   0.0833333   0.4330127   0.1032402), wk =   0.0277778
        k(   74) = (   0.0833333   0.4330127   0.1548603), wk =   0.0277778
        k(   75) = (   0.0833333   0.4330127   0.2064804), wk =   0.0277778
        k(   76) = (   0.0833333   0.4330127   0.2581005), wk =   0.0277778
        k(   77) = (   0.0833333   0.4330127  -0.3097206), wk =   0.0138889
        k(   78) = (   0.0833333   0.5292377   0.0000000), wk =   0.0138889
        k(   79) = (   0.0833333   0.5292377   0.0516201), wk =   0.0277778
        k(   80) = (   0.0833333   0.5292377   0.1032402), wk =   0.0277778
        k(   81) = (   0.0833333   0.5292377   0.1548603), wk =   0.0277778
        k(   82) = (   0.0833333   0.5292377   0.2064804), wk =   0.0277778
        k(   83) = (   0.0833333   0.5292377   0.2581005), wk =   0.0277778
        k(   84) = (   0.0833333   0.5292377  -0.3097206), wk =   0.0138889
        k(   85) = (   0.1666667   0.2886751   0.0000000), wk =   0.0069444
        k(   86) = (   0.1666667   0.2886751   0.0516201), wk =   0.0138889
        k(   87) = (   0.1666667   0.2886751   0.1032402), wk =   0.0138889
        k(   88) = (   0.1666667   0.2886751   0.1548603), wk =   0.0138889
        k(   89) = (   0.1666667   0.2886751   0.2064804), wk =   0.0138889
        k(   90) = (   0.1666667   0.2886751   0.2581005), wk =   0.0138889
        k(   91) = (   0.1666667   0.2886751  -0.3097206), wk =   0.0069444
        k(   92) = (   0.1666667   0.3849002   0.0000000), wk =   0.0138889
        k(   93) = (   0.1666667   0.3849002   0.0516201), wk =   0.0277778
        k(   94) = (   0.1666667   0.3849002   0.1032402), wk =   0.0277778
        k(   95) = (   0.1666667   0.3849002   0.1548603), wk =   0.0277778
        k(   96) = (   0.1666667   0.3849002   0.2064804), wk =   0.0277778
        k(   97) = (   0.1666667   0.3849002   0.2581005), wk =   0.0277778
        k(   98) = (   0.1666667   0.3849002  -0.3097206), wk =   0.0138889
        k(   99) = (   0.1666667   0.4811252   0.0000000), wk =   0.0138889
        k(  100) = (   0.1666667   0.4811252   0.0516201), wk =   0.0277778
        k(  101) = (   0.1666667   0.4811252   0.1032402), wk =   0.0277778
        k(  102) = (   0.1666667   0.4811252   0.1548603), wk =   0.0277778
        k(  103) = (   0.1666667   0.4811252   0.2064804), wk =   0.0277778
        k(  104) = (   0.1666667   0.4811252   0.2581005), wk =   0.0277778
        k(  105) = (   0.1666667   0.4811252  -0.3097206), wk =   0.0138889
        k(  106) = (   0.1666667   0.5773503   0.0000000), wk =   0.0069444
        k(  107) = (   0.1666667   0.5773503   0.0516201), wk =   0.0138889
        k(  108) = (   0.1666667   0.5773503   0.1032402), wk =   0.0138889
        k(  109) = (   0.1666667   0.5773503   0.1548603), wk =   0.0138889
        k(  110) = (   0.1666667   0.5773503   0.2064804), wk =   0.0138889
        k(  111) = (   0.1666667   0.5773503   0.2581005), wk =   0.0138889
        k(  112) = (   0.1666667   0.5773503  -0.3097206), wk =   0.0069444
        k(  113) = (   0.2500000   0.4330127   0.0000000), wk =   0.0069444
        k(  114) = (   0.2500000   0.4330127   0.0516201), wk =   0.0138889
        k(  115) = (   0.2500000   0.4330127   0.1032402), wk =   0.0138889
        k(  116) = (   0.2500000   0.4330127   0.1548603), wk =   0.0138889
        k(  117) = (   0.2500000   0.4330127   0.2064804), wk =   0.0138889
        k(  118) = (   0.2500000   0.4330127   0.2581005), wk =   0.0138889
        k(  119) = (   0.2500000   0.4330127  -0.3097206), wk =   0.0069444
        k(  120) = (   0.2500000   0.5292377   0.0000000), wk =   0.0138889
        k(  121) = (   0.2500000   0.5292377   0.0516201), wk =   0.0277778
        k(  122) = (   0.2500000   0.5292377   0.1032402), wk =   0.0277778
        k(  123) = (   0.2500000   0.5292377   0.1548603), wk =   0.0277778
        k(  124) = (   0.2500000   0.5292377   0.2064804), wk =   0.0277778
        k(  125) = (   0.2500000   0.5292377   0.2581005), wk =   0.0277778
        k(  126) = (   0.2500000   0.5292377  -0.3097206), wk =   0.0138889
        k(  127) = (   0.3333333   0.5773503   0.0000000), wk =   0.0023148
        k(  128) = (   0.3333333   0.5773503   0.0516201), wk =   0.0046296
        k(  129) = (   0.3333333   0.5773503   0.1032402), wk =   0.0046296
        k(  130) = (   0.3333333   0.5773503   0.1548603), wk =   0.0046296
        k(  131) = (   0.3333333   0.5773503   0.2064804), wk =   0.0046296
        k(  132) = (   0.3333333   0.5773503   0.2581005), wk =   0.0046296
        k(  133) = (   0.3333333   0.5773503  -0.3097206), wk =   0.0023148

                       cryst. coord.
        k(    1) = (   0.0000000   0.0000000   0.0000000), wk =   0.0011574
        k(    2) = (   0.0000000   0.0000000   0.0833333), wk =   0.0023148
        k(    3) = (   0.0000000   0.0000000   0.1666667), wk =   0.0023148
        k(    4) = (   0.0000000   0.0000000   0.2500000), wk =   0.0023148
        k(    5) = (   0.0000000   0.0000000   0.3333333), wk =   0.0023148
        k(    6) = (   0.0000000   0.0000000   0.4166667), wk =   0.0023148
        k(    7) = (   0.0000000   0.0000000  -0.5000000), wk =   0.0011574
        k(    8) = (   0.0000000   0.0833333   0.0000000), wk =   0.0069444
        k(    9) = (   0.0000000   0.0833333   0.0833333), wk =   0.0138889
        k(   10) = (   0.0000000   0.0833333   0.1666667), wk =   0.0138889
        k(   11) = (   0.0000000   0.0833333   0.2500000), wk =   0.0138889
        k(   12) = (   0.0000000   0.0833333   0.3333333), wk =   0.0138889
        k(   13) = (   0.0000000   0.0833333   0.4166667), wk =   0.0138889
        k(   14) = (   0.0000000   0.0833333  -0.5000000), wk =   0.0069444
        k(   15) = (   0.0000000   0.1666667   0.0000000), wk =   0.0069444
        k(   16) = (   0.0000000   0.1666667   0.0833333), wk =   0.0138889
        k(   17) = (   0.0000000   0.1666667   0.1666667), wk =   0.0138889
        k(   18) = (   0.0000000   0.1666667   0.2500000), wk =   0.0138889
        k(   19) = (   0.0000000   0.1666667   0.3333333), wk =   0.0138889
        k(   20) = (   0.0000000   0.1666667   0.4166667), wk =   0.0138889
        k(   21) = (   0.0000000   0.1666667  -0.5000000), wk =   0.0069444
        k(   22) = (   0.0000000   0.2500000   0.0000000), wk =   0.0069444
        k(   23) = (   0.0000000   0.2500000   0.0833333), wk =   0.0138889
        k(   24) = (   0.0000000   0.2500000   0.1666667), wk =   0.0138889
        k(   25) = (   0.0000000   0.2500000   0.2500000), wk =   0.0138889
        k(   26) = (   0.0000000   0.2500000   0.3333333), wk =   0.0138889
        k(   27) = (   0.0000000   0.2500000   0.4166667), wk =   0.0138889
        k(   28) = (   0.0000000   0.2500000  -0.5000000), wk =   0.0069444
        k(   29) = (   0.0000000   0.3333333   0.0000000), wk =   0.0069444
        k(   30) = (   0.0000000   0.3333333   0.0833333), wk =   0.0138889
        k(   31) = (   0.0000000   0.3333333   0.1666667), wk =   0.0138889
        k(   32) = (   0.0000000   0.3333333   0.2500000), wk =   0.0138889
        k(   33) = (   0.0000000   0.3333333   0.3333333), wk =   0.0138889
        k(   34) = (   0.0000000   0.3333333   0.4166667), wk =   0.0138889
        k(   35) = (   0.0000000   0.3333333  -0.5000000), wk =   0.0069444
        k(   36) = (   0.0000000   0.4166667   0.0000000), wk =   0.0069444
        k(   37) = (   0.0000000   0.4166667   0.0833333), wk =   0.0138889
        k(   38) = (   0.0000000   0.4166667   0.1666667), wk =   0.0138889
        k(   39) = (   0.0000000   0.4166667   0.2500000), wk =   0.0138889
        k(   40) = (   0.0000000   0.4166667   0.3333333), wk =   0.0138889
        k(   41) = (   0.0000000   0.4166667   0.4166667), wk =   0.0138889
        k(   42) = (   0.0000000   0.4166667  -0.5000000), wk =   0.0069444
        k(   43) = (   0.0000000  -0.5000000   0.0000000), wk =   0.0034722
        k(   44) = (   0.0000000  -0.5000000   0.0833333), wk =   0.0069444
        k(   45) = (   0.0000000  -0.5000000   0.1666667), wk =   0.0069444
        k(   46) = (   0.0000000  -0.5000000   0.2500000), wk =   0.0069444
        k(   47) = (   0.0000000  -0.5000000   0.3333333), wk =   0.0069444
        k(   48) = (   0.0000000  -0.5000000   0.4166667), wk =   0.0069444
        k(   49) = (   0.0000000  -0.5000000  -0.5000000), wk =   0.0034722
        k(   50) = (   0.0833333   0.0833333   0.0000000), wk =   0.0069444
        k(   51) = (   0.0833333   0.0833333   0.0833333), wk =   0.0138889
        k(   52) = (   0.0833333   0.0833333   0.1666667), wk =   0.0138889
        k(   53) = (   0.0833333   0.0833333   0.2500000), wk =   0.0138889
        k(   54) = (   0.0833333   0.0833333   0.3333333), wk =   0.0138889
        k(   55) = (   0.0833333   0.0833333   0.4166667), wk =   0.0138889
        k(   56) = (   0.0833333   0.0833333  -0.5000000), wk =   0.0069444
        k(   57) = (   0.0833333   0.1666667   0.0000000), wk =   0.0138889
        k(   58) = (   0.0833333   0.1666667   0.0833333), wk =   0.0277778
        k(   59) = (   0.0833333   0.1666667   0.1666667), wk =   0.0277778
        k(   60) = (   0.0833333   0.1666667   0.2500000), wk =   0.0277778
        k(   61) = (   0.0833333   0.1666667   0.3333333), wk =   0.0277778
        k(   62) = (   0.0833333   0.1666667   0.4166667), wk =   0.0277778
        k(   63) = (   0.0833333   0.1666667  -0.5000000), wk =   0.0138889
        k(   64) = (   0.0833333   0.2500000   0.0000000), wk =   0.0138889
        k(   65) = (   0.0833333   0.2500000   0.0833333), wk =   0.0277778
        k(   66) = (   0.0833333   0.2500000   0.1666667), wk =   0.0277778
        k(   67) = (   0.0833333   0.2500000   0.2500000), wk =   0.0277778
        k(   68) = (   0.0833333   0.2500000   0.3333333), wk =   0.0277778
        k(   69) = (   0.0833333   0.2500000   0.4166667), wk =   0.0277778
        k(   70) = (   0.0833333   0.2500000  -0.5000000), wk =   0.0138889
        k(   71) = (   0.0833333   0.3333333   0.0000000), wk =   0.0138889
        k(   72) = (   0.0833333   0.3333333   0.0833333), wk =   0.0277778
        k(   73) = (   0.0833333   0.3333333   0.1666667), wk =   0.0277778
        k(   74) = (   0.0833333   0.3333333   0.2500000), wk =   0.0277778
        k(   75) = (   0.0833333   0.3333333   0.3333333), wk =   0.0277778
        k(   76) = (   0.0833333   0.3333333   0.4166667), wk =   0.0277778
        k(   77) = (   0.0833333   0.3333333  -0.5000000), wk =   0.0138889
        k(   78) = (   0.0833333   0.4166667   0.0000000), wk =   0.0138889
        k(   79) = (   0.0833333   0.4166667   0.0833333), wk =   0.0277778
        k(   80) = (   0.0833333   0.4166667   0.1666667), wk =   0.0277778
        k(   81) = (   0.0833333   0.4166667   0.2500000), wk =   0.0277778
        k(   82) = (   0.0833333   0.4166667   0.3333333), wk =   0.0277778
        k(   83) = (   0.0833333   0.4166667   0.4166667), wk =   0.0277778
        k(   84) = (   0.0833333   0.4166667  -0.5000000), wk =   0.0138889
        k(   85) = (   0.1666667   0.1666667   0.0000000), wk =   0.0069444
        k(   86) = (   0.1666667   0.1666667   0.0833333), wk =   0.0138889
        k(   87) = (   0.1666667   0.1666667   0.1666667), wk =   0.0138889
        k(   88) = (   0.1666667   0.1666667   0.2500000), wk =   0.0138889
        k(   89) = (   0.1666667   0.1666667   0.3333333), wk =   0.0138889
        k(   90) = (   0.1666667   0.1666667   0.4166667), wk =   0.0138889
        k(   91) = (   0.1666667   0.1666667  -0.5000000), wk =   0.0069444
        k(   92) = (   0.1666667   0.2500000   0.0000000), wk =   0.0138889
        k(   93) = (   0.1666667   0.2500000   0.0833333), wk =   0.0277778
        k(   94) = (   0.1666667   0.2500000   0.1666667), wk =   0.0277778
        k(   95) = (   0.1666667   0.2500000   0.2500000), wk =   0.0277778
        k(   96) = (   0.1666667   0.2500000   0.3333333), wk =   0.0277778
        k(   97) = (   0.1666667   0.2500000   0.4166667), wk =   0.0277778
        k(   98) = (   0.1666667   0.2500000  -0.5000000), wk =   0.0138889
        k(   99) = (   0.1666667   0.3333333   0.0000000), wk =   0.0138889
        k(  100) = (   0.1666667   0.3333333   0.0833333), wk =   0.0277778
        k(  101) = (   0.1666667   0.3333333   0.1666667), wk =   0.0277778
        k(  102) = (   0.1666667   0.3333333   0.2500000), wk =   0.0277778
        k(  103) = (   0.1666667   0.3333333   0.3333333), wk =   0.0277778
        k(  104) = (   0.1666667   0.3333333   0.4166667), wk =   0.0277778
        k(  105) = (   0.1666667   0.3333333  -0.5000000), wk =   0.0138889
        k(  106) = (   0.1666667   0.4166667   0.0000000), wk =   0.0069444
        k(  107) = (   0.1666667   0.4166667   0.0833333), wk =   0.0138889
        k(  108) = (   0.1666667   0.4166667   0.1666667), wk =   0.0138889
        k(  109) = (   0.1666667   0.4166667   0.2500000), wk =   0.0138889
        k(  110) = (   0.1666667   0.4166667   0.3333333), wk =   0.0138889
        k(  111) = (   0.1666667   0.4166667   0.4166667), wk =   0.0138889
        k(  112) = (   0.1666667   0.4166667  -0.5000000), wk =   0.0069444
        k(  113) = (   0.2500000   0.2500000   0.0000000), wk =   0.0069444
        k(  114) = (   0.2500000   0.2500000   0.0833333), wk =   0.0138889
        k(  115) = (   0.2500000   0.2500000   0.1666667), wk =   0.0138889
        k(  116) = (   0.2500000   0.2500000   0.2500000), wk =   0.0138889
        k(  117) = (   0.2500000   0.2500000   0.3333333), wk =   0.0138889
        k(  118) = (   0.2500000   0.2500000   0.4166667), wk =   0.0138889
        k(  119) = (   0.2500000   0.2500000  -0.5000000), wk =   0.0069444
        k(  120) = (   0.2500000   0.3333333   0.0000000), wk =   0.0138889
        k(  121) = (   0.2500000   0.3333333   0.0833333), wk =   0.0277778
        k(  122) = (   0.2500000   0.3333333   0.1666667), wk =   0.0277778
        k(  123) = (   0.2500000   0.3333333   0.2500000), wk =   0.0277778
        k(  124) = (   0.2500000   0.3333333   0.3333333), wk =   0.0277778
        k(  125) = (   0.2500000   0.3333333   0.4166667), wk =   0.0277778
        k(  126) = (   0.2500000   0.3333333  -0.5000000), wk =   0.0138889
        k(  127) = (   0.3333333   0.3333333   0.0000000), wk =   0.0023148
        k(  128) = (   0.3333333   0.3333333   0.0833333), wk =   0.0046296
        k(  129) = (   0.3333333   0.3333333   0.1666667), wk =   0.0046296
        k(  130) = (   0.3333333   0.3333333   0.2500000), wk =   0.0046296
        k(  131) = (   0.3333333   0.3333333   0.3333333), wk =   0.0046296
        k(  132) = (   0.3333333   0.3333333   0.4166667), wk =   0.0046296
        k(  133) = (   0.3333333   0.3333333  -0.5000000), wk =   0.0023148

     Dense  grid:    51781 G-vectors     FFT dimensions: (  45,  45,  72)

     Dynamical RAM for                 wfc:       0.22 MB

     Dynamical RAM for     wfc (w. buffer):      15.09 MB

     Dynamical RAM for           str. fact:       0.05 MB

     Dynamical RAM for           local pot:       0.00 MB

     Dynamical RAM for          nlocal pot:       0.16 MB

     Dynamical RAM for                qrad:       3.37 MB

     Dynamical RAM for          rho,v,vnew:       0.21 MB

     Dynamical RAM for               rhoin:       0.07 MB

     Dynamical RAM for            rho*nmix:       0.40 MB

     Dynamical RAM for           G-vectors:       0.11 MB

     Dynamical RAM for          h,s,v(r/c):       0.95 MB

     Dynamical RAM for          <psi|beta>:       0.06 MB

     Dynamical RAM for                 psi:       0.44 MB

     Dynamical RAM for                hpsi:       0.44 MB

     Dynamical RAM for                spsi:       0.44 MB

     Dynamical RAM for      wfcinit/wfcrot:       0.56 MB

     Dynamical RAM for           addusdens:       2.34 MB

     Dynamical RAM for          addusforce:       2.37 MB

     Dynamical RAM for         addusstress:       2.50 MB

     Estimated static dynamical RAM per process >      19.36 MB

     Estimated max dynamical RAM per process >      22.26 MB

     Estimated total dynamical RAM >       1.38 GB

     Initial potential from superposition of free atoms

     starting charge      35.9925, renormalised to      36.0000
     Starting wfcs are   26 randomized atomic wfcs +   46 random wfcs

     total cpu time spent up to now is      213.4 secs

     Self-consistent Calculation

     iteration #  1     ecut=   110.00 Ry     beta= 0.10
     Davidson diagonalization with overlap

---- Real-time Memory Report at c_bands before calling an iterative solver
            64 MiB given to the printing process from OS
             0 MiB allocation reported by mallinfo(arena+hblkhd)
        123657 MiB available memory on the node where the printing process lives
------------------
     ethr =  1.00E-02,  avg # of iterations =  7.9

     total cpu time spent up to now is     2110.2 secs

     total energy              =    -361.78977568 Ry
     estimated scf accuracy    <       0.73342743 Ry

     iteration #  2     ecut=   110.00 Ry     beta= 0.10
     Davidson diagonalization with overlap

---- Real-time Memory Report at c_bands before calling an iterative solver
            69 MiB given to the printing process from OS
             0 MiB allocation reported by mallinfo(arena+hblkhd)
        123561 MiB available memory on the node where the printing process lives
------------------
     ethr =  2.04E-03,  avg # of iterations =  1.0

     total cpu time spent up to now is     2614.4 secs

     total energy              =    -361.55102059 Ry
     estimated scf accuracy    <       0.55052361 Ry

     iteration #  3     ecut=   110.00 Ry     beta= 0.10
     Davidson diagonalization with overlap

---- Real-time Memory Report at c_bands before calling an iterative solver
            69 MiB given to the printing process from OS
             0 MiB allocation reported by mallinfo(arena+hblkhd)
        123557 MiB available memory on the node where the printing process lives
------------------
     ethr =  1.53E-03,  avg # of iterations =  1.0

     total cpu time spent up to now is     3114.6 secs

     total energy              =    -361.64859578 Ry
     estimated scf accuracy    <       0.02106460 Ry

     iteration #  4     ecut=   110.00 Ry     beta= 0.10
     Davidson diagonalization with overlap

---- Real-time Memory Report at c_bands before calling an iterative solver
            69 MiB given to the printing process from OS
             0 MiB allocation reported by mallinfo(arena+hblkhd)
        123541 MiB available memory on the node where the printing process lives
------------------
     ethr =  5.85E-05,  avg # of iterations =  2.4

     total cpu time spent up to now is     3795.7 secs

     total energy              =    -361.64476230 Ry
     estimated scf accuracy    <       0.03233809 Ry

     iteration #  5     ecut=   110.00 Ry     beta= 0.10
     Davidson diagonalization with overlap

---- Real-time Memory Report at c_bands before calling an iterative solver
            69 MiB given to the printing process from OS
             0 MiB allocation reported by mallinfo(arena+hblkhd)
        123543 MiB available memory on the node where the printing process lives
------------------
     ethr =  5.85E-05,  avg # of iterations =  1.4

     total cpu time spent up to now is     4315.4 secs

     total energy              =    -361.64851228 Ry
     estimated scf accuracy    <       0.00033787 Ry

     iteration #  6     ecut=   110.00 Ry     beta= 0.10
     Davidson diagonalization with overlap

---- Real-time Memory Report at c_bands before calling an iterative solver
            69 MiB given to the printing process from OS
             0 MiB allocation reported by mallinfo(arena+hblkhd)
        123536 MiB available memory on the node where the printing process lives
------------------
     ethr =  9.39E-07,  avg # of iterations =  8.0

     total cpu time spent up to now is     5558.9 secs

     total energy              =    -361.64868910 Ry
     estimated scf accuracy    <       0.00018322 Ry

     iteration #  7     ecut=   110.00 Ry     beta= 0.10
     Davidson diagonalization with overlap

---- Real-time Memory Report at c_bands before calling an iterative solver
            69 MiB given to the printing process from OS
             0 MiB allocation reported by mallinfo(arena+hblkhd)
        123527 MiB available memory on the node where the printing process lives
------------------
     ethr =  5.09E-07,  avg # of iterations =  1.8

     total cpu time spent up to now is     6137.7 secs

     total energy              =    -361.64873871 Ry
     estimated scf accuracy    <       0.00005271 Ry

     iteration #  8     ecut=   110.00 Ry     beta= 0.10
     Davidson diagonalization with overlap

---- Real-time Memory Report at c_bands before calling an iterative solver
            69 MiB given to the printing process from OS
             0 MiB allocation reported by mallinfo(arena+hblkhd)
        123531 MiB available memory on the node where the printing process lives
------------------
     ethr =  1.46E-07,  avg # of iterations =  1.5

     total cpu time spent up to now is     6713.5 secs

     total energy              =    -361.64871969 Ry
     estimated scf accuracy    <       0.00008378 Ry

     iteration #  9     ecut=   110.00 Ry     beta= 0.10
     Davidson diagonalization with overlap

---- Real-time Memory Report at c_bands before calling an iterative solver
            69 MiB given to the printing process from OS
             0 MiB allocation reported by mallinfo(arena+hblkhd)
        123529 MiB available memory on the node where the printing process lives
------------------
     ethr =  1.46E-07,  avg # of iterations =  1.0

     total cpu time spent up to now is     7220.4 secs

     total energy              =    -361.64872200 Ry
     estimated scf accuracy    <       0.00000913 Ry

     iteration # 10     ecut=   110.00 Ry     beta= 0.10
     Davidson diagonalization with overlap

---- Real-time Memory Report at c_bands before calling an iterative solver
            69 MiB given to the printing process from OS
             0 MiB allocation reported by mallinfo(arena+hblkhd)
        123529 MiB available memory on the node where the printing process lives
------------------
     ethr =  2.54E-08,  avg # of iterations =  1.0

     total cpu time spent up to now is     7722.1 secs

     total energy              =    -361.64872350 Ry
     estimated scf accuracy    <       0.00000264 Ry

     iteration # 11     ecut=   110.00 Ry     beta= 0.10
     Davidson diagonalization with overlap

---- Real-time Memory Report at c_bands before calling an iterative solver
            70 MiB given to the printing process from OS
             0 MiB allocation reported by mallinfo(arena+hblkhd)
        123529 MiB available memory on the node where the printing process lives
------------------
     ethr =  7.33E-09,  avg # of iterations =  1.0

     total cpu time spent up to now is     8234.5 secs

     total energy              =    -361.64872365 Ry
     estimated scf accuracy    <       0.00000032 Ry

     iteration # 12     ecut=   110.00 Ry     beta= 0.10
     Davidson diagonalization with overlap

---- Real-time Memory Report at c_bands before calling an iterative solver
            70 MiB given to the printing process from OS
             0 MiB allocation reported by mallinfo(arena+hblkhd)
        123525 MiB available memory on the node where the printing process lives
------------------
     ethr =  8.78E-10,  avg # of iterations =  2.0

     total cpu time spent up to now is     8896.7 secs

     total energy              =    -361.64872374 Ry
     estimated scf accuracy    <       0.00000003 Ry

     iteration # 13     ecut=   110.00 Ry     beta= 0.10
     Davidson diagonalization with overlap

---- Real-time Memory Report at c_bands before calling an iterative solver
            70 MiB given to the printing process from OS
             0 MiB allocation reported by mallinfo(arena+hblkhd)
        123524 MiB available memory on the node where the printing process lives
------------------
     ethr =  8.97E-11,  avg # of iterations =  1.1

     total cpu time spent up to now is     9413.4 secs

     total energy              =    -361.64872375 Ry
     estimated scf accuracy    <          5.9E-09 Ry

     iteration # 14     ecut=   110.00 Ry     beta= 0.10
     Davidson diagonalization with overlap

---- Real-time Memory Report at c_bands before calling an iterative solver
            70 MiB given to the printing process from OS
             0 MiB allocation reported by mallinfo(arena+hblkhd)
        123519 MiB available memory on the node where the printing process lives
------------------
     ethr =  1.64E-11,  avg # of iterations =  2.0

     total cpu time spent up to now is    10085.5 secs

     End of self-consistent calculation

          k = 0.0000 0.0000 0.0000 (  6459 PWs)   bands (ev):

   -11.0505 -10.3814   1.2288   1.2288   1.2685   1.3818   1.4116   1.4116
     2.3159   2.3159   2.5100   2.5100   2.7757   6.0158   6.0158   6.6902
     6.7692   6.7692   7.5100  11.8847  14.8442  19.5311  19.5311  20.5448
    20.7317  20.7317  23.1645  24.7702  24.7702  26.3998  26.4565  26.4565
    27.4700  29.5370  31.2114  31.2114  33.6373  34.6115  34.6115  34.9413
    37.4933  37.4933  40.7596  40.7596  41.3378  42.9779  42.9779  45.1491
    45.1491  46.8608  47.9696  49.8748  53.1647  54.3021  54.3021  55.9942
    56.1743  56.2455  57.0252  57.0252  58.6044  58.6044  59.9287  60.9379
    61.6494  61.6494  61.8891  62.1194  62.1194  63.0374  63.0374  65.5690

     occupation numbers 
     1.0000   1.0000   1.0000   1.0000   1.0000   1.0000   1.0000   1.0000
     1.0000   1.0000   1.0000   1.0000   1.0000   1.0000   1.0000   1.0000
     1.0000   1.0000   0.0000   0.0000   0.0000   0.0000   0.0000   0.0000
     0.0000   0.0000   0.0000   0.0000   0.0000   0.0000   0.0000   0.0000
     0.0000   0.0000   0.0000   0.0000   0.0000   0.0000   0.0000   0.0000
     0.0000   0.0000   0.0000   0.0000   0.0000   0.0000   0.0000   0.0000
     0.0000   0.0000   0.0000   0.0000   0.0000   0.0000   0.0000   0.0000
     0.0000   0.0000   0.0000   0.0000   0.0000   0.0000   0.0000   0.0000
     0.0000   0.0000   0.0000   0.0000   0.0000   0.0000   0.0000   0.0000

          k = 0.0000 0.0000 0.0516 (  6489 PWs)   bands (ev):

   -11.0397 -10.3934   1.2304   1.2304   1.2566   1.3427   1.4068   1.4068
     2.3205   2.3205   2.5081   2.5081   2.8614   6.0289   6.0289   6.4919
     6.7567   6.7567   7.7302  11.8244  14.8982  19.5317  19.5317  20.2823
    20.6830  20.6830  23.2647  24.8422  24.8422  26.3552  26.5386  26.5386
    27.7546  29.5110  31.1248  31.1248  33.8184  34.4975  34.4975  34.7845
    37.5243  37.5243  40.2623  40.2623  41.3171  43.6778  43.6778  45.3132
    45.3132  45.7396  48.0976  50.9979  53.1972  54.3295  54.3295  56.0047
    56.1420  56.1756  56.8993  56.8993  58.0726  58.0726  59.8168  61.0377
    61.8045  61.8045  62.0171  62.0171  62.0663  63.3067  63.3067  63.9466

     occupation numbers 
     1.0000   1.0000   1.0000   1.0000   1.0000   1.0000   1.0000   1.0000
     1.0000   1.0000   1.0000   1.0000   1.0000   1.0000   1.0000   1.0000
     1.0000   1.0000   0.0000   0.0000   0.0000   0.0000   0.0000   0.0000
     0.0000   0.0000   0.0000   0.0000   0.0000   0.0000   0.0000   0.0000
     0.0000   0.0000   0.0000   0.0000   0.0000   0.0000   0.0000   0.0000
     0.0000   0.0000   0.0000   0.0000   0.0000   0.0000   0.0000   0.0000
     0.0000   0.0000   0.0000   0.0000   0.0000   0.0000   0.0000   0.0000
     0.0000   0.0000   0.0000   0.0000   0.0000   0.0000   0.0000   0.0000
     0.0000   0.0000   0.0000   0.0000   0.0000   0.0000   0.0000   0.0000

          k = 0.0000 0.0000 0.1032 (  6495 PWs)   bands (ev):

   -11.0079 -10.4284   1.2235   1.2355   1.2355   1.2537   1.3931   1.3931
     2.3336   2.3336   2.5023   2.5023   3.0877   6.0673   6.0673   6.1272
     6.7200   6.7200   8.1569  11.6496  15.0579  19.5376  19.5376  19.6515
    20.5504  20.5504  23.4847  25.0514  25.0514  26.2075  26.7533  26.7533
    28.5234  29.5017  30.9066  30.9066  34.1539  34.1539  34.2906  34.3676
    37.6034  37.6034  39.4918  39.4918  41.2062  43.8722  45.0576  45.0576
    45.7954  45.7954  48.4977  52.7739  53.2946  54.4106  54.4106  55.8666
    56.0409  56.2710  56.3869  56.3869  57.0400  57.0400  59.4553  60.9543
    60.9543  61.3122  62.2343  62.2343  62.5630  62.7896  62.7896  63.7350

     occupation numbers 
     1.0000   1.0000   1.0000   1.0000   1.0000   1.0000   1.0000   1.0000
     1.0000   1.0000   1.0000   1.0000   1.0000   1.0000   1.0000   1.0000
     1.0000   1.0000   0.0000   0.0000   0.0000   0.0000   0.0000   0.0000
     0.0000   0.0000   0.0000   0.0000   0.0000   0.0000   0.0000   0.0000
     0.0000   0.0000   0.0000   0.0000   0.0000   0.0000   0.0000   0.0000
     0.0000   0.0000   0.0000   0.0000   0.0000   0.0000   0.0000   0.0000
     0.0000   0.0000   0.0000   0.0000   0.0000   0.0000   0.0000   0.0000
     0.0000   0.0000   0.0000   0.0000   0.0000   0.0000   0.0000   0.0000
     0.0000   0.0000   0.0000   0.0000   0.0000   0.0000   0.0000   0.0000

          k = 0.0000 0.0000 0.1549 (  6513 PWs)   bands (ev):

   -10.9569 -10.4838   1.1608   1.1761   1.2444   1.2444   1.3726   1.3726
     2.3538   2.3538   2.4921   2.4921   3.4013   5.7363   6.1283   6.1283
     6.6613   6.6613   8.6403  11.3757  15.3194  18.8787  19.5585  19.5585
    20.3662  20.3662  23.7482  25.3784  25.3784  25.9423  27.0057  27.0057
    29.5832  29.6221  30.6756  30.6756  33.5959  33.5959  33.8257  34.8944
    37.7033  37.7033  38.8782  38.8782  40.9265  42.0126  46.5670  46.5670
    46.6709  46.6709  49.1839  53.4557  53.9633  54.5408  54.5408  55.0536
    55.0536  55.4914  56.1146  56.4766  56.4766  56.9059  58.8734  58.8744
    58.8744  61.6919  62.7438  62.7438  62.8332  62.8332  63.3071  64.0038

     occupation numbers 
     1.0000   1.0000   1.0000   1.0000   1.0000   1.0000   1.0000   1.0000
     1.0000   1.0000   1.0000   1.0000   1.0000   1.0000   1.0000   1.0000
     1.0000   1.0000   0.0000   0.0000   0.0000   0.0000   0.0000   0.0000
     0.0000   0.0000   0.0000   0.0000   0.0000   0.0000   0.0000   0.0000
     0.0000   0.0000   0.0000   0.0000   0.0000   0.0000   0.0000   0.0000
     0.0000   0.0000   0.0000   0.0000   0.0000   0.0000   0.0000   0.0000
     0.0000   0.0000   0.0000   0.0000   0.0000   0.0000   0.0000   0.0000
     0.0000   0.0000   0.0000   0.0000   0.0000   0.0000   0.0000   0.0000
     0.0000   0.0000   0.0000   0.0000   0.0000   0.0000   0.0000   0.0000

          k = 0.0000 0.0000 0.2065 (  6502 PWs)   bands (ev):

   -10.8898 -10.5553   1.0913   1.1243   1.2576   1.2576   1.3478   1.3478
     2.3787   2.3787   2.4769   2.4769   3.7634   5.3414   6.2074   6.2074
     6.5844   6.5844   9.1438  11.0210  15.6804  18.0927  19.6060  19.6060
    20.1651  20.1651  24.0476  25.5823  25.7933  25.7933  27.1432  27.1432
    29.9149  30.6086  30.6086  30.6498  32.8840  32.8840  33.4001  35.4014
    37.8057  37.8057  38.4640  38.4640  40.4081  40.4661  47.5846  47.5846
    48.4063  48.4063  50.1195  53.4918  53.4918  53.6786  53.9959  54.6955
    54.6955  55.0793  56.0697  56.0697  56.2416  56.7437  56.7437  57.7047
    58.9398  62.0673  62.8902  62.8902  63.3576  63.3576  64.2353  64.2430

     occupation numbers 
     1.0000   1.0000   1.0000   1.0000   1.0000   1.0000   1.0000   1.0000
     1.0000   1.0000   1.0000   1.0000   1.0000   1.0000   1.0000   1.0000
     1.0000   1.0000   0.0000   0.0000   0.0000   0.0000   0.0000   0.0000
     0.0000   0.0000   0.0000   0.0000   0.0000   0.0000   0.0000   0.0000
     0.0000   0.0000   0.0000   0.0000   0.0000   0.0000   0.0000   0.0000
     0.0000   0.0000   0.0000   0.0000   0.0000   0.0000   0.0000   0.0000
     0.0000   0.0000   0.0000   0.0000   0.0000   0.0000   0.0000   0.0000
     0.0000   0.0000   0.0000   0.0000   0.0000   0.0000   0.0000   0.0000
     0.0000   0.0000   0.0000   0.0000   0.0000   0.0000   0.0000   0.0000

          k = 0.0000 0.0000 0.2581 (  6454 PWs)   bands (ev):

   -10.8107 -10.6376   1.0556   1.0798   1.2752   1.2752   1.3218   1.3218
     2.4058   2.4058   2.4568   2.4568   4.1501   4.9447   6.2992   6.2992
     6.4944   6.4944   9.6494  10.6039  16.1412  17.3568  19.6893  19.6893
    19.9746  19.9746  24.3884  25.1765  26.2544  26.2544  27.0345  27.0345
    30.3482  30.8540  30.8540  31.1239  32.1146  32.1146  33.6451  35.3999
    37.9100  37.9100  38.2014  38.2014  39.4498  39.9027  48.7924  48.7924
    50.1062  50.1062  51.2154  52.0761  52.0761  53.3434  53.9597  54.3291
    54.3291  54.6718  55.2491  55.2491  55.6994  55.6994  56.4430  57.2092
    60.6188  62.2632  63.0909  63.0909  63.4483  63.4483  64.4318  64.9936

     occupation numbers 
     1.0000   1.0000   1.0000   1.0000   1.0000   1.0000   1.0000   1.0000
     1.0000   1.0000   1.0000   1.0000   1.0000   1.0000   1.0000   1.0000
     1.0000   1.0000   0.0000   0.0000   0.0000   0.0000   0.0000   0.0000
     0.0000   0.0000   0.0000   0.0000   0.0000   0.0000   0.0000   0.0000
     0.0000   0.0000   0.0000   0.0000   0.0000   0.0000   0.0000   0.0000
     0.0000   0.0000   0.0000   0.0000   0.0000   0.0000   0.0000   0.0000
     0.0000   0.0000   0.0000   0.0000   0.0000   0.0000   0.0000   0.0000
     0.0000   0.0000   0.0000   0.0000   0.0000   0.0000   0.0000   0.0000
     0.0000   0.0000   0.0000   0.0000   0.0000   0.0000   0.0000   0.0000

          k = 0.0000 0.0000-0.3097 (  6466 PWs)   bands (ev):

   -10.7248 -10.7248   1.0537   1.0537   1.2970   1.2970   1.2970   1.2970
     2.4326   2.4326   2.4326   2.4326   4.5466   4.5466   6.3971   6.3971
     6.3971   6.3971  10.1412  10.1412  16.7016  16.7016  19.8128  19.8128
    19.8128  19.8128  24.7692  24.7692  26.7001  26.7001  26.7001  26.7001
    30.8332  30.8332  31.3970  31.3970  31.3970  31.3970  34.6162  34.6162
    38.0319  38.0319  38.0319  38.0319  39.4237  39.4237  50.0732  50.0732
    50.0732  50.0732  52.3457  52.3457  52.5486  52.5486  52.5486  52.5486
    54.2938  54.2938  55.3800  55.3800  55.3800  55.3800  56.7520  56.7520
    61.9175  61.9175  63.2985  63.2985  63.2985  63.2985  65.1949  65.1949

     occupation numbers 
     1.0000   1.0000   1.0000   1.0000   1.0000   1.0000   1.0000   1.0000
     1.0000   1.0000   1.0000   1.0000   1.0000   1.0000   1.0000   1.0000
     1.0000   1.0000   0.0000   0.0000   0.0000   0.0000   0.0000   0.0000
     0.0000   0.0000   0.0000   0.0000   0.0000   0.0000   0.0000   0.0000
     0.0000   0.0000   0.0000   0.0000   0.0000   0.0000   0.0000   0.0000
     0.0000   0.0000   0.0000   0.0000   0.0000   0.0000   0.0000   0.0000
     0.0000   0.0000   0.0000   0.0000   0.0000   0.0000   0.0000   0.0000
     0.0000   0.0000   0.0000   0.0000   0.0000   0.0000   0.0000   0.0000
     0.0000   0.0000   0.0000   0.0000   0.0000   0.0000   0.0000   0.0000

          k = 0.0000 0.0962 0.0000 (  6482 PWs)   bands (ev):

   -11.0146 -10.3652   1.1886   1.2500   1.2928   1.4010   1.4415   1.4415
     2.3010   2.3136   2.5132   2.5415   2.7673   5.7653   5.9262   6.2840
     6.6471   6.7216   8.0826  12.1709  14.8463  18.7899  19.5907  20.1913
    20.6634  20.8167  22.8550  24.2931  24.8952  26.3719  27.3292  27.3419
    28.0034  30.2245  30.8168  31.2785  34.2053  34.4252  34.6355  34.9443
    36.9695  37.0965  40.5871  41.4397  41.5322  42.8309  43.5574  44.9827
    45.2316  47.0655  48.3395  50.0977  50.3308  53.5924  53.8878  55.3827
    55.9211  56.7297  56.9395  57.1886  58.9631  59.1203  59.1886  59.9594
    60.3513  61.0851  62.4575  62.7272  63.1922  63.3039  65.1653  65.9512

     occupation numbers 
     1.0000   1.0000   1.0000   1.0000   1.0000   1.0000   1.0000   1.0000
     1.0000   1.0000   1.0000   1.0000   1.0000   1.0000   1.0000   1.0000
     1.0000   1.0000   0.0000   0.0000   0.0000   0.0000   0.0000   0.0000
     0.0000   0.0000   0.0000   0.0000   0.0000   0.0000   0.0000   0.0000
     0.0000   0.0000   0.0000   0.0000   0.0000   0.0000   0.0000   0.0000
     0.0000   0.0000   0.0000   0.0000   0.0000   0.0000   0.0000   0.0000
     0.0000   0.0000   0.0000   0.0000   0.0000   0.0000   0.0000   0.0000
     0.0000   0.0000   0.0000   0.0000   0.0000   0.0000   0.0000   0.0000
     0.0000   0.0000   0.0000   0.0000   0.0000   0.0000   0.0000   0.0000

          k = 0.0000 0.0962 0.0516 (  6496 PWs)   bands (ev):

   -11.0041 -10.3768   1.1832   1.2518   1.2873   1.3644   1.4313   1.4365
     2.3063   2.3182   2.5111   2.5321   2.8627   5.7785   5.9401   6.1829
     6.6373   6.7084   8.2031  12.1047  14.9020  18.7997  19.5915  20.1298
    20.3854  20.7629  23.0550  24.3910  24.9389  26.3761  27.3069  27.3947
    28.2343  30.2083  30.8301  31.1895  33.9880  34.5125  34.5283  34.9357
    37.0402  37.1332  40.2641  40.9012  41.5120  43.5432  43.7968  45.2232
    45.4932  45.9844  48.5243  50.3593  51.2075  53.4583  53.8662  55.3484
    55.9279  56.6491  57.0414  57.0776  58.6671  58.7127  59.0638  59.8733
    60.2930  61.0594  62.4077  62.8159  62.9418  63.4255  64.4039  64.5398

     occupation numbers 
     1.0000   1.0000   1.0000   1.0000   1.0000   1.0000   1.0000   1.0000
     1.0000   1.0000   1.0000   1.0000   1.0000   1.0000   1.0000   1.0000
     1.0000   1.0000   0.0000   0.0000   0.0000   0.0000   0.0000   0.0000
     0.0000   0.0000   0.0000   0.0000   0.0000   0.0000   0.0000   0.0000
     0.0000   0.0000   0.0000   0.0000   0.0000   0.0000   0.0000   0.0000
     0.0000   0.0000   0.0000   0.0000   0.0000   0.0000   0.0000   0.0000
     0.0000   0.0000   0.0000   0.0000   0.0000   0.0000   0.0000   0.0000
     0.0000   0.0000   0.0000   0.0000   0.0000   0.0000   0.0000   0.0000
     0.0000   0.0000   0.0000   0.0000   0.0000   0.0000   0.0000   0.0000

          k = 0.0000 0.0962 0.1032 (  6497 PWs)   bands (ev):

   -10.9730 -10.4107   1.1643   1.2573   1.2592   1.2894   1.4147   1.4224
     2.3213   2.3313   2.5047   2.5178   3.1010   5.8080   5.9505   5.9807
     6.5980   6.6697   8.5107  11.9152  15.0650  18.8219  19.5978  19.6664
    20.0799  20.6197  23.4507  24.6671  25.0802  26.3421  27.2736  27.5222
    28.8674  30.2054  30.8330  30.9724  33.5032  34.1683  34.7855  34.8631
    37.2123  37.2325  39.6325  40.0319  41.4947  44.0344  44.4849  44.6249
    45.9918  46.2965  49.0806  50.4432  52.9592  53.1266  53.7511  55.2403
    56.0252  56.0676  56.6898  57.4583  57.8126  57.9451  58.9551  59.7896
    60.1352  61.1500  61.4007  61.8799  63.1799  63.2787  63.7943  63.8662

     occupation numbers 
     1.0000   1.0000   1.0000   1.0000   1.0000   1.0000   1.0000   1.0000
     1.0000   1.0000   1.0000   1.0000   1.0000   1.0000   1.0000   1.0000
     1.0000   1.0000   0.0000   0.0000   0.0000   0.0000   0.0000   0.0000
     0.0000   0.0000   0.0000   0.0000   0.0000   0.0000   0.0000   0.0000
     0.0000   0.0000   0.0000   0.0000   0.0000   0.0000   0.0000   0.0000
     0.0000   0.0000   0.0000   0.0000   0.0000   0.0000   0.0000   0.0000
     0.0000   0.0000   0.0000   0.0000   0.0000   0.0000   0.0000   0.0000
     0.0000   0.0000   0.0000   0.0000   0.0000   0.0000   0.0000   0.0000
     0.0000   0.0000   0.0000   0.0000   0.0000   0.0000   0.0000   0.0000

          k = 0.0000 0.0962 0.1549 (  6485 PWs)   bands (ev):

   -10.9233 -10.4642   1.1291   1.1650   1.2670   1.2798   1.3933   1.4012
     2.3441   2.3515   2.4935   2.5024   3.4206   5.6124   5.9035   6.0453
     6.5276   6.6078   8.9223  11.6232  15.3278  18.7044  19.0798  19.6189
    19.9041  20.4265  23.8471  25.0819  25.3137  26.2060  27.3058  27.6252
    29.6847  30.1737  30.7693  30.9430  32.9949  33.6488  34.4919  35.3373
    37.3598  37.4204  38.9879  39.3120  41.2373  42.2414  45.3753  45.7132
    47.0308  47.5665  49.9687  50.5753  52.7123  53.3111  54.0282  54.7888
    55.1244  56.2465  56.5566  57.0824  57.6029  57.9579  58.2036  59.5495
    60.0322  60.0654  60.5533  61.6280  63.0190  63.4168  63.6302  63.8525

     occupation numbers 
     1.0000   1.0000   1.0000   1.0000   1.0000   1.0000   1.0000   1.0000
     1.0000   1.0000   1.0000   1.0000   1.0000   1.0000   1.0000   1.0000
     1.0000   1.0000   0.0000   0.0000   0.0000   0.0000   0.0000   0.0000
     0.0000   0.0000   0.0000   0.0000   0.0000   0.0000   0.0000   0.0000
     0.0000   0.0000   0.0000   0.0000   0.0000   0.0000   0.0000   0.0000
     0.0000   0.0000   0.0000   0.0000   0.0000   0.0000   0.0000   0.0000
     0.0000   0.0000   0.0000   0.0000   0.0000   0.0000   0.0000   0.0000
     0.0000   0.0000   0.0000   0.0000   0.0000   0.0000   0.0000   0.0000
     0.0000   0.0000   0.0000   0.0000   0.0000   0.0000   0.0000   0.0000

          k = 0.0000 0.0962 0.2065 (  6479 PWs)   bands (ev):

   -10.8580 -10.5334   1.0817   1.0923   1.2811   1.2855   1.3685   1.3756
     2.3721   2.3766   2.4773   2.4834   3.7826   5.2758   5.9882   6.1290
     6.4333   6.5268   9.3862  11.2523  15.6861  18.0370  19.0676  19.6658
    19.7125  20.2210  24.2067  25.4580  25.5930  26.1532  27.3549  27.5528
    29.9127  30.4570  30.7723  31.2969  32.7799  33.0056  34.1207  35.8158
    37.4662  37.6314  38.4384  38.7711  40.6244  40.8099  46.5265  46.8820
    48.2825  49.0803  50.7231  51.0449  52.2874  52.4113  53.3292  53.8163
    55.0636  55.7284  56.2502  56.9243  57.2711  57.9258  58.5097  58.5737
    59.1820  60.2479  60.7976  61.9296  62.6789  63.1821  63.7564  64.1300

     occupation numbers 
     1.0000   1.0000   1.0000   1.0000   1.0000   1.0000   1.0000   1.0000
     1.0000   1.0000   1.0000   1.0000   1.0000   1.0000   1.0000   1.0000
     1.0000   1.0000   0.0000   0.0000   0.0000   0.0000   0.0000   0.0000
     0.0000   0.0000   0.0000   0.0000   0.0000   0.0000   0.0000   0.0000
     0.0000   0.0000   0.0000   0.0000   0.0000   0.0000   0.0000   0.0000
     0.0000   0.0000   0.0000   0.0000   0.0000   0.0000   0.0000   0.0000
     0.0000   0.0000   0.0000   0.0000   0.0000   0.0000   0.0000   0.0000
     0.0000   0.0000   0.0000   0.0000   0.0000   0.0000   0.0000   0.0000
     0.0000   0.0000   0.0000   0.0000   0.0000   0.0000   0.0000   0.0000

          k = 0.0000 0.0962 0.2581 (  6463 PWs)   bands (ev):

   -10.7811 -10.6131   1.0411   1.0518   1.2992   1.2998   1.3428   1.3485
     2.4025   2.4040   2.4562   2.4600   4.1623   4.9170   6.0926   6.2259
     6.3235   6.4318   9.8719  10.8238  16.1396  17.3269  19.1838  19.5188
    19.7477  20.0298  24.5505  25.2410  26.1587  26.4828  27.2293  27.2513
    29.9098  30.4588  31.0822  31.8136  32.3062  32.8268  34.1943  35.8702
    37.5281  37.8457  38.0243  38.3775  39.7345  40.2091  47.8314  48.1677
    49.5294  50.3646  50.7810  51.0225  51.8188  52.4479  52.4576  52.8972
    54.6932  55.1213  55.3957  55.8529  57.1154  58.0183  58.0238  58.4180
    60.1630  60.8492  61.5637  61.7968  62.4886  62.5638  64.1274  64.5696

     occupation numbers 
     1.0000   1.0000   1.0000   1.0000   1.0000   1.0000   1.0000   1.0000
     1.0000   1.0000   1.0000   1.0000   1.0000   1.0000   1.0000   1.0000
     1.0000   1.0000   0.0000   0.0000   0.0000   0.0000   0.0000   0.0000
     0.0000   0.0000   0.0000   0.0000   0.0000   0.0000   0.0000   0.0000
     0.0000   0.0000   0.0000   0.0000   0.0000   0.0000   0.0000   0.0000
     0.0000   0.0000   0.0000   0.0000   0.0000   0.0000   0.0000   0.0000
     0.0000   0.0000   0.0000   0.0000   0.0000   0.0000   0.0000   0.0000
     0.0000   0.0000   0.0000   0.0000   0.0000   0.0000   0.0000   0.0000
     0.0000   0.0000   0.0000   0.0000   0.0000   0.0000   0.0000   0.0000

          k = 0.0000 0.0962-0.3097 (  6460 PWs)   bands (ev):

   -10.6976 -10.6976   1.0323   1.0323   1.3190   1.3190   1.3226   1.3226
     2.4313   2.4313   2.4325   2.4325   4.5437   4.5437   6.2071   6.2071
     6.3292   6.3292  10.3575  10.3575  16.6882  16.6882  19.3385  19.3385
    19.8695  19.8695  24.8993  24.8993  26.7289  26.7289  26.9226  26.9226
    30.1395  30.1395  31.6324  31.6324  32.3929  32.3929  35.1088  35.1088
    37.7178  37.7178  38.0834  38.0834  39.7283  39.7283  49.1673  49.1673
    49.5030  49.5030  51.3832  51.3832  51.4720  51.4720  53.3552  53.3552
    53.7327  53.7327  55.5459  55.5459  57.3660  57.3660  58.2190  58.2190
    61.1637  61.1637  61.6583  61.6583  62.3672  62.3672  64.5584  64.5584

     occupation numbers 
     1.0000   1.0000   1.0000   1.0000   1.0000   1.0000   1.0000   1.0000
     1.0000   1.0000   1.0000   1.0000   1.0000   1.0000   1.0000   1.0000
     1.0000   1.0000   0.0000   0.0000   0.0000   0.0000   0.0000   0.0000
     0.0000   0.0000   0.0000   0.0000   0.0000   0.0000   0.0000   0.0000
     0.0000   0.0000   0.0000   0.0000   0.0000   0.0000   0.0000   0.0000
     0.0000   0.0000   0.0000   0.0000   0.0000   0.0000   0.0000   0.0000
     0.0000   0.0000   0.0000   0.0000   0.0000   0.0000   0.0000   0.0000
     0.0000   0.0000   0.0000   0.0000   0.0000   0.0000   0.0000   0.0000
     0.0000   0.0000   0.0000   0.0000   0.0000   0.0000   0.0000   0.0000

          k = 0.0000 0.1925 0.0000 (  6506 PWs)   bands (ev):

   -10.9136 -10.3222   1.0972   1.3058   1.3295   1.4120   1.5273   1.5976
     2.2610   2.3148   2.5207   2.6371   2.7447   5.1200   5.6620   5.6827
     6.5127   6.5871   8.9791  12.8689  14.8492  17.4956  19.1445  19.7563
    20.6230  20.8975  21.9442  23.9863  24.9873  27.4105  28.5614  29.0032
    29.0908  29.8117  31.4947  32.7660  33.4680  34.6123  34.6703  35.6918
    36.0576  37.0568  39.1646  42.2872  42.4785  43.1929  43.5286  45.2258
    45.8890  47.6392  47.6464  49.4945  50.5919  51.0000  52.3018  53.1588
    53.7378  55.2405  57.3391  57.4892  58.1660  58.9883  59.7441  60.9879
    61.1241  61.7104  61.8443  62.7024  63.2851  63.5027  64.6294  64.7912

     occupation numbers 
     1.0000   1.0000   1.0000   1.0000   1.0000   1.0000   1.0000   1.0000
     1.0000   1.0000   1.0000   1.0000   1.0000   1.0000   1.0000   1.0000
     1.0000   1.0000   0.0000   0.0000   0.0000   0.0000   0.0000   0.0000
     0.0000   0.0000   0.0000   0.0000   0.0000   0.0000   0.0000   0.0000
     0.0000   0.0000   0.0000   0.0000   0.0000   0.0000   0.0000   0.0000
     0.0000   0.0000   0.0000   0.0000   0.0000   0.0000   0.0000   0.0000
     0.0000   0.0000   0.0000   0.0000   0.0000   0.0000   0.0000   0.0000
     0.0000   0.0000   0.0000   0.0000   0.0000   0.0000   0.0000   0.0000
     0.0000   0.0000   0.0000   0.0000   0.0000   0.0000   0.0000   0.0000

          k = 0.0000 0.1925 0.0516 (  6498 PWs)   bands (ev):

   -10.9038 -10.3326   1.0901   1.3082   1.3159   1.3969   1.5218   1.5647
     2.2689   2.3192   2.5181   2.5935   2.8794   5.1341   5.6203   5.6987
     6.4945   6.5722   9.0495  12.7840  14.9105  17.5109  19.1075  19.7570
    20.3564  20.8430  22.1196  24.1014  25.0723  27.4294  28.3607  29.0098
    29.3371  29.8873  31.4034  32.7077  33.3476  34.5083  34.6614  35.7758
    36.2377  37.0555  39.1840  41.8385  42.3330  43.3910  43.7426  45.7031
    45.8274  46.6130  47.7123  49.7811  50.8572  51.6523  52.2649  53.3917
    53.8138  55.2478  57.0255  57.1102  58.0425  58.7197  59.7846  60.6212
    61.0158  61.6649  61.9594  62.6860  63.1095  63.8402  64.2541  64.7745

     occupation numbers 
     1.0000   1.0000   1.0000   1.0000   1.0000   1.0000   1.0000   1.0000
     1.0000   1.0000   1.0000   1.0000   1.0000   1.0000   1.0000   1.0000
     1.0000   1.0000   0.0000   0.0000   0.0000   0.0000   0.0000   0.0000
     0.0000   0.0000   0.0000   0.0000   0.0000   0.0000   0.0000   0.0000
     0.0000   0.0000   0.0000   0.0000   0.0000   0.0000   0.0000   0.0000
     0.0000   0.0000   0.0000   0.0000   0.0000   0.0000   0.0000   0.0000
     0.0000   0.0000   0.0000   0.0000   0.0000   0.0000   0.0000   0.0000
     0.0000   0.0000   0.0000   0.0000   0.0000   0.0000   0.0000   0.0000
     0.0000   0.0000   0.0000   0.0000   0.0000   0.0000   0.0000   0.0000

          k = 0.0000 0.1925 0.1032 (  6497 PWs)   bands (ev):

   -10.8752 -10.3630   1.0692   1.2584   1.3153   1.3688   1.5062   1.5096
     2.2900   2.3317   2.5102   2.5576   3.1459   5.1678   5.5160   5.7455
     6.4343   6.5283   9.2519  12.5500  15.0809  17.5483  18.9796  19.7623
    19.8244  20.7012  22.4642  24.4235  25.2334  27.4231  28.2318  28.9758
    29.6339  30.0840  31.2149  32.4939  33.2807  34.1617  34.7671  35.8681
    36.6125  37.1461  39.1046  40.9947  42.2203  43.9071  43.9504  44.7518
    46.1284  46.5865  48.0170  50.5573  50.5806  52.0869  53.0738  53.9587
    54.2906  55.2641  55.8353  56.4808  57.3223  58.9043  59.4772  60.1354
    60.9839  61.5780  62.0082  62.2059  62.5563  63.4528  63.5749  64.6101

     occupation numbers 
     1.0000   1.0000   1.0000   1.0000   1.0000   1.0000   1.0000   1.0000
     1.0000   1.0000   1.0000   1.0000   1.0000   1.0000   1.0000   1.0000
     1.0000   1.0000   0.0000   0.0000   0.0000   0.0000   0.0000   0.0000
     0.0000   0.0000   0.0000   0.0000   0.0000   0.0000   0.0000   0.0000
     0.0000   0.0000   0.0000   0.0000   0.0000   0.0000   0.0000   0.0000
     0.0000   0.0000   0.0000   0.0000   0.0000   0.0000   0.0000   0.0000
     0.0000   0.0000   0.0000   0.0000   0.0000   0.0000   0.0000   0.0000
     0.0000   0.0000   0.0000   0.0000   0.0000   0.0000   0.0000   0.0000
     0.0000   0.0000   0.0000   0.0000   0.0000   0.0000   0.0000   0.0000

          k = 0.0000 0.1925 0.1549 (  6478 PWs)   bands (ev):

   -10.8294 -10.4112   1.0381   1.1613   1.3275   1.3553   1.4682   1.4826
     2.3206   2.3511   2.4971   2.5304   3.4733   5.1601   5.4331   5.8194
     6.3255   6.4583   9.5633  12.2085  15.3388  17.5670  18.7188  19.3414
    19.7804  20.5158  22.8648  24.9048  25.2771  27.3960  28.3912  28.7576
    29.7101  30.2146  31.1420  32.4598  33.4150  33.7445  34.8188  35.9323
    37.0176  37.3933  38.7657  40.1459  42.0404  43.0806  44.1512  44.7000
    46.8470  47.1783  48.6995  50.4711  51.3098  51.9660  53.4292  54.2736
    54.7560  54.7898  55.5307  56.0716  56.9512  58.6343  59.4192  59.4980
    61.0156  61.1422  61.4915  61.7951  62.1443  62.5172  63.0296  64.5825

     occupation numbers 
     1.0000   1.0000   1.0000   1.0000   1.0000   1.0000   1.0000   1.0000
     1.0000   1.0000   1.0000   1.0000   1.0000   1.0000   1.0000   1.0000
     1.0000   1.0000   0.0000   0.0000   0.0000   0.0000   0.0000   0.0000
     0.0000   0.0000   0.0000   0.0000   0.0000   0.0000   0.0000   0.0000
     0.0000   0.0000   0.0000   0.0000   0.0000   0.0000   0.0000   0.0000
     0.0000   0.0000   0.0000   0.0000   0.0000   0.0000   0.0000   0.0000
     0.0000   0.0000   0.0000   0.0000   0.0000   0.0000   0.0000   0.0000
     0.0000   0.0000   0.0000   0.0000   0.0000   0.0000   0.0000   0.0000
     0.0000   0.0000   0.0000   0.0000   0.0000   0.0000   0.0000   0.0000

          k = 0.0000 0.1925 0.2065 (  6472 PWs)   bands (ev):

   -10.7694 -10.4736   1.0048   1.0707   1.3448   1.3549   1.4350   1.4540
     2.3571   2.3754   2.4788   2.5024   3.8228   5.0066   5.4908   5.9151
     6.1729   6.3666   9.9549  11.7962  15.6730  17.4341  18.4477  19.0206
    19.8217  20.3239  23.3117  25.0925  25.5010  27.5170  28.2765  28.6837
    29.4546  30.1812  31.3276  32.8269  33.2728  33.7430  34.7492  36.1567
    37.4135  37.5462  38.3728  39.3984  41.0802  42.0022  44.9137  45.6973
    47.4512  47.7897  49.1456  50.8169  50.9943  52.7274  52.8756  53.2166
    54.3874  55.4629  55.5476  56.2855  57.5986  57.8590  58.2799  59.9306
    60.0044  60.8725  61.3700  61.6082  61.8575  62.0270  62.9510  64.7781

     occupation numbers 
     1.0000   1.0000   1.0000   1.0000   1.0000   1.0000   1.0000   1.0000
     1.0000   1.0000   1.0000   1.0000   1.0000   1.0000   1.0000   1.0000
     1.0000   1.0000   0.0000   0.0000   0.0000   0.0000   0.0000   0.0000
     0.0000   0.0000   0.0000   0.0000   0.0000   0.0000   0.0000   0.0000
     0.0000   0.0000   0.0000   0.0000   0.0000   0.0000   0.0000   0.0000
     0.0000   0.0000   0.0000   0.0000   0.0000   0.0000   0.0000   0.0000
     0.0000   0.0000   0.0000   0.0000   0.0000   0.0000   0.0000   0.0000
     0.0000   0.0000   0.0000   0.0000   0.0000   0.0000   0.0000   0.0000
     0.0000   0.0000   0.0000   0.0000   0.0000   0.0000   0.0000   0.0000

          k = 0.0000 0.1925 0.2581 (  6477 PWs)   bands (ev):

   -10.6989 -10.5458   0.9815   1.0089   1.3645   1.3671   1.4062   1.4235
     2.3961   2.4025   2.4561   2.4706   4.1666   4.7688   5.6301   5.9922
     6.0254   6.2591  10.3983  11.3415  16.0788  17.0396  18.4237  18.7753
    19.8945  20.1487  23.7917  24.7299  26.1763  27.6198  27.8139  28.6819
    29.3471  29.9958  31.7203  32.7552  33.2879  33.9528  35.0238  36.3969
    37.2627  37.8149  38.1457  38.7732  40.2783  41.2017  46.0900  46.7351
    47.5758  48.2320  49.2544  50.3927  50.7747  52.1551  53.0249  53.7546
    54.2894  55.5465  55.9474  56.1853  57.1380  57.3679  57.9500  58.8418
    60.1876  60.9639  61.3314  61.4967  61.5422  62.2387  63.4142  64.6161

     occupation numbers 
     1.0000   1.0000   1.0000   1.0000   1.0000   1.0000   1.0000   1.0000
     1.0000   1.0000   1.0000   1.0000   1.0000   1.0000   1.0000   1.0000
     1.0000   1.0000   0.0000   0.0000   0.0000   0.0000   0.0000   0.0000
     0.0000   0.0000   0.0000   0.0000   0.0000   0.0000   0.0000   0.0000
     0.0000   0.0000   0.0000   0.0000   0.0000   0.0000   0.0000   0.0000
     0.0000   0.0000   0.0000   0.0000   0.0000   0.0000   0.0000   0.0000
     0.0000   0.0000   0.0000   0.0000   0.0000   0.0000   0.0000   0.0000
     0.0000   0.0000   0.0000   0.0000   0.0000   0.0000   0.0000   0.0000
     0.0000   0.0000   0.0000   0.0000   0.0000   0.0000   0.0000   0.0000

          k = 0.0000 0.1925-0.3097 (  6486 PWs)   bands (ev):

   -10.6227 -10.6227   0.9802   0.9802   1.3821   1.3821   1.3938   1.3938
     2.4301   2.4301   2.4347   2.4347   4.4857   4.4857   5.8042   5.8042
     6.1428   6.1428  10.8682  10.8682  16.5467  16.5467  18.5670  18.5670
    20.0036  20.0036  24.2772  24.2772  26.8969  26.8969  28.2363  28.2363
    29.6767  29.6767  32.2208  32.2208  33.6906  33.6906  35.8666  35.8666
    37.5569  37.5569  38.2558  38.2558  40.5039  40.5039  47.3660  47.3660
    47.4342  47.4342  49.7348  49.7348  51.1154  51.1154  54.1545  54.1545
    54.5547  54.5547  55.9076  55.9076  57.5449  57.5449  57.8042  57.8042
    60.4677  60.4677  61.3892  61.3892  62.0784  62.0784  64.2814  64.2814

     occupation numbers 
     1.0000   1.0000   1.0000   1.0000   1.0000   1.0000   1.0000   1.0000
     1.0000   1.0000   1.0000   1.0000   1.0000   1.0000   1.0000   1.0000
     1.0000   1.0000   0.0000   0.0000   0.0000   0.0000   0.0000   0.0000
     0.0000   0.0000   0.0000   0.0000   0.0000   0.0000   0.0000   0.0000
     0.0000   0.0000   0.0000   0.0000   0.0000   0.0000   0.0000   0.0000
     0.0000   0.0000   0.0000   0.0000   0.0000   0.0000   0.0000   0.0000
     0.0000   0.0000   0.0000   0.0000   0.0000   0.0000   0.0000   0.0000
     0.0000   0.0000   0.0000   0.0000   0.0000   0.0000   0.0000   0.0000
     0.0000   0.0000   0.0000   0.0000   0.0000   0.0000   0.0000   0.0000

          k = 0.0000 0.2887 0.0000 (  6498 PWs)   bands (ev):

   -10.7672 -10.2679   1.0060   1.3211   1.3742   1.4980   1.6573   1.8134
     2.2143   2.3362   2.5296   2.7037   2.8094   4.3519   5.0761   5.3477
     6.2864   6.3942   9.9523  13.6436  14.8308  16.3120  18.1873  19.7973
    19.9572  20.7540  21.9894  24.4415  24.7832  27.0985  29.6093  30.5087
    30.9115  30.9617  31.8851  33.1116  34.4159  34.6145  34.9176  35.2727
    36.6731  37.6333  38.2912  41.1037  43.0774  43.4634  44.1410  45.2639
    46.4284  47.5072  48.3324  49.1103  49.9236  50.0761  50.5181  51.5684
    52.0553  55.2797  56.1217  57.3254  57.4634  57.6909  59.0289  60.1104
    60.4252  61.1061  61.8705  62.1103  62.3168  62.6423  63.5254  63.9611

     occupation numbers 
     1.0000   1.0000   1.0000   1.0000   1.0000   1.0000   1.0000   1.0000
     1.0000   1.0000   1.0000   1.0000   1.0000   1.0000   1.0000   1.0000
     1.0000   1.0000   0.0000   0.0000   0.0000   0.0000   0.0000   0.0000
     0.0000   0.0000   0.0000   0.0000   0.0000   0.0000   0.0000   0.0000
     0.0000   0.0000   0.0000   0.0000   0.0000   0.0000   0.0000   0.0000
     0.0000   0.0000   0.0000   0.0000   0.0000   0.0000   0.0000   0.0000
     0.0000   0.0000   0.0000   0.0000   0.0000   0.0000   0.0000   0.0000
     0.0000   0.0000   0.0000   0.0000   0.0000   0.0000   0.0000   0.0000
     0.0000   0.0000   0.0000   0.0000   0.0000   0.0000   0.0000   0.0000

          k = 0.0000 0.2887 0.0516 (  6480 PWs)   bands (ev):

   -10.7588 -10.2764   0.9988   1.3008   1.3776   1.4909   1.6507   1.7632
     2.2276   2.3397   2.5264   2.6483   2.9575   4.3730   5.0499   5.3667
     6.2792   6.3771   9.9939  13.5249  14.9040  16.3310  18.1728  19.7456
    19.9570  20.7207  21.9077  24.5430  24.8852  27.1865  29.3458  30.4819
    30.8726  31.2535  31.8250  33.0440  34.3623  34.3811  34.8546  35.6192
    36.8380  37.7398  38.2863  41.1969  42.5525  43.7599  44.1366  45.1605
    46.8605  46.8850  47.6926  49.2270  50.0257  50.2851  50.6657  51.7955
    52.8993  55.1627  55.9498  56.7186  57.0749  57.9335  58.9055  60.0018
    60.3539  61.1127  61.4826  61.5994  62.6025  62.7547  63.5802  64.2325

     occupation numbers 
     1.0000   1.0000   1.0000   1.0000   1.0000   1.0000   1.0000   1.0000
     1.0000   1.0000   1.0000   1.0000   1.0000   1.0000   1.0000   1.0000
     1.0000   1.0000   0.0000   0.0000   0.0000   0.0000   0.0000   0.0000
     0.0000   0.0000   0.0000   0.0000   0.0000   0.0000   0.0000   0.0000
     0.0000   0.0000   0.0000   0.0000   0.0000   0.0000   0.0000   0.0000
     0.0000   0.0000   0.0000   0.0000   0.0000   0.0000   0.0000   0.0000
     0.0000   0.0000   0.0000   0.0000   0.0000   0.0000   0.0000   0.0000
     0.0000   0.0000   0.0000   0.0000   0.0000   0.0000   0.0000   0.0000
     0.0000   0.0000   0.0000   0.0000   0.0000   0.0000   0.0000   0.0000

          k = 0.0000 0.2887 0.1032 (  6486 PWs)   bands (ev):

   -10.7340 -10.3014   0.9787   1.2378   1.3879   1.4745   1.6319   1.6702
     2.2589   2.3501   2.5173   2.6033   3.2245   4.4321   4.9868   5.4219
     6.2445   6.3269  10.1214  13.2266  15.0779  16.3801  18.1168  19.5732
    19.9593  20.6310  21.8122  24.8352  25.0254  27.4480  28.9356  30.4957
    30.5218  31.6017  31.8108  33.1022  34.0366  34.3758  34.7428  36.1805
    36.9743  37.9281  38.4874  41.3034  42.1691  43.1810  44.7523  45.1203
    45.6612  46.7233  47.3189  49.8441  50.1185  50.7976  50.8568  52.5602
    54.0335  54.7555  55.3857  55.7494  56.8610  58.0735  58.6061  59.3922
    59.8321  60.8746  61.1778  61.6239  62.5184  62.8233  63.5966  64.7836

     occupation numbers 
     1.0000   1.0000   1.0000   1.0000   1.0000   1.0000   1.0000   1.0000
     1.0000   1.0000   1.0000   1.0000   1.0000   1.0000   1.0000   1.0000
     1.0000   1.0000   0.0000   0.0000   0.0000   0.0000   0.0000   0.0000
     0.0000   0.0000   0.0000   0.0000   0.0000   0.0000   0.0000   0.0000
     0.0000   0.0000   0.0000   0.0000   0.0000   0.0000   0.0000   0.0000
     0.0000   0.0000   0.0000   0.0000   0.0000   0.0000   0.0000   0.0000
     0.0000   0.0000   0.0000   0.0000   0.0000   0.0000   0.0000   0.0000
     0.0000   0.0000   0.0000   0.0000   0.0000   0.0000   0.0000   0.0000
     0.0000   0.0000   0.0000   0.0000   0.0000   0.0000   0.0000   0.0000

          k = 0.0000 0.2887 0.1549 (  6484 PWs)   bands (ev):

   -10.6945 -10.3412   0.9511   1.1420   1.4051   1.4599   1.5957   1.6034
     2.3002   2.3664   2.5027   2.5678   3.5216   4.5008   4.9401   5.5088
     6.1566   6.2467  10.3387  12.8292  15.3008  16.4323  18.0190  19.2670
    19.9713  20.5076  21.9171  24.9482  25.2900  27.8371  28.6853  29.8239
    30.6025  31.4621  31.9675  33.6635  33.7575  34.4686  34.6742  36.7477
    36.8365  37.9437  39.0027  40.9115  42.2373  43.2629  43.6252  45.1313
    45.2106  46.5400  47.4779  50.1407  50.9701  51.0485  51.4797  53.0577
    53.4735  53.8886  55.5005  55.9248  56.8429  57.6157  58.0797  59.0267
    59.7380  60.5804  60.8340  61.6396  62.4123  62.6235  63.7346  63.8663

     occupation numbers 
     1.0000   1.0000   1.0000   1.0000   1.0000   1.0000   1.0000   1.0000
     1.0000   1.0000   1.0000   1.0000   1.0000   1.0000   1.0000   1.0000
     1.0000   1.0000   0.0000   0.0000   0.0000   0.0000   0.0000   0.0000
     0.0000   0.0000   0.0000   0.0000   0.0000   0.0000   0.0000   0.0000
     0.0000   0.0000   0.0000   0.0000   0.0000   0.0000   0.0000   0.0000
     0.0000   0.0000   0.0000   0.0000   0.0000   0.0000   0.0000   0.0000
     0.0000   0.0000   0.0000   0.0000   0.0000   0.0000   0.0000   0.0000
     0.0000   0.0000   0.0000   0.0000   0.0000   0.0000   0.0000   0.0000
     0.0000   0.0000   0.0000   0.0000   0.0000   0.0000   0.0000   0.0000

          k = 0.0000 0.2887 0.2065 (  6472 PWs)   bands (ev):

   -10.6430 -10.3931   0.9254   1.0440   1.4288   1.4550   1.5440   1.5684
     2.3473   2.3873   2.4835   2.5312   3.8002   4.4931   5.0154   5.6205
     5.9987   6.1415  10.6429  12.3812  15.5550  16.4331  17.9419  18.8815
    20.0015  20.3737  22.2654  24.5861  25.8768  28.2242  28.6384  29.0127
    30.6821  31.1769  32.2333  33.4861  34.2899  34.5300  34.8859  36.7747
    37.3143  37.6159  39.6166  40.1352  41.7687  43.2187  43.8778  44.2976
    45.1393  47.0212  47.6602  50.1010  51.2836  51.5627  52.1339  52.2133
    53.2366  53.9416  55.5737  56.2115  56.7629  56.8295  57.5698  59.2281
    59.8440  59.8662  60.9222  61.5518  62.3374  62.5390  62.9960  63.9456

     occupation numbers 
     1.0000   1.0000   1.0000   1.0000   1.0000   1.0000   1.0000   1.0000
     1.0000   1.0000   1.0000   1.0000   1.0000   1.0000   1.0000   1.0000
     1.0000   1.0000   0.0000   0.0000   0.0000   0.0000   0.0000   0.0000
     0.0000   0.0000   0.0000   0.0000   0.0000   0.0000   0.0000   0.0000
     0.0000   0.0000   0.0000   0.0000   0.0000   0.0000   0.0000   0.0000
     0.0000   0.0000   0.0000   0.0000   0.0000   0.0000   0.0000   0.0000
     0.0000   0.0000   0.0000   0.0000   0.0000   0.0000   0.0000   0.0000
     0.0000   0.0000   0.0000   0.0000   0.0000   0.0000   0.0000   0.0000
     0.0000   0.0000   0.0000   0.0000   0.0000   0.0000   0.0000   0.0000

          k = 0.0000 0.2887 0.2581 (  6479 PWs)   bands (ev):

   -10.5829 -10.4535   0.9131   0.9685   1.4585   1.4616   1.5064   1.5305
     2.3965   2.4111   2.4609   2.4903   4.0360   4.3862   5.2314   5.7487
     5.7741   6.0181  11.0209  11.9137  15.8294  16.3216  17.9844  18.4987
    20.0565  20.2468  22.7880  24.0326  26.5683  28.1662  28.4931  28.6798
    30.7478  30.9751  32.5500  33.1952  34.4715  34.5760  35.4709  36.7648
[...]
     1.0000   1.0000   0.0000   0.0000   0.0000   0.0000   0.0000   0.0000
     0.0000   0.0000   0.0000   0.0000   0.0000   0.0000   0.0000   0.0000
     0.0000   0.0000   0.0000   0.0000   0.0000   0.0000   0.0000   0.0000
     0.0000   0.0000   0.0000   0.0000   0.0000   0.0000   0.0000   0.0000
     0.0000   0.0000   0.0000   0.0000   0.0000   0.0000   0.0000   0.0000
     0.0000   0.0000   0.0000   0.0000   0.0000   0.0000   0.0000   0.0000
     0.0000   0.0000   0.0000   0.0000   0.0000   0.0000   0.0000   0.0000

          k = 0.3333 0.5774 0.0000 (  6462 PWs)   bands (ev):

   -10.2594 -10.2594   1.1969   1.5823   1.5823   1.9427   2.1713   2.1713
     2.2537   2.3736   2.4292   2.4292   3.1482   3.3048   3.3048   4.9281
     4.9281   5.1183  14.2726  14.2726  14.4347  14.8466  17.3621  17.3621
    19.7629  20.2195  20.2195  27.6581  27.7089  27.7089  28.9786  31.1954
    32.5462  32.5462  32.7655  32.7655  33.1514  34.0767  35.2355  35.2355
    41.0324  41.0324  43.6691  43.8587  43.8587  45.0835  46.0967  46.0967
    47.1445  47.3047  47.3047  47.6562  49.6468  49.6688  49.6688  50.2279
    50.6419  50.6419  50.6719  51.5904  51.5904  53.6678  53.6678  55.0716
    56.5516  56.5516  57.5950  60.9443  60.9443  61.1953  61.9155  61.9155

     occupation numbers 
     1.0000   1.0000   1.0000   1.0000   1.0000   1.0000   1.0000   1.0000
     1.0000   1.0000   1.0000   1.0000   1.0000   1.0000   1.0000   1.0000
     1.0000   1.0000   0.0000   0.0000   0.0000   0.0000   0.0000   0.0000
     0.0000   0.0000   0.0000   0.0000   0.0000   0.0000   0.0000   0.0000
     0.0000   0.0000   0.0000   0.0000   0.0000   0.0000   0.0000   0.0000
     0.0000   0.0000   0.0000   0.0000   0.0000   0.0000   0.0000   0.0000
     0.0000   0.0000   0.0000   0.0000   0.0000   0.0000   0.0000   0.0000
     0.0000   0.0000   0.0000   0.0000   0.0000   0.0000   0.0000   0.0000
     0.0000   0.0000   0.0000   0.0000   0.0000   0.0000   0.0000   0.0000

          k = 0.3333 0.5774 0.0516 (  6468 PWs)   bands (ev):

   -10.2588 -10.2588   1.2038   1.5593   1.5593   1.9123   2.1300   2.1300
     2.2588   2.3719   2.4793   2.4793   3.1931   3.2927   3.2927   4.9743
     4.9743   5.0855  14.2821  14.2821  14.4492  14.8441  17.1943  17.1943
    19.8343  20.4013  20.4013  27.1585  27.5810  27.5810  29.2193  31.1156
    32.2892  32.2892  33.2364  33.2364  33.4903  34.2324  35.1739  35.1739
    41.0828  41.0828  43.3490  43.8523  43.8523  45.0598  46.0761  46.0761
    47.1503  47.1503  47.2679  47.4587  49.2376  49.2376  49.9124  50.0536
    50.4608  50.4608  50.8099  52.1877  52.1877  53.8964  53.8964  54.4269
    56.4570  56.4570  58.3992  60.5538  60.5538  60.9133  62.3059  62.3060

     occupation numbers 
     1.0000   1.0000   1.0000   1.0000   1.0000   1.0000   1.0000   1.0000
     1.0000   1.0000   1.0000   1.0000   1.0000   1.0000   1.0000   1.0000
     1.0000   1.0000   0.0000   0.0000   0.0000   0.0000   0.0000   0.0000
     0.0000   0.0000   0.0000   0.0000   0.0000   0.0000   0.0000   0.0000
     0.0000   0.0000   0.0000   0.0000   0.0000   0.0000   0.0000   0.0000
     0.0000   0.0000   0.0000   0.0000   0.0000   0.0000   0.0000   0.0000
     0.0000   0.0000   0.0000   0.0000   0.0000   0.0000   0.0000   0.0000
     0.0000   0.0000   0.0000   0.0000   0.0000   0.0000   0.0000   0.0000
     0.0000   0.0000   0.0000   0.0000   0.0000   0.0000   0.0000   0.0000

          k = 0.3333 0.5774 0.1032 (  6459 PWs)   bands (ev):

   -10.2571 -10.2571   1.2247   1.4955   1.4955   1.8355   2.0634   2.0634
     2.2698   2.3671   2.5725   2.5725   3.2613   3.2613   3.3165   4.9901
     5.0979   5.0979  14.3116  14.3116  14.4895  14.8362  16.7975  16.7975
    20.0488  20.8394  20.8394  26.2027  27.2473  27.2473  29.5081  30.9202
    32.1349  32.1349  33.8936  33.8936  34.3930  34.6538  35.1033  35.1033
    41.2040  41.2040  42.5615  43.7915  43.7915  45.0649  45.9362  45.9362
    46.6923  46.6923  46.9547  47.5700  48.6542  48.6542  48.8748  50.3559
    50.3559  51.0962  51.3371  53.0915  53.0915  53.4726  54.2982  54.2982
    56.2654  56.2654  59.6655  60.1223  60.1223  60.1417  62.7926  62.7926

     occupation numbers 
     1.0000   1.0000   1.0000   1.0000   1.0000   1.0000   1.0000   1.0000
     1.0000   1.0000   1.0000   1.0000   1.0000   1.0000   1.0000   1.0000
     1.0000   1.0000   0.0000   0.0000   0.0000   0.0000   0.0000   0.0000
     0.0000   0.0000   0.0000   0.0000   0.0000   0.0000   0.0000   0.0000
     0.0000   0.0000   0.0000   0.0000   0.0000   0.0000   0.0000   0.0000
     0.0000   0.0000   0.0000   0.0000   0.0000   0.0000   0.0000   0.0000
     0.0000   0.0000   0.0000   0.0000   0.0000   0.0000   0.0000   0.0000
     0.0000   0.0000   0.0000   0.0000   0.0000   0.0000   0.0000   0.0000
     0.0000   0.0000   0.0000   0.0000   0.0000   0.0000   0.0000   0.0000

          k = 0.3333 0.5774 0.1549 (  6435 PWs)   bands (ev):

   -10.2549 -10.2549   1.2595   1.4088   1.4088   1.7370   2.0133   2.0133
     2.2826   2.3593   2.6629   2.6629   3.2210   3.2210   3.4956   4.8404
     5.2619   5.2619  14.3638  14.3638  14.5468  14.8218  16.3323  16.3323
    20.4061  21.3691  21.3691  25.1568  26.8119  26.8119  29.6918  30.6835
    32.1130  32.1130  34.1299  34.1299  35.2586  35.5561  35.5561  35.6257
    41.3278  41.3278  41.6109  43.4746  43.4746  45.1403  45.4905  45.4905
    46.1308  46.3864  46.3864  47.6294  47.9969  48.3418  48.3418  50.4405
    50.4405  51.8392  52.4967  52.8482  53.7183  53.7183  54.6179  54.6179
    56.0990  56.0990  59.0849  60.0961  60.0961  60.6430  63.0219  63.0220

     occupation numbers 
     1.0000   1.0000   1.0000   1.0000   1.0000   1.0000   1.0000   1.0000
     1.0000   1.0000   1.0000   1.0000   1.0000   1.0000   1.0000   1.0000
     1.0000   1.0000   0.0000   0.0000   0.0000   0.0000   0.0000   0.0000
     0.0000   0.0000   0.0000   0.0000   0.0000   0.0000   0.0000   0.0000
     0.0000   0.0000   0.0000   0.0000   0.0000   0.0000   0.0000   0.0000
     0.0000   0.0000   0.0000   0.0000   0.0000   0.0000   0.0000   0.0000
     0.0000   0.0000   0.0000   0.0000   0.0000   0.0000   0.0000   0.0000
     0.0000   0.0000   0.0000   0.0000   0.0000   0.0000   0.0000   0.0000
     0.0000   0.0000   0.0000   0.0000   0.0000   0.0000   0.0000   0.0000

          k = 0.3333 0.5774 0.2065 (  6444 PWs)   bands (ev):

   -10.2526 -10.2526   1.3083   1.3250   1.3250   1.6338   1.9825   1.9825
     2.2959   2.3490   2.7366   2.7366   3.1813   3.1813   3.7103   4.6480
     5.4221   5.4221  14.4398  14.4398  14.6106  14.7996  15.9007  15.9007
    20.9042  21.8743  21.8743  24.1286  26.3767  26.3767  29.8235  30.4538
    32.1742  32.1742  33.9141  33.9141  35.9826  36.5704  36.5704  36.9327
    40.7573  41.3655  41.3655  42.6655  42.6655  44.7720  45.2401  45.2401
    45.2872  46.2688  46.2688  46.7549  48.2048  48.2048  48.5339  50.6639
    50.6639  51.4034  53.3456  53.6805  53.6805  54.0779  54.9752  54.9752
    56.1736  56.1736  57.9469  60.2565  60.2565  61.0322  62.5619  62.8885

     occupation numbers 
     1.0000   1.0000   1.0000   1.0000   1.0000   1.0000   1.0000   1.0000
     1.0000   1.0000   1.0000   1.0000   1.0000   1.0000   1.0000   1.0000
     1.0000   1.0000   0.0000   0.0000   0.0000   0.0000   0.0000   0.0000
     0.0000   0.0000   0.0000   0.0000   0.0000   0.0000   0.0000   0.0000
     0.0000   0.0000   0.0000   0.0000   0.0000   0.0000   0.0000   0.0000
     0.0000   0.0000   0.0000   0.0000   0.0000   0.0000   0.0000   0.0000
     0.0000   0.0000   0.0000   0.0000   0.0000   0.0000   0.0000   0.0000
     0.0000   0.0000   0.0000   0.0000   0.0000   0.0000   0.0000   0.0000
     0.0000   0.0000   0.0000   0.0000   0.0000   0.0000   0.0000   0.0000

          k = 0.3333 0.5774 0.2581 (  6447 PWs)   bands (ev):

   -10.2509 -10.2509   1.2661   1.2661   1.3710   1.5356   1.9662   1.9662
     2.3097   2.3369   2.7866   2.7866   3.1510   3.1510   3.9452   4.4261
     5.5377   5.5377  14.5272  14.5272  14.6720  14.7678  15.5762  15.5762
    21.5373  22.2539  22.2539  23.1658  26.0410  26.0410  29.9464  30.2526
    32.2654  32.2654  33.6697  33.6697  36.7688  37.6879  37.6879  37.7728
    40.5260  41.0144  41.0144  41.9318  41.9318  43.1210  45.2727  45.2727
    45.5089  46.1564  46.1564  46.2096  48.1771  48.1771  49.1664  50.6379
    50.8862  50.8862  53.4997  53.4997  54.2933  54.8034  54.8034  55.5569
    56.8445  56.8445  57.0360  59.7751  59.9845  59.9845  62.4078  62.8538

     occupation numbers 
     1.0000   1.0000   1.0000   1.0000   1.0000   1.0000   1.0000   1.0000
     1.0000   1.0000   1.0000   1.0000   1.0000   1.0000   1.0000   1.0000
     1.0000   1.0000   0.0000   0.0000   0.0000   0.0000   0.0000   0.0000
     0.0000   0.0000   0.0000   0.0000   0.0000   0.0000   0.0000   0.0000
     0.0000   0.0000   0.0000   0.0000   0.0000   0.0000   0.0000   0.0000
     0.0000   0.0000   0.0000   0.0000   0.0000   0.0000   0.0000   0.0000
     0.0000   0.0000   0.0000   0.0000   0.0000   0.0000   0.0000   0.0000
     0.0000   0.0000   0.0000   0.0000   0.0000   0.0000   0.0000   0.0000
     0.0000   0.0000   0.0000   0.0000   0.0000   0.0000   0.0000   0.0000

          k = 0.3333 0.5774-0.3097 (  6432 PWs)   bands (ev):

   -10.2503 -10.2503   1.2451   1.2451   1.4472   1.4472   1.9611   1.9611
     2.3236   2.3236   2.8047   2.8047   3.1393   3.1393   4.1877   4.1877
     5.5798   5.5798  14.5736  14.5736  14.7253  14.7253  15.4467  15.4467
    22.2958  22.2958  22.3994  22.3994  25.9104  25.9104  30.0850  30.0850
    32.3123  32.3123  33.5655  33.5655  37.5067  37.5067  38.3471  38.3471
    40.4757  40.4757  41.5364  41.5364  41.8043  41.8043  45.3239  45.3239
    45.8115  45.8115  46.0953  46.0953  48.1830  48.1830  49.8759  49.8759
    50.9755  50.9755  53.4419  53.4419  54.6452  54.6452  55.2959  55.2959
    57.2907  57.2907  57.9933  57.9933  59.6550  59.6550  62.7751  62.7764

     occupation numbers 
     1.0000   1.0000   1.0000   1.0000   1.0000   1.0000   1.0000   1.0000
     1.0000   1.0000   1.0000   1.0000   1.0000   1.0000   1.0000   1.0000
     1.0000   1.0000   0.0000   0.0000   0.0000   0.0000   0.0000   0.0000
     0.0000   0.0000   0.0000   0.0000   0.0000   0.0000   0.0000   0.0000
     0.0000   0.0000   0.0000   0.0000   0.0000   0.0000   0.0000   0.0000
     0.0000   0.0000   0.0000   0.0000   0.0000   0.0000   0.0000   0.0000
     0.0000   0.0000   0.0000   0.0000   0.0000   0.0000   0.0000   0.0000
     0.0000   0.0000   0.0000   0.0000   0.0000   0.0000   0.0000   0.0000
     0.0000   0.0000   0.0000   0.0000   0.0000   0.0000   0.0000   0.0000

     highest occupied, lowest unoccupied level (ev):     6.7692    7.5100

!    total energy              =    -361.64872375 Ry
     estimated scf accuracy    <          5.1E-11 Ry

     The total energy is the sum of the following terms:
     one-electron contribution =    -155.40856508 Ry
     hartree contribution      =     118.59216176 Ry
     xc contribution           =    -109.52637175 Ry
     ewald contribution        =    -215.30594867 Ry

     convergence has been achieved in  14 iterations

     Forces acting on atoms (cartesian axes, Ry/au):

     atom    1 type  1   force =     0.00000000    0.00000000    0.00000990
     atom    2 type  1   force =     0.00000000    0.00000000    0.00000990
     atom    3 type  2   force =     0.00000000    0.00000000   -0.00000990
     atom    4 type  2   force =     0.00000000   -0.00000000   -0.00000990
     The non-local contrib.  to forces
     atom    1 type  1   force =     0.00000000    0.00000000   -0.00481254
     atom    2 type  1   force =    -0.00000000   -0.00000000   -0.00481254
     atom    3 type  2   force =    -0.00000000    0.00000000    0.00541227
     atom    4 type  2   force =     0.00000000    0.00000000    0.00541227
     The ionic contribution  to forces
     atom    1 type  1   force =    -0.00000000    0.00000000    0.06174506
     atom    2 type  1   force =     0.00000000   -0.00000000    0.06174506
     atom    3 type  2   force =    -0.00000000    0.00000000   -0.06174506
     atom    4 type  2   force =     0.00000000   -0.00000000   -0.06174506
     The local contribution  to forces
     atom    1 type  1   force =    -0.00000002    0.00000001   -0.05739253
     atom    2 type  1   force =     0.00000006   -0.00000004   -0.05739253
     atom    3 type  2   force =    -0.00000001    0.00000000    0.05638956
     atom    4 type  2   force =     0.00000002   -0.00000001    0.05638956
     The core correction contribution to forces
     atom    1 type  1   force =    -0.00000000    0.00000000    0.00046734
     atom    2 type  1   force =     0.00000001   -0.00000000    0.00046734
     atom    3 type  2   force =     0.00000000   -0.00000000   -0.00006167
     atom    4 type  2   force =    -0.00000000    0.00000000   -0.00006167
     The Hubbard contrib.    to forces
     atom    1 type  1   force =     0.00000000    0.00000000    0.00000000
     atom    2 type  1   force =     0.00000000    0.00000000    0.00000000
     atom    3 type  2   force =     0.00000000    0.00000000    0.00000000
     atom    4 type  2   force =     0.00000000    0.00000000    0.00000000
     The SCF correction term to forces
     atom    1 type  1   force =     0.00000000   -0.00000000    0.00000619
     atom    2 type  1   force =    -0.00000000    0.00000000    0.00000619
     atom    3 type  2   force =     0.00000000   -0.00000000   -0.00000137
     atom    4 type  2   force =    -0.00000000    0.00000000   -0.00000137

     Total force =     0.000020     Total SCF correction =     0.000009
     SCF correction compared to forces is large: reduce conv_thr to get better values


     Computing stress (Cartesian axis) and pressure

          total   stress  (Ry/bohr**3)                   (kbar)     P=        2.09
   0.00001421   0.00000000   0.00000000            2.09        0.00        0.00
   0.00000000   0.00001421   0.00000000            0.00        2.09        0.00
   0.00000000   0.00000000   0.00001420            0.00        0.00        2.09

     kinetic stress (kbar)  23928.65     -0.00     -0.00
                               -0.00  23928.65      0.00
                               -0.00      0.00  23950.44

     local   stress (kbar)   3375.84     -0.00     -0.00
                               -0.00   3375.84      0.00
                               -0.00      0.00   1477.79

     nonloc. stress (kbar)  -3119.86      0.00      0.00
                                0.00  -3119.86      0.00
                                0.00      0.00  -3125.63

     hartree stress (kbar)  17201.15     -0.00      0.00
                               -0.00  17201.15     -0.00
                                0.00     -0.00  18092.86

     exc-cor stress (kbar)  13371.46      0.00      0.00
                                0.00  13371.46     -0.00
                                0.00     -0.00  13371.32

     corecor stress (kbar) -22656.52     -0.00     -0.00
                               -0.00 -22656.52      0.00
                               -0.00      0.00 -22656.17

     ewald   stress (kbar) -32098.64      0.00      0.00
                                0.00 -32098.64     -0.00
                                0.00     -0.00 -31108.52

     hubbard stress (kbar)      0.00      0.00      0.00
                                0.00      0.00      0.00
                                0.00      0.00      0.00

     DFT-D   stress (kbar)      0.00      0.00      0.00
                                0.00      0.00      0.00
                                0.00      0.00      0.00

     XDM     stress (kbar)      0.00      0.00      0.00
                                0.00      0.00      0.00
                                0.00      0.00      0.00

     dft-nl  stress (kbar)      0.00      0.00      0.00
                                0.00      0.00      0.00
                                0.00      0.00      0.00

     TS-vdW  stress (kbar)      0.00      0.00      0.00
                                0.00      0.00      0.00
                                0.00      0.00      0.00

     MDB     stress (kbar)      0.00      0.00      0.00
                                0.00      0.00      0.00
                                0.00      0.00      0.00

     3D-RISM stress (kbar)      0.00      0.00      0.00
                                0.00      0.00      0.00
                                0.00      0.00      0.00


     Writing all to output data dir ./ZnO_PBE_bulk.save/

     init_run     :    159.20s CPU    212.63s WALL (       1 calls)
     electrons    :   7164.63s CPU   9872.19s WALL (       1 calls)
     forces       :    117.29s CPU    163.35s WALL (       1 calls)
     stress       :     36.64s CPU     48.54s WALL (       1 calls)

     Called by init_run:
     wfcinit      :    157.79s CPU    211.12s WALL (       1 calls)
     wfcinit:atom :      0.02s CPU      0.01s WALL (      67 calls)
     wfcinit:wfcr :    157.63s CPU    210.99s WALL (      67 calls)
     potinit      :      0.11s CPU      0.11s WALL (       1 calls)
     hinit0       :      0.45s CPU      0.46s WALL (       1 calls)

     Called by electrons:
     c_bands      :   6608.74s CPU   9145.12s WALL (      14 calls)
     sum_band     :    543.70s CPU    711.66s WALL (      14 calls)
     v_of_rho     :      0.18s CPU      0.18s WALL (      15 calls)
     v_h          :      0.01s CPU      0.01s WALL (      15 calls)
     v_xc         :      0.24s CPU      0.24s WALL (      17 calls)
     newd         :      8.65s CPU     11.70s WALL (      15 calls)
     mix_rho      :      0.60s CPU      0.60s WALL (      14 calls)

     Called by c_bands:
     init_us_2    :      0.64s CPU      0.85s WALL (    2077 calls)
     init_us_2:cp :      0.63s CPU      0.84s WALL (    2077 calls)
     cegterg      :   5917.92s CPU   8249.15s WALL (     938 calls)

     Called by sum_band:
     sum_band:wei :      0.62s CPU      0.58s WALL (      14 calls)
     sum_band:loo :    524.59s CPU    685.02s WALL (      14 calls)
     sum_band:buf :      0.09s CPU      0.14s WALL (     938 calls)
     sum_band:ini :      0.19s CPU      0.25s WALL (     938 calls)
     sum_band:cal :    336.03s CPU    436.33s WALL (     938 calls)
     sum_band:bec :      0.06s CPU      0.09s WALL (     938 calls)
     addusdens    :      0.87s CPU      1.81s WALL (      14 calls)
                                        0.00s GPU  (      14 calls)
     addusd:skk   :      0.00s CPU      0.01s WALL (      28 calls)
                                        0.00s GPU  (      28 calls)

     Called by *egterg:
     cdiaghg      :    545.88s CPU    883.09s WALL (    3221 calls)
     cegterg:over :   1564.75s CPU   2062.54s WALL (    2283 calls)
     cegterg:upda :     45.43s CPU    131.40s WALL (    2283 calls)
     cegterg:last :     53.25s CPU    144.03s WALL (    1605 calls)
     h_psi        :   2051.69s CPU   2911.67s WALL (    3288 calls)
     s_psi        :     20.11s CPU     60.63s WALL (    3288 calls)
     g_psi        :      0.34s CPU      0.19s WALL (    2283 calls)

     Called by h_psi:
     h_psi:calbec :   1086.94s CPU   1510.97s WALL (    3288 calls)
     vloc_psi     :    925.95s CPU   1246.58s WALL (    3288 calls)
     add_vuspsi   :     38.39s CPU    153.34s WALL (    3288 calls)

     General routines
     calbec       :   1568.21s CPU   2145.86s WALL (    4561 calls)
     fft          :      0.33s CPU      0.33s WALL (     190 calls)
     ffts         :      0.51s CPU      0.51s WALL (     411 calls)
     fftw         :   1105.47s CPU   1483.79s WALL (  380966 calls)

     Parallel routines

     PWSCF        :      2h 4m CPU      2h51m WALL


   This run was terminated on:  23: 8:45  30May2025            

=------------------------------------------------------------------------------=
   JOB DONE.
=------------------------------------------------------------------------------=
