
     Program PWSCF v.7.0 starts on 31Aug2025 at 15:43: 8 

     This program is part of the open-source Quantum ESPRESSO suite
     for quantum simulation of materials; please cite
         "P. Giannozzi et al., J. Phys.:Condens. Matter 21 395502 (2009);
         "P. Giannozzi et al., J. Phys.:Condens. Matter 29 465901 (2017);
         "P. Giannozzi et al., J. Chem. Phys. 152 154105 (2020);
          URL http://www.quantum-espresso.org", 
     in publications or presentations arising from this work. More details at
     http://www.quantum-espresso.org/quote

     Parallel version (MPI & OpenMP), running on      32 processor cores
     Number of MPI processes:                32
     Threads/MPI process:                     1

     MPI processes distributed on     1 nodes
     K-points division:     npool     =       8
     R & G space division:  proc/nbgrp/npool/nimage =       4
     102778 MiB available memory on the printing compute node when the environment starts

     Reading input from /home/jvc/QEspresso7.2/ZnO_database/scripts/cell132.in/ZnO-3.47-1.49-132.in
Warning: card &CELL ignored
Warning: card / ignored
Warning: card &FCP ignored
Warning: card / ignored
Warning: card &RISM ignored
Warning: card / ignored

     Current dimensions of program PWSCF are:
     Max number of different atomic species (ntypx) = 10
     Max number of k-points (npk) =  40000
     Max angular momentum in pseudopotentials (lmaxx) =  4
     file Zn.upf: wavefunction(s)  3D renormalized
     Found identity + (  0.0000  0.0000  0.5000) symmetry
     This is a supercell, fractional translations are disabled
     Message from routine setup:
     using ibrav=0 with symmetry is DISCOURAGED, use correct ibrav instead

     Subspace diagonalization in iterative solution of the eigenvalue problem:
     one sub-group per band group will be used
     scalapack distributed-memory algorithm (size of sub-group:  2*  2 procs)


     Parallelization info
     --------------------
     sticks:   dense  smooth     PW     G-vecs:    dense   smooth      PW
     Min         886     440    127                73232    25872    4085
     Max         887     441    129                73236    25879    4088
     Sum        3545    1763    511               292935   103509   16345

     Using Slab Decomposition



     bravais-lattice index     =            0
     lattice parameter (alat)  =       6.5496  a.u.
     unit-cell volume          =    2168.2584 (a.u.)^3
     number of atoms/cell      =           24
     number of atomic types    =            2
     number of electrons       =       216.00
     number of Kohn-Sham states=          108
     kinetic-energy cutoff     =      50.0000  Ry
     charge density cutoff     =     400.0000  Ry
     scf convergence threshold =      1.0E-08
     mixing beta               =       0.3000
     number of iterations used =            8  plain     mixing
     Exchange-correlation= PBE
                           (   1   4   3   4   0   0   0)

     celldm(1)=   6.549585  celldm(2)=   0.000000  celldm(3)=   0.000000
     celldm(4)=   0.000000  celldm(5)=   0.000000  celldm(6)=   0.000000

     crystal axes: (cart. coord. in units of alat)
               a(1) = (   1.000000   0.000000   0.000000 )  
               a(2) = (  -1.500000   2.598076   0.000000 )  
               a(3) = (   0.000000   0.000000   2.970419 )  

     reciprocal axes: (cart. coord. in units 2 pi/alat)
               b(1) = (  1.000000  0.577350 -0.000000 )  
               b(2) = (  0.000000  0.384900  0.000000 )  
               b(3) = (  0.000000 -0.000000  0.336653 )  


     PseudoPot. # 1 for Zn read from file:
     /home/jvc/QEspresso7.2/ZnO_database/pseudos/Zn.upf
     MD5 check sum: 7f56cabf9682ed8c977c2f7d0c5985c5
     Pseudo is Ultrasoft + core correction, Zval = 12.0
     Generated using &quot;atomic&quot; code by A. Dal Corso  v.6.2.2
     Using radial grid of 1201 points,  6 beta functions with: 
                l(1) =   0
                l(2) =   0
                l(3) =   1
                l(4) =   1
                l(5) =   2
                l(6) =   2
     Q(r) pseudized with 0 coefficients 


     PseudoPot. # 2 for O  read from file:
     /home/jvc/QEspresso7.2/ZnO_database/pseudos/O.upf
     MD5 check sum: 91400c9766925bcf19f520983a725ff0
     Pseudo is Ultrasoft + core correction, Zval =  6.0
     Generated using &quot;atomic&quot; code by A. Dal Corso  v.6.3MaX
     Using radial grid of 1095 points,  4 beta functions with: 
                l(1) =   0
                l(2) =   0
                l(3) =   1
                l(4) =   1
     Q(r) pseudized with 0 coefficients 


     atomic species   valence    mass     pseudopotential
        Zn            12.00    65.38000     Zn( 1.00)
        O              6.00    15.99900     O ( 1.00)

      2 Sym. Ops. (no inversion) found


                                    s                        frac. trans.

      isym =  1     identity                                     

 cryst.   s( 1) = (     1          0          0      )
                  (     0          1          0      )
                  (     0          0          1      )

 cart.    s( 1) = (  1.0000000  0.0000000  0.0000000 )
                  (  0.0000000  1.0000000  0.0000000 )
                  (  0.0000000  0.0000000  1.0000000 )


      isym =  2     inv. 180 deg rotation - cart. axis [1,0,0]   

 cryst.   s( 2) = (    -1          0          0      )
                  (     3          1          0      )
                  (     0          0          1      )

 cart.    s( 2) = ( -1.0000000 -0.0000000  0.0000000 )
                  (  0.0000000  1.0000000  0.0000000 )
                  (  0.0000000  0.0000000  1.0000000 )


   Cartesian axes

     site n.     atom                  positions (alat units)
         1           Zn  tau(   1) = (   0.5000000   0.2886751   0.7435459  )
         2           Zn  tau(   2) = (  -0.0000000   0.5773503   0.0009410  )
         3           O   tau(   3) = (   0.5000000   0.2886751   1.3065039  )
         4           O   tau(   4) = (  -0.0000000   0.5773503   0.5638991  )
         5           Zn  tau(   5) = (   0.5000000   0.2886751   2.2287555  )
         6           Zn  tau(   6) = (  -0.0000000   0.5773503   1.4861507  )
         7           O   tau(   7) = (   0.5000000   0.2886751   2.7917136  )
         8           O   tau(   8) = (  -0.0000000   0.5773503   2.0491088  )
         9           Zn  tau(   9) = (   0.0000000   1.1547005   0.7435459  )
        10           Zn  tau(  10) = (  -0.5000000   1.4433757   0.0009410  )
        11           O   tau(  11) = (   0.0000000   1.1547005   1.3065039  )
        12           O   tau(  12) = (  -0.5000000   1.4433757   0.5638991  )
        13           Zn  tau(  13) = (   0.0000000   1.1547005   2.2287555  )
        14           Zn  tau(  14) = (  -0.5000000   1.4433757   1.4861507  )
        15           O   tau(  15) = (   0.0000000   1.1547005   2.7917136  )
        16           O   tau(  16) = (  -0.5000000   1.4433757   2.0491088  )
        17           Zn  tau(  17) = (  -0.5000000   2.0207259   0.7435459  )
        18           Zn  tau(  18) = (  -1.0000000   2.3094011   0.0009410  )
        19           O   tau(  19) = (  -0.5000000   2.0207259   1.3065039  )
        20           O   tau(  20) = (  -1.0000000   2.3094011   0.5638991  )
        21           Zn  tau(  21) = (  -0.5000000   2.0207259   2.2287555  )
        22           Zn  tau(  22) = (  -1.0000000   2.3094011   1.4861507  )
        23           O   tau(  23) = (  -0.5000000   2.0207259   2.7917136  )
        24           O   tau(  24) = (  -1.0000000   2.3094011   2.0491088  )

   Crystallographic axes

     site n.     atom                  positions (cryst. coord.)
         1           Zn  tau(   1) = (  0.6666667  0.1111111  0.2503168  )
         2           Zn  tau(   2) = (  0.3333333  0.2222222  0.0003168  )
         3           O   tau(   3) = (  0.6666667  0.1111111  0.4398382  )
         4           O   tau(   4) = (  0.3333333  0.2222222  0.1898382  )
         5           Zn  tau(   5) = (  0.6666667  0.1111111  0.7503168  )
         6           Zn  tau(   6) = (  0.3333333  0.2222222  0.5003168  )
         7           O   tau(   7) = (  0.6666667  0.1111111  0.9398382  )
         8           O   tau(   8) = (  0.3333333  0.2222222  0.6898382  )
         9           Zn  tau(   9) = (  0.6666667  0.4444444  0.2503168  )
        10           Zn  tau(  10) = (  0.3333333  0.5555556  0.0003168  )
        11           O   tau(  11) = (  0.6666667  0.4444444  0.4398382  )
        12           O   tau(  12) = (  0.3333333  0.5555556  0.1898382  )
        13           Zn  tau(  13) = (  0.6666667  0.4444444  0.7503168  )
        14           Zn  tau(  14) = (  0.3333333  0.5555556  0.5003168  )
        15           O   tau(  15) = (  0.6666667  0.4444444  0.9398382  )
        16           O   tau(  16) = (  0.3333333  0.5555556  0.6898382  )
        17           Zn  tau(  17) = (  0.6666667  0.7777778  0.2503168  )
        18           Zn  tau(  18) = (  0.3333333  0.8888889  0.0003168  )
        19           O   tau(  19) = (  0.6666667  0.7777778  0.4398382  )
        20           O   tau(  20) = (  0.3333333  0.8888889  0.1898382  )
        21           Zn  tau(  21) = (  0.6666667  0.7777778  0.7503168  )
        22           Zn  tau(  22) = (  0.3333333  0.8888889  0.5003168  )
        23           O   tau(  23) = (  0.6666667  0.7777778  0.9398382  )
        24           O   tau(  24) = (  0.3333333  0.8888889  0.6898382  )

     number of k points=    68
                       cart. coord. in units 2pi/alat
        k(    1) = (   0.0000000   0.0000000   0.0000000), wk =   0.0092593
        k(    2) = (   0.0000000   0.0000000   0.0561088), wk =   0.0185185
        k(    3) = (   0.0000000   0.0000000   0.1122176), wk =   0.0185185
        k(    4) = (   0.0000000   0.0000000  -0.1683264), wk =   0.0092593
        k(    5) = (   0.0000000   0.0641500   0.0000000), wk =   0.0185185
        k(    6) = (   0.0000000   0.0641500   0.0561088), wk =   0.0185185
        k(    7) = (   0.0000000   0.0641500   0.1122176), wk =   0.0185185
        k(    8) = (   0.0000000   0.0641500  -0.1683264), wk =   0.0185185
        k(    9) = (   0.0000000   0.1283001   0.0000000), wk =   0.0185185
        k(   10) = (   0.0000000   0.1283001   0.0561088), wk =   0.0185185
        k(   11) = (   0.0000000   0.1283001   0.1122176), wk =   0.0185185
        k(   12) = (   0.0000000   0.1283001  -0.1683264), wk =   0.0185185
        k(   13) = (   0.0000000  -0.1924501   0.0000000), wk =   0.0092593
        k(   14) = (   0.0000000  -0.1924501   0.0561088), wk =   0.0185185
        k(   15) = (   0.0000000  -0.1924501   0.1122176), wk =   0.0185185
        k(   16) = (   0.0000000  -0.1924501  -0.1683264), wk =   0.0092593
        k(   17) = (   0.1666667   0.0962250   0.0000000), wk =   0.0370370
        k(   18) = (   0.1666667   0.0962250   0.0561088), wk =   0.0370370
        k(   19) = (   0.1666667   0.0962250   0.1122176), wk =   0.0370370
        k(   20) = (   0.1666667   0.0962250  -0.1683264), wk =   0.0370370
        k(   21) = (   0.1666667   0.1603751   0.0000000), wk =   0.0370370
        k(   22) = (   0.1666667   0.1603751   0.0561088), wk =   0.0370370
        k(   23) = (   0.1666667   0.1603751   0.1122176), wk =   0.0370370
        k(   24) = (   0.1666667   0.1603751  -0.1683264), wk =   0.0370370
        k(   25) = (   0.1666667  -0.0320750   0.0000000), wk =   0.0370370
        k(   26) = (   0.1666667  -0.0320750   0.0561088), wk =   0.0370370
        k(   27) = (   0.1666667  -0.0320750   0.1122176), wk =   0.0370370
        k(   28) = (   0.1666667  -0.0320750  -0.1683264), wk =   0.0370370
        k(   29) = (   0.3333333   0.1924501   0.0000000), wk =   0.0185185
        k(   30) = (   0.3333333   0.1924501   0.0561088), wk =   0.0370370
        k(   31) = (   0.3333333   0.1924501   0.1122176), wk =   0.0370370
        k(   32) = (   0.3333333   0.1924501  -0.1683264), wk =   0.0185185
        k(   33) = (   0.3333333   0.2566001   0.0000000), wk =   0.0370370
        k(   34) = (   0.3333333   0.2566001   0.0561088), wk =   0.0370370
        k(   35) = (   0.3333333   0.2566001   0.1122176), wk =   0.0370370
        k(   36) = (   0.3333333   0.2566001  -0.1683264), wk =   0.0370370
        k(   37) = (   0.3333333   0.3207501   0.0000000), wk =   0.0370370
        k(   38) = (   0.3333333   0.3207501   0.0561088), wk =   0.0370370
        k(   39) = (   0.3333333   0.3207501   0.1122176), wk =   0.0370370
        k(   40) = (   0.3333333   0.3207501  -0.1683264), wk =   0.0370370
        k(   41) = (   0.3333333   0.0000000   0.0000000), wk =   0.0185185
        k(   42) = (   0.3333333   0.0000000   0.0561088), wk =   0.0370370
        k(   43) = (   0.3333333   0.0000000   0.1122176), wk =   0.0370370
        k(   44) = (   0.3333333   0.0000000  -0.1683264), wk =   0.0185185
        k(   45) = (  -0.5000000  -0.2886751   0.0000000), wk =   0.0185185
        k(   46) = (  -0.5000000  -0.2886751   0.0561088), wk =   0.0370370
        k(   47) = (  -0.5000000  -0.2886751   0.1122176), wk =   0.0370370
        k(   48) = (  -0.5000000  -0.2886751  -0.1683264), wk =   0.0185185
        k(   49) = (  -0.5000000  -0.2245251   0.0000000), wk =   0.0370370
        k(   50) = (  -0.5000000  -0.2245251   0.0561088), wk =   0.0370370
        k(   51) = (  -0.5000000  -0.2245251   0.1122176), wk =   0.0370370
        k(   52) = (  -0.5000000  -0.2245251  -0.1683264), wk =   0.0370370
        k(   53) = (   0.0000000   0.0641500  -0.0561088), wk =   0.0185185
        k(   54) = (   0.0000000   0.0641500  -0.1122176), wk =   0.0185185
        k(   55) = (   0.0000000   0.1283001  -0.0561088), wk =   0.0185185
        k(   56) = (   0.0000000   0.1283001  -0.1122176), wk =   0.0185185
        k(   57) = (  -0.1666667   0.0962250  -0.0561088), wk =   0.0370370
        k(   58) = (  -0.1666667   0.0962250  -0.1122176), wk =   0.0370370
        k(   59) = (  -0.1666667   0.1603751  -0.0561088), wk =   0.0370370
        k(   60) = (  -0.1666667   0.1603751  -0.1122176), wk =   0.0370370
        k(   61) = (  -0.1666667  -0.0320750  -0.0561088), wk =   0.0370370
        k(   62) = (  -0.1666667  -0.0320750  -0.1122176), wk =   0.0370370
        k(   63) = (  -0.3333333   0.2566001  -0.0561088), wk =   0.0370370
        k(   64) = (  -0.3333333   0.2566001  -0.1122176), wk =   0.0370370
        k(   65) = (  -0.3333333   0.3207501  -0.0561088), wk =   0.0370370
        k(   66) = (  -0.3333333   0.3207501  -0.1122176), wk =   0.0370370
        k(   67) = (   0.5000000  -0.2245251  -0.0561088), wk =   0.0370370
        k(   68) = (   0.5000000  -0.2245251  -0.1122176), wk =   0.0370370

                       cryst. coord.
        k(    1) = (   0.0000000   0.0000000   0.0000000), wk =   0.0092593
        k(    2) = (   0.0000000   0.0000000   0.1666667), wk =   0.0185185
        k(    3) = (   0.0000000   0.0000000   0.3333333), wk =   0.0185185
        k(    4) = (   0.0000000   0.0000000  -0.5000000), wk =   0.0092593
        k(    5) = (   0.0000000   0.1666667   0.0000000), wk =   0.0185185
        k(    6) = (   0.0000000   0.1666667   0.1666667), wk =   0.0185185
        k(    7) = (   0.0000000   0.1666667   0.3333333), wk =   0.0185185
        k(    8) = (   0.0000000   0.1666667  -0.5000000), wk =   0.0185185
        k(    9) = (   0.0000000   0.3333333   0.0000000), wk =   0.0185185
        k(   10) = (   0.0000000   0.3333333   0.1666667), wk =   0.0185185
        k(   11) = (   0.0000000   0.3333333   0.3333333), wk =   0.0185185
        k(   12) = (   0.0000000   0.3333333  -0.5000000), wk =   0.0185185
        k(   13) = (   0.0000000  -0.5000000   0.0000000), wk =   0.0092593
        k(   14) = (   0.0000000  -0.5000000   0.1666667), wk =   0.0185185
        k(   15) = (   0.0000000  -0.5000000   0.3333333), wk =   0.0185185
        k(   16) = (   0.0000000  -0.5000000  -0.5000000), wk =   0.0092593
        k(   17) = (   0.1666667   0.0000000   0.0000000), wk =   0.0370370
        k(   18) = (   0.1666667   0.0000000   0.1666667), wk =   0.0370370
        k(   19) = (   0.1666667   0.0000000   0.3333333), wk =   0.0370370
        k(   20) = (   0.1666667   0.0000000  -0.5000000), wk =   0.0370370
        k(   21) = (   0.1666667   0.1666667   0.0000000), wk =   0.0370370
        k(   22) = (   0.1666667   0.1666667   0.1666667), wk =   0.0370370
        k(   23) = (   0.1666667   0.1666667   0.3333333), wk =   0.0370370
        k(   24) = (   0.1666667   0.1666667  -0.5000000), wk =   0.0370370
        k(   25) = (   0.1666667  -0.3333333   0.0000000), wk =   0.0370370
        k(   26) = (   0.1666667  -0.3333333   0.1666667), wk =   0.0370370
        k(   27) = (   0.1666667  -0.3333333   0.3333333), wk =   0.0370370
        k(   28) = (   0.1666667  -0.3333333  -0.5000000), wk =   0.0370370
        k(   29) = (   0.3333333   0.0000000   0.0000000), wk =   0.0185185
        k(   30) = (   0.3333333   0.0000000   0.1666667), wk =   0.0370370
        k(   31) = (   0.3333333   0.0000000   0.3333333), wk =   0.0370370
        k(   32) = (   0.3333333   0.0000000  -0.5000000), wk =   0.0185185
        k(   33) = (   0.3333333   0.1666667   0.0000000), wk =   0.0370370
        k(   34) = (   0.3333333   0.1666667   0.1666667), wk =   0.0370370
        k(   35) = (   0.3333333   0.1666667   0.3333333), wk =   0.0370370
        k(   36) = (   0.3333333   0.1666667  -0.5000000), wk =   0.0370370
        k(   37) = (   0.3333333   0.3333333   0.0000000), wk =   0.0370370
        k(   38) = (   0.3333333   0.3333333   0.1666667), wk =   0.0370370
        k(   39) = (   0.3333333   0.3333333   0.3333333), wk =   0.0370370
        k(   40) = (   0.3333333   0.3333333  -0.5000000), wk =   0.0370370
        k(   41) = (   0.3333333  -0.5000000   0.0000000), wk =   0.0185185
        k(   42) = (   0.3333333  -0.5000000   0.1666667), wk =   0.0370370
        k(   43) = (   0.3333333  -0.5000000   0.3333333), wk =   0.0370370
        k(   44) = (   0.3333333  -0.5000000  -0.5000000), wk =   0.0185185
        k(   45) = (  -0.5000000  -0.0000000   0.0000000), wk =   0.0185185
        k(   46) = (  -0.5000000  -0.0000000   0.1666667), wk =   0.0370370
        k(   47) = (  -0.5000000  -0.0000000   0.3333333), wk =   0.0370370
        k(   48) = (  -0.5000000  -0.0000000  -0.5000000), wk =   0.0185185
        k(   49) = (  -0.5000000   0.1666667   0.0000000), wk =   0.0370370
        k(   50) = (  -0.5000000   0.1666667   0.1666667), wk =   0.0370370
        k(   51) = (  -0.5000000   0.1666667   0.3333333), wk =   0.0370370
        k(   52) = (  -0.5000000   0.1666667  -0.5000000), wk =   0.0370370
        k(   53) = (   0.0000000   0.1666667  -0.1666667), wk =   0.0185185
        k(   54) = (   0.0000000   0.1666667  -0.3333333), wk =   0.0185185
        k(   55) = (   0.0000000   0.3333333  -0.1666667), wk =   0.0185185
        k(   56) = (   0.0000000   0.3333333  -0.3333333), wk =   0.0185185
        k(   57) = (  -0.1666667   0.5000000  -0.1666667), wk =   0.0370370
        k(   58) = (  -0.1666667   0.5000000  -0.3333333), wk =   0.0370370
        k(   59) = (  -0.1666667   0.6666667  -0.1666667), wk =   0.0370370
        k(   60) = (  -0.1666667   0.6666667  -0.3333333), wk =   0.0370370
        k(   61) = (  -0.1666667   0.1666667  -0.1666667), wk =   0.0370370
        k(   62) = (  -0.1666667   0.1666667  -0.3333333), wk =   0.0370370
        k(   63) = (  -0.3333333   1.1666667  -0.1666667), wk =   0.0370370
        k(   64) = (  -0.3333333   1.1666667  -0.3333333), wk =   0.0370370
        k(   65) = (  -0.3333333   1.3333333  -0.1666667), wk =   0.0370370
        k(   66) = (  -0.3333333   1.3333333  -0.3333333), wk =   0.0370370
        k(   67) = (   0.5000000  -1.3333333  -0.1666667), wk =   0.0370370
        k(   68) = (   0.5000000  -1.3333333  -0.3333333), wk =   0.0370370

     Dense  grid:   292935 G-vectors     FFT dimensions: (  45, 125, 125)

     Smooth grid:   103509 G-vectors     FFT dimensions: (  30,  90,  90)

     Dynamical RAM for                 wfc:       5.33 MB

     Dynamical RAM for     wfc (w. buffer):      53.33 MB

     Dynamical RAM for           str. fact:       2.23 MB

     Dynamical RAM for           local pot:       0.00 MB

     Dynamical RAM for          nlocal pot:      15.41 MB

     Dynamical RAM for                qrad:       3.21 MB

     Dynamical RAM for          rho,v,vnew:       7.47 MB

     Dynamical RAM for               rhoin:       2.49 MB

     Dynamical RAM for            rho*nmix:      17.88 MB

     Dynamical RAM for           G-vectors:       4.39 MB

     Dynamical RAM for          h,s,v(r/c):       0.53 MB

     Dynamical RAM for          <psi|beta>:       0.51 MB

     Dynamical RAM for                 psi:      10.67 MB

     Dynamical RAM for                hpsi:      10.67 MB

     Dynamical RAM for                spsi:      10.67 MB

     Dynamical RAM for      wfcinit/wfcrot:      15.96 MB

     Dynamical RAM for           addusdens:      28.63 MB

     Dynamical RAM for          addusforce:      31.34 MB

     Estimated static dynamical RAM per process >      98.75 MB

     Estimated max dynamical RAM per process >     149.67 MB

     Estimated total dynamical RAM >       4.19 GB

     Check: negative core charge=   -0.000002

     Initial potential from superposition of free atoms

     starting charge     215.9553, renormalised to     216.0000
     Starting wfcs are  156 randomized atomic wfcs

     total cpu time spent up to now is       23.8 secs

     per-process dynamical memory:   126.9 Mb

     Self-consistent Calculation

     iteration #  1     ecut=    50.00 Ry     beta= 0.30
     Davidson diagonalization with overlap

---- Real-time Memory Report at c_bands before calling an iterative solver
           153 MiB given to the printing process from OS
           123 MiB allocation reported by mallinfo(arena+hblkhd)
         98851 MiB available memory on the node where the printing process lives
------------------
     ethr =  1.00E-02,  avg # of iterations =  1.9

     total cpu time spent up to now is       57.9 secs

     total energy              =   -2168.67585897 Ry
     estimated scf accuracy    <       4.42352443 Ry

     iteration #  2     ecut=    50.00 Ry     beta= 0.30
     Davidson diagonalization with overlap

---- Real-time Memory Report at c_bands before calling an iterative solver
           180 MiB given to the printing process from OS
           150 MiB allocation reported by mallinfo(arena+hblkhd)
         98046 MiB available memory on the node where the printing process lives
------------------
     ethr =  2.05E-03,  avg # of iterations =  2.1

     total cpu time spent up to now is       99.5 secs

     total energy              =   -2169.37522660 Ry
     estimated scf accuracy    <       0.49846342 Ry

     iteration #  3     ecut=    50.00 Ry     beta= 0.30
     Davidson diagonalization with overlap

---- Real-time Memory Report at c_bands before calling an iterative solver
           185 MiB given to the printing process from OS
           155 MiB allocation reported by mallinfo(arena+hblkhd)
         98044 MiB available memory on the node where the printing process lives
------------------
     ethr =  2.31E-04,  avg # of iterations =  7.6

     total cpu time spent up to now is      175.8 secs

     total energy              =   -2169.51053674 Ry
     estimated scf accuracy    <       0.42168082 Ry

     iteration #  4     ecut=    50.00 Ry     beta= 0.30
     Davidson diagonalization with overlap

---- Real-time Memory Report at c_bands before calling an iterative solver
           186 MiB given to the printing process from OS
           155 MiB allocation reported by mallinfo(arena+hblkhd)
         98048 MiB available memory on the node where the printing process lives
------------------
     ethr =  1.95E-04,  avg # of iterations =  9.7

     total cpu time spent up to now is      269.4 secs

     total energy              =   -2169.77295354 Ry
     estimated scf accuracy    <       1.42384150 Ry

     iteration #  5     ecut=    50.00 Ry     beta= 0.30
     Davidson diagonalization with overlap

---- Real-time Memory Report at c_bands before calling an iterative solver
           186 MiB given to the printing process from OS
           156 MiB allocation reported by mallinfo(arena+hblkhd)
         98024 MiB available memory on the node where the printing process lives
------------------
     ethr =  1.95E-04,  avg # of iterations =  2.0

     total cpu time spent up to now is      303.5 secs

     total energy              =   -2169.12775963 Ry
     estimated scf accuracy    <       0.80103707 Ry

     iteration #  6     ecut=    50.00 Ry     beta= 0.30
     Davidson diagonalization with overlap

---- Real-time Memory Report at c_bands before calling an iterative solver
           187 MiB given to the printing process from OS
           157 MiB allocation reported by mallinfo(arena+hblkhd)
         98026 MiB available memory on the node where the printing process lives
------------------
     c_bands:  1 eigenvalues not converged
     ethr =  1.95E-04,  avg # of iterations = 12.5

     total cpu time spent up to now is      409.7 secs

     total energy              =   -2169.30167887 Ry
     estimated scf accuracy    <       5.18933341 Ry

     iteration #  7     ecut=    50.00 Ry     beta= 0.30
     Davidson diagonalization with overlap

---- Real-time Memory Report at c_bands before calling an iterative solver
           188 MiB given to the printing process from OS
           158 MiB allocation reported by mallinfo(arena+hblkhd)
         97994 MiB available memory on the node where the printing process lives
------------------
     ethr =  1.95E-04,  avg # of iterations =  7.9

     total cpu time spent up to now is      487.9 secs

     total energy              =   -2169.72803906 Ry
     estimated scf accuracy    <       0.42894714 Ry

     iteration #  8     ecut=    50.00 Ry     beta= 0.30
     Davidson diagonalization with overlap

---- Real-time Memory Report at c_bands before calling an iterative solver
           189 MiB given to the printing process from OS
           159 MiB allocation reported by mallinfo(arena+hblkhd)
         98034 MiB available memory on the node where the printing process lives
------------------
     ethr =  1.95E-04,  avg # of iterations =  1.2

     total cpu time spent up to now is      522.9 secs

     total energy              =   -2169.71260703 Ry
     estimated scf accuracy    <       0.28900827 Ry

     iteration #  9     ecut=    50.00 Ry     beta= 0.30
     Davidson diagonalization with overlap

---- Real-time Memory Report at c_bands before calling an iterative solver
           189 MiB given to the printing process from OS
           159 MiB allocation reported by mallinfo(arena+hblkhd)
         98036 MiB available memory on the node where the printing process lives
------------------
     ethr =  1.34E-04,  avg # of iterations =  1.9

     total cpu time spent up to now is      559.7 secs

     total energy              =   -2169.63749174 Ry
     estimated scf accuracy    <       0.19919823 Ry

     iteration # 10     ecut=    50.00 Ry     beta= 0.30
     Davidson diagonalization with overlap

---- Real-time Memory Report at c_bands before calling an iterative solver
           190 MiB given to the printing process from OS
           160 MiB allocation reported by mallinfo(arena+hblkhd)
         98029 MiB available memory on the node where the printing process lives
------------------
     ethr =  9.22E-05,  avg # of iterations =  6.4

     total cpu time spent up to now is      617.6 secs

     total energy              =   -2169.70912977 Ry
     estimated scf accuracy    <       0.00466836 Ry

     iteration # 11     ecut=    50.00 Ry     beta= 0.30
     Davidson diagonalization with overlap

---- Real-time Memory Report at c_bands before calling an iterative solver
           191 MiB given to the printing process from OS
           161 MiB allocation reported by mallinfo(arena+hblkhd)
         98027 MiB available memory on the node where the printing process lives
------------------
     ethr =  2.16E-06,  avg # of iterations =  9.5

     total cpu time spent up to now is      700.9 secs

     total energy              =   -2169.71607175 Ry
     estimated scf accuracy    <       0.00719001 Ry

     iteration # 12     ecut=    50.00 Ry     beta= 0.30
     Davidson diagonalization with overlap

---- Real-time Memory Report at c_bands before calling an iterative solver
           191 MiB given to the printing process from OS
           161 MiB allocation reported by mallinfo(arena+hblkhd)
         98028 MiB available memory on the node where the printing process lives
------------------
     ethr =  2.16E-06,  avg # of iterations =  1.0

     total cpu time spent up to now is      734.3 secs

     total energy              =   -2169.71369278 Ry
     estimated scf accuracy    <       0.00799157 Ry

     iteration # 13     ecut=    50.00 Ry     beta= 0.30
     Davidson diagonalization with overlap

---- Real-time Memory Report at c_bands before calling an iterative solver
           191 MiB given to the printing process from OS
           161 MiB allocation reported by mallinfo(arena+hblkhd)
         98026 MiB available memory on the node where the printing process lives
------------------
     ethr =  2.16E-06,  avg # of iterations =  2.0

     total cpu time spent up to now is      770.9 secs

     total energy              =   -2169.71294652 Ry
     estimated scf accuracy    <       0.00348867 Ry

     iteration # 14     ecut=    50.00 Ry     beta= 0.30
     Davidson diagonalization with overlap

---- Real-time Memory Report at c_bands before calling an iterative solver
           191 MiB given to the printing process from OS
           161 MiB allocation reported by mallinfo(arena+hblkhd)
         98026 MiB available memory on the node where the printing process lives
------------------
     ethr =  1.62E-06,  avg # of iterations =  4.5

     total cpu time spent up to now is      816.2 secs

     total energy              =   -2169.71386234 Ry
     estimated scf accuracy    <       0.00026820 Ry

     iteration # 15     ecut=    50.00 Ry     beta= 0.30
     Davidson diagonalization with overlap

---- Real-time Memory Report at c_bands before calling an iterative solver
           191 MiB given to the printing process from OS
           161 MiB allocation reported by mallinfo(arena+hblkhd)
         98010 MiB available memory on the node where the printing process lives
------------------
     ethr =  1.24E-07,  avg # of iterations =  6.5

     total cpu time spent up to now is      877.7 secs

     total energy              =   -2169.71390572 Ry
     estimated scf accuracy    <       0.00016896 Ry

     iteration # 16     ecut=    50.00 Ry     beta= 0.30
     Davidson diagonalization with overlap

---- Real-time Memory Report at c_bands before calling an iterative solver
           191 MiB given to the printing process from OS
           161 MiB allocation reported by mallinfo(arena+hblkhd)
         98009 MiB available memory on the node where the printing process lives
------------------
     ethr =  7.82E-08,  avg # of iterations =  7.3

     total cpu time spent up to now is      955.4 secs

     total energy              =   -2169.71416536 Ry
     estimated scf accuracy    <       0.00027195 Ry

     iteration # 17     ecut=    50.00 Ry     beta= 0.30
     Davidson diagonalization with overlap

---- Real-time Memory Report at c_bands before calling an iterative solver
           191 MiB given to the printing process from OS
           161 MiB allocation reported by mallinfo(arena+hblkhd)
         98006 MiB available memory on the node where the printing process lives
------------------
     ethr =  7.82E-08,  avg # of iterations =  5.3

     total cpu time spent up to now is      999.8 secs

     total energy              =   -2169.71417208 Ry
     estimated scf accuracy    <       0.00054073 Ry

     iteration # 18     ecut=    50.00 Ry     beta= 0.30
     Davidson diagonalization with overlap

---- Real-time Memory Report at c_bands before calling an iterative solver
           191 MiB given to the printing process from OS
           161 MiB allocation reported by mallinfo(arena+hblkhd)
         98004 MiB available memory on the node where the printing process lives
------------------
     ethr =  7.82E-08,  avg # of iterations =  2.0

     total cpu time spent up to now is     1037.6 secs

     total energy              =   -2169.71388453 Ry
     estimated scf accuracy    <       0.00063092 Ry

     iteration # 19     ecut=    50.00 Ry     beta= 0.30
     Davidson diagonalization with overlap

---- Real-time Memory Report at c_bands before calling an iterative solver
           191 MiB given to the printing process from OS
           161 MiB allocation reported by mallinfo(arena+hblkhd)
         98000 MiB available memory on the node where the printing process lives
------------------
     ethr =  7.82E-08,  avg # of iterations =  5.5

     total cpu time spent up to now is     1098.4 secs

     total energy              =   -2169.71397817 Ry
     estimated scf accuracy    <       0.00000612 Ry

     iteration # 20     ecut=    50.00 Ry     beta= 0.30
     Davidson diagonalization with overlap

---- Real-time Memory Report at c_bands before calling an iterative solver
           191 MiB given to the printing process from OS
           161 MiB allocation reported by mallinfo(arena+hblkhd)
         97998 MiB available memory on the node where the printing process lives
------------------
     ethr =  2.83E-09,  avg # of iterations =  8.9

     total cpu time spent up to now is     1166.7 secs

     total energy              =   -2169.71398265 Ry
     estimated scf accuracy    <       0.00000080 Ry

     iteration # 21     ecut=    50.00 Ry     beta= 0.30
     Davidson diagonalization with overlap

---- Real-time Memory Report at c_bands before calling an iterative solver
           191 MiB given to the printing process from OS
           161 MiB allocation reported by mallinfo(arena+hblkhd)
         97998 MiB available memory on the node where the printing process lives
------------------
     ethr =  3.71E-10,  avg # of iterations =  5.4

     total cpu time spent up to now is     1227.3 secs

     total energy              =   -2169.71398115 Ry
     estimated scf accuracy    <       0.00000254 Ry

     iteration # 22     ecut=    50.00 Ry     beta= 0.30
     Davidson diagonalization with overlap

---- Real-time Memory Report at c_bands before calling an iterative solver
           191 MiB given to the printing process from OS
           161 MiB allocation reported by mallinfo(arena+hblkhd)
         97998 MiB available memory on the node where the printing process lives
------------------
     c_bands:  1 eigenvalues not converged
     c_bands:  1 eigenvalues not converged
     c_bands:  1 eigenvalues not converged
     ethr =  3.71E-10,  avg # of iterations = 13.5

     total cpu time spent up to now is     1352.3 secs

     total energy              =   -2169.71398043 Ry
     estimated scf accuracy    <       0.00001911 Ry

     iteration # 23     ecut=    50.00 Ry     beta= 0.30
     Davidson diagonalization with overlap

---- Real-time Memory Report at c_bands before calling an iterative solver
           191 MiB given to the printing process from OS
           161 MiB allocation reported by mallinfo(arena+hblkhd)
         97998 MiB available memory on the node where the printing process lives
------------------
     ethr =  3.71E-10,  avg # of iterations = 11.4

     total cpu time spent up to now is     1453.7 secs

     total energy              =   -2169.71398207 Ry
     estimated scf accuracy    <       0.00000089 Ry

     iteration # 24     ecut=    50.00 Ry     beta= 0.30
     Davidson diagonalization with overlap

---- Real-time Memory Report at c_bands before calling an iterative solver
           191 MiB given to the printing process from OS
           161 MiB allocation reported by mallinfo(arena+hblkhd)
         97998 MiB available memory on the node where the printing process lives
------------------
     ethr =  3.71E-10,  avg # of iterations =  7.2

     total cpu time spent up to now is     1523.2 secs

     total energy              =   -2169.71398228 Ry
     estimated scf accuracy    <       0.00000061 Ry

     iteration # 25     ecut=    50.00 Ry     beta= 0.30
     Davidson diagonalization with overlap

---- Real-time Memory Report at c_bands before calling an iterative solver
           191 MiB given to the printing process from OS
           161 MiB allocation reported by mallinfo(arena+hblkhd)
         97998 MiB available memory on the node where the printing process lives
------------------
     ethr =  2.80E-10,  avg # of iterations =  5.1

     total cpu time spent up to now is     1580.0 secs

     total energy              =   -2169.71398246 Ry
     estimated scf accuracy    <       0.00000020 Ry

     iteration # 26     ecut=    50.00 Ry     beta= 0.30
     Davidson diagonalization with overlap

---- Real-time Memory Report at c_bands before calling an iterative solver
           191 MiB given to the printing process from OS
           161 MiB allocation reported by mallinfo(arena+hblkhd)
         97998 MiB available memory on the node where the printing process lives
------------------
     ethr =  9.31E-11,  avg # of iterations =  2.2

     total cpu time spent up to now is     1616.9 secs

     total energy              =   -2169.71398245 Ry
     estimated scf accuracy    <       0.00000004 Ry

     iteration # 27     ecut=    50.00 Ry     beta= 0.30
     Davidson diagonalization with overlap

---- Real-time Memory Report at c_bands before calling an iterative solver
           191 MiB given to the printing process from OS
           161 MiB allocation reported by mallinfo(arena+hblkhd)
         97998 MiB available memory on the node where the printing process lives
------------------
     ethr =  2.08E-11,  avg # of iterations =  8.2

     total cpu time spent up to now is     1692.9 secs

     total energy              =   -2169.71398249 Ry
     estimated scf accuracy    <       0.00000004 Ry

     iteration # 28     ecut=    50.00 Ry     beta= 0.30
     Davidson diagonalization with overlap

---- Real-time Memory Report at c_bands before calling an iterative solver
           191 MiB given to the printing process from OS
           161 MiB allocation reported by mallinfo(arena+hblkhd)
         97998 MiB available memory on the node where the printing process lives
------------------
     ethr =  1.78E-11,  avg # of iterations =  2.0

     total cpu time spent up to now is     1728.7 secs

     End of self-consistent calculation

          k = 0.0000 0.0000 0.0000 ( 12923 PWs)   bands (ev):

   -11.6269 -11.3001 -11.3001 -11.2832 -11.2832 -11.0855 -11.0855 -11.0855
   -11.0855 -10.9653 -10.9034 -10.9034   0.1421   0.1421   0.1421   0.1421
     0.2262   0.2262   0.2698   0.2698   0.4142   0.4323   0.4325   0.4902
     0.4902   0.4904   0.4904   0.5645   0.5645   0.5648   0.5648   0.6284
     0.6286   0.6773   0.6773   0.6773   0.6773   0.7203   0.7203   0.7203
     0.7203   0.7296   0.7296   0.9484   0.9484   0.9725   1.0456   1.0456
     1.2316   1.2317   1.2597   1.2597   1.2996   1.2996   1.3667   1.3667
     1.3667   1.3667   1.3769   1.3769   1.3769   1.3769   1.4152   1.4152
     1.4152   1.4152   1.4350   1.4350   1.4671   1.4671   1.6021   1.6029
     1.6029   2.0320   2.0320   2.7035   2.7035   2.7035   2.7035   2.7971
     2.7971   3.5102   3.5102   3.5991   3.5991   3.8145   3.8145   4.5139
     4.5139   4.5139   4.5139   4.6363   4.6363   4.6363   4.6363   4.7076
     4.7079   4.9481   4.9481   5.1453   5.1453   5.1475   5.1475   5.1479
     5.1479   5.5611   5.5615   5.6232

     occupation numbers 
     1.0000   1.0000   1.0000   1.0000   1.0000   1.0000   1.0000   1.0000
     1.0000   1.0000   1.0000   1.0000   1.0000   1.0000   1.0000   1.0000
     1.0000   1.0000   1.0000   1.0000   1.0000   1.0000   1.0000   1.0000
     1.0000   1.0000   1.0000   1.0000   1.0000   1.0000   1.0000   1.0000
     1.0000   1.0000   1.0000   1.0000   1.0000   1.0000   1.0000   1.0000
     1.0000   1.0000   1.0000   1.0000   1.0000   1.0000   1.0000   1.0000
     1.0000   1.0000   1.0000   1.0000   1.0000   1.0000   1.0000   1.0000
     1.0000   1.0000   1.0000   1.0000   1.0000   1.0000   1.0000   1.0000
     1.0000   1.0000   1.0000   1.0000   1.0000   1.0000   1.0000   1.0000
     1.0000   1.0000   1.0000   1.0000   1.0000   1.0000   1.0000   1.0000
     1.0000   1.0000   1.0000   1.0000   1.0000   1.0000   1.0000   1.0000
     1.0000   1.0000   1.0000   1.0000   1.0000   1.0000   1.0000   1.0000
     1.0000   1.0000   1.0000   1.0000   1.0000   1.0000   1.0000   1.0000
     1.0000   1.0000   1.0000   1.0000

          k = 0.0000 0.0000 0.0561 ( 12968 PWs)   bands (ev):

   -11.6159 -11.3855 -11.2763 -11.2763 -11.2141 -11.1354 -11.1354 -11.0367
   -11.0367 -10.9768 -10.9093 -10.9093   0.1318   0.1318   0.1914   0.1914
     0.2344   0.2580   0.2594   0.2594   0.4017   0.4330   0.4332   0.4681
     0.4683   0.5176   0.5177   0.5461   0.5461   0.5688   0.5688   0.6221
     0.6222   0.6612   0.6612   0.6741   0.6741   0.7064   0.7064   0.7199
     0.7199   0.7712   0.7712   0.8526   0.9390   0.9390   1.0052   1.0052
     1.2373   1.2373   1.2502   1.2502   1.3020   1.3020   1.3377   1.3377
     1.3564   1.3564   1.3728   1.3728   1.3916   1.3916   1.3979   1.3979
     1.4336   1.4337   1.4543   1.4543   1.4631   1.4631   1.5823   1.5823
     1.7622   2.1026   2.1026   2.5891   2.5891   2.8168   2.8168   2.8504
     2.8504   3.2257   3.4986   3.4986   3.8403   3.8403   3.9622   4.3326
     4.3326   4.3419   4.3419   4.6817   4.6817   4.7230   4.7233   4.8698
     4.8698   4.9740   4.9740   5.0361   5.0365   5.1243   5.1244   5.2572
     5.2576   5.4019   5.5474   5.5479

     occupation numbers 
     1.0000   1.0000   1.0000   1.0000   1.0000   1.0000   1.0000   1.0000
     1.0000   1.0000   1.0000   1.0000   1.0000   1.0000   1.0000   1.0000
     1.0000   1.0000   1.0000   1.0000   1.0000   1.0000   1.0000   1.0000
     1.0000   1.0000   1.0000   1.0000   1.0000   1.0000   1.0000   1.0000
     1.0000   1.0000   1.0000   1.0000   1.0000   1.0000   1.0000   1.0000
     1.0000   1.0000   1.0000   1.0000   1.0000   1.0000   1.0000   1.0000
     1.0000   1.0000   1.0000   1.0000   1.0000   1.0000   1.0000   1.0000
     1.0000   1.0000   1.0000   1.0000   1.0000   1.0000   1.0000   1.0000
     1.0000   1.0000   1.0000   1.0000   1.0000   1.0000   1.0000   1.0000
     1.0000   1.0000   1.0000   1.0000   1.0000   1.0000   1.0000   1.0000
     1.0000   1.0000   1.0000   1.0000   1.0000   1.0000   1.0000   1.0000
     1.0000   1.0000   1.0000   1.0000   1.0000   1.0000   1.0000   1.0000
     1.0000   1.0000   1.0000   1.0000   1.0000   1.0000   1.0000   1.0000
     1.0000   1.0000   1.0000   1.0000

          k = 0.0000 0.0000 0.1122 ( 12984 PWs)   bands (ev):

   -11.5836 -11.4646 -11.2560 -11.2560 -11.1827 -11.1827 -11.1335 -11.0105
   -10.9922 -10.9922 -10.9268 -10.9267   0.1525   0.1525   0.2307   0.2307
     0.2701   0.2786   0.2786   0.3374   0.3671   0.4358   0.4360   0.4520
     0.4522   0.4866   0.4866   0.5479   0.5481   0.5819   0.5819   0.6042
     0.6043   0.6349   0.6349   0.6487   0.6590   0.6590   0.6960   0.6960
     0.7500   0.7500   0.8234   0.8234   0.9059   0.9059   0.9125   0.9125
     1.2535   1.2536   1.2573   1.2573   1.3070   1.3070   1.3095   1.3095
     1.3291   1.3291   1.3376   1.3376   1.4104   1.4104   1.4183   1.4183
     1.4305   1.4305   1.4527   1.4527   1.4894   1.4894   1.5508   1.5508
     2.0859   2.2334   2.2334   2.4749   2.4749   2.8426   2.9217   2.9217
     2.9620   2.9620   3.5167   3.5167   3.9149   3.9149   3.9963   3.9963
     4.1769   4.1770   4.3191   4.7679   4.7683   4.8349   4.8349   4.9307
     4.9310   5.0103   5.0103   5.0273   5.0273   5.0414   5.0629   5.0629
     5.3578   5.3582   5.5073   5.5078

     occupation numbers 
     1.0000   1.0000   1.0000   1.0000   1.0000   1.0000   1.0000   1.0000
     1.0000   1.0000   1.0000   1.0000   1.0000   1.0000   1.0000   1.0000
     1.0000   1.0000   1.0000   1.0000   1.0000   1.0000   1.0000   1.0000
     1.0000   1.0000   1.0000   1.0000   1.0000   1.0000   1.0000   1.0000
     1.0000   1.0000   1.0000   1.0000   1.0000   1.0000   1.0000   1.0000
     1.0000   1.0000   1.0000   1.0000   1.0000   1.0000   1.0000   1.0000
     1.0000   1.0000   1.0000   1.0000   1.0000   1.0000   1.0000   1.0000
     1.0000   1.0000   1.0000   1.0000   1.0000   1.0000   1.0000   1.0000
     1.0000   1.0000   1.0000   1.0000   1.0000   1.0000   1.0000   1.0000
     1.0000   1.0000   1.0000   1.0000   1.0000   1.0000   1.0000   1.0000
     1.0000   1.0000   1.0000   1.0000   1.0000   1.0000   1.0000   1.0000
     1.0000   1.0000   1.0000   1.0000   1.0000   1.0000   1.0000   1.0000
     1.0000   1.0000   1.0000   1.0000   1.0000   1.0000   1.0000   1.0000
     1.0000   1.0000   1.0000   1.0000

          k = 0.0000 0.0000-0.1683 ( 13000 PWs)   bands (ev):

   -11.5321 -11.5321 -11.2240 -11.2240 -11.2240 -11.2240 -11.0640 -11.0640
   -10.9549 -10.9549 -10.9548 -10.9548   0.1908   0.1908   0.1908   0.1908
     0.3189   0.3189   0.3881   0.3881   0.3881   0.3881   0.4415   0.4416
     0.4417   0.4417   0.4690   0.4690   0.5779   0.5779   0.5781   0.5781
     0.6039   0.6039   0.6039   0.6039   0.6716   0.6716   0.6716   0.6716
     0.8136   0.8136   0.8136   0.8136   0.8723   0.8723   0.8723   0.8723
     1.2777   1.2777   1.2777   1.2777   1.2881   1.2881   1.2881   1.2881
     1.3216   1.3216   1.3216   1.3216   1.4232   1.4232   1.4232   1.4232
     1.4372   1.4372   1.4372   1.4372   1.5211   1.5211   1.5211   1.5211
     2.3584   2.3584   2.3584   2.3584   2.4575   2.4575   2.9920   2.9920
     2.9920   2.9920   3.6892   3.6892   3.6892   3.6892   4.0307   4.0307
     4.0307   4.0307   4.6770   4.6770   4.8389   4.8389   4.8393   4.8393
     4.9645   4.9645   4.9645   4.9645   5.0551   5.0551   5.0551   5.0551
     5.4429   5.4429   5.4433   5.4433

     occupation numbers 
     1.0000   1.0000   1.0000   1.0000   1.0000   1.0000   1.0000   1.0000
     1.0000   1.0000   1.0000   1.0000   1.0000   1.0000   1.0000   1.0000
     1.0000   1.0000   1.0000   1.0000   1.0000   1.0000   1.0000   1.0000
     1.0000   1.0000   1.0000   1.0000   1.0000   1.0000   1.0000   1.0000
     1.0000   1.0000   1.0000   1.0000   1.0000   1.0000   1.0000   1.0000
     1.0000   1.0000   1.0000   1.0000   1.0000   1.0000   1.0000   1.0000
     1.0000   1.0000   1.0000   1.0000   1.0000   1.0000   1.0000   1.0000
     1.0000   1.0000   1.0000   1.0000   1.0000   1.0000   1.0000   1.0000
     1.0000   1.0000   1.0000   1.0000   1.0000   1.0000   1.0000   1.0000
     1.0000   1.0000   1.0000   1.0000   1.0000   1.0000   1.0000   1.0000
     1.0000   1.0000   1.0000   1.0000   1.0000   1.0000   1.0000   1.0000
     1.0000   1.0000   1.0000   1.0000   1.0000   1.0000   1.0000   1.0000
     1.0000   1.0000   1.0000   1.0000   1.0000   1.0000   1.0000   1.0000
     1.0000   1.0000   1.0000   1.0000

          k = 0.0000 0.0642 0.0000 ( 12956 PWs)   bands (ev):

   -11.6145 -11.3672 -11.2917 -11.2916 -11.2066 -11.1331 -11.1331 -11.0463
   -11.0463 -10.9617 -10.9095 -10.9058   0.1376   0.1376   0.1525   0.1525
     0.2215   0.2215   0.2766   0.2771   0.3987   0.4393   0.4457   0.4947
     0.4947   0.4991   0.4991   0.5437   0.5442   0.5777   0.5982   0.6198
     0.6198   0.6272   0.6395   0.6692   0.6692   0.6728   0.7370   0.7370
     0.7618   0.7618   0.7965   0.8676   0.9820   0.9861   1.0195   1.0902
     1.2192   1.2275   1.2312   1.2688   1.2801   1.3338   1.3662   1.3662
     1.3673   1.3673   1.3695   1.3695   1.3864   1.3864   1.3967   1.3967
     1.4365   1.4402   1.4402   1.4555   1.4614   1.4710   1.5767   1.6013
     1.6124   1.9226   2.0565   2.4440   2.4440   2.6671   2.9814   2.9814
     3.1053   3.2756   3.5847   3.5847   3.6471   3.8067   4.0127   4.3978
     4.3978   4.6129   4.6428   4.6428   4.6488   4.6488   4.6541   4.6541
     4.6717   4.7563   5.0636   5.0936   5.0936   5.1226   5.1226   5.1411
     5.2425   5.2836   5.5466   5.6117

     occupation numbers 
     1.0000   1.0000   1.0000   1.0000   1.0000   1.0000   1.0000   1.0000
     1.0000   1.0000   1.0000   1.0000   1.0000   1.0000   1.0000   1.0000
     1.0000   1.0000   1.0000   1.0000   1.0000   1.0000   1.0000   1.0000
     1.0000   1.0000   1.0000   1.0000   1.0000   1.0000   1.0000   1.0000
     1.0000   1.0000   1.0000   1.0000   1.0000   1.0000   1.0000   1.0000
     1.0000   1.0000   1.0000   1.0000   1.0000   1.0000   1.0000   1.0000
     1.0000   1.0000   1.0000   1.0000   1.0000   1.0000   1.0000   1.0000
     1.0000   1.0000   1.0000   1.0000   1.0000   1.0000   1.0000   1.0000
     1.0000   1.0000   1.0000   1.0000   1.0000   1.0000   1.0000   1.0000
     1.0000   1.0000   1.0000   1.0000   1.0000   1.0000   1.0000   1.0000
     1.0000   1.0000   1.0000   1.0000   1.0000   1.0000   1.0000   1.0000
     1.0000   1.0000   1.0000   1.0000   1.0000   1.0000   1.0000   1.0000
     1.0000   1.0000   1.0000   1.0000   1.0000   1.0000   1.0000   1.0000
     1.0000   1.0000   1.0000   1.0000

          k = 0.0000 0.0642 0.0561 ( 12956 PWs)   bands (ev):

   -11.6037 -11.3760 -11.3591 -11.2068 -11.2009 -11.1929 -11.0861 -11.0741
   -11.0078 -10.9731 -10.9169 -10.9102   0.1290   0.1433   0.1857   0.2009
     0.2285   0.2544   0.2661   0.2670   0.3885   0.4402   0.4439   0.4726
     0.4767   0.5225   0.5268   0.5304   0.5468   0.5728   0.5831   0.6014
     0.6195   0.6308   0.6332   0.6511   0.6623   0.7079   0.7124   0.7256
     0.7601   0.7869   0.8204   0.8592   0.8640   0.9595   1.0094   1.0255
     1.2111   1.2333   1.2369   1.2723   1.2831   1.3354   1.3370   1.3373
     1.3445   1.3533   1.3714   1.3914   1.3933   1.3938   1.4029   1.4032
     1.4354   1.4360   1.4441   1.4584   1.4666   1.4749   1.5517   1.5986
     1.7704   2.0476   2.0713   2.3477   2.5439   2.7144   2.8388   3.1143
     3.1416   3.2229   3.2974   3.6754   3.7812   3.9315   4.0360   4.2154
     4.3442   4.3611   4.4947   4.5751   4.6291   4.6875   4.7910   4.8101
     4.8411   4.9033   4.9700   5.0084   5.0416   5.1574   5.1712   5.2170
     5.2230   5.2351   5.5326   5.5758

     occupation numbers 
     1.0000   1.0000   1.0000   1.0000   1.0000   1.0000   1.0000   1.0000
     1.0000   1.0000   1.0000   1.0000   1.0000   1.0000   1.0000   1.0000
     1.0000   1.0000   1.0000   1.0000   1.0000   1.0000   1.0000   1.0000
     1.0000   1.0000   1.0000   1.0000   1.0000   1.0000   1.0000   1.0000
     1.0000   1.0000   1.0000   1.0000   1.0000   1.0000   1.0000   1.0000
     1.0000   1.0000   1.0000   1.0000   1.0000   1.0000   1.0000   1.0000
     1.0000   1.0000   1.0000   1.0000   1.0000   1.0000   1.0000   1.0000
     1.0000   1.0000   1.0000   1.0000   1.0000   1.0000   1.0000   1.0000
     1.0000   1.0000   1.0000   1.0000   1.0000   1.0000   1.0000   1.0000
     1.0000   1.0000   1.0000   1.0000   1.0000   1.0000   1.0000   1.0000
     1.0000   1.0000   1.0000   1.0000   1.0000   1.0000   1.0000   1.0000
     1.0000   1.0000   1.0000   1.0000   1.0000   1.0000   1.0000   1.0000
     1.0000   1.0000   1.0000   1.0000   1.0000   1.0000   1.0000   1.0000
     1.0000   1.0000   1.0000   1.0000

          k = 0.0000 0.0642 0.1122 ( 12985 PWs)   bands (ev):

   -11.5718 -11.4541 -11.3354 -11.2492 -11.1842 -11.1274 -11.1243 -11.0197
   -11.0062 -10.9733 -10.9387 -10.9233   0.1519   0.1640   0.2352   0.2398
     0.2630   0.2726   0.2876   0.3346   0.3574   0.4429   0.4430   0.4569
     0.4601   0.4839   0.4969   0.5540   0.5570   0.5577   0.5902   0.5968
     0.5988   0.5989   0.6149   0.6355   0.6619   0.6708   0.6970   0.7268
     0.7572   0.7639   0.7946   0.8354   0.8801   0.8826   0.8996   0.9801
     1.2282   1.2501   1.2529   1.2828   1.2990   1.3056   1.3063   1.3079
     1.3205   1.3401   1.3583   1.3650   1.4108   1.4134   1.4162   1.4203
     1.4318   1.4363   1.4493   1.4545   1.4698   1.5075   1.5236   1.5699
     2.0966   2.1138   2.2578   2.2791   2.6429   2.6820   2.7645   2.8475
     3.2303   3.2343   3.4238   3.7391   3.7568   4.0294   4.0340   4.0393
     4.1034   4.2661   4.3426   4.6759   4.7336   4.7367   4.8547   4.8695
     4.9004   4.9087   4.9375   4.9529   4.9769   5.0805   5.1657   5.1828
     5.3319   5.3382   5.4915   5.5120

     occupation numbers 
     1.0000   1.0000   1.0000   1.0000   1.0000   1.0000   1.0000   1.0000
     1.0000   1.0000   1.0000   1.0000   1.0000   1.0000   1.0000   1.0000
     1.0000   1.0000   1.0000   1.0000   1.0000   1.0000   1.0000   1.0000
     1.0000   1.0000   1.0000   1.0000   1.0000   1.0000   1.0000   1.0000
     1.0000   1.0000   1.0000   1.0000   1.0000   1.0000   1.0000   1.0000
     1.0000   1.0000   1.0000   1.0000   1.0000   1.0000   1.0000   1.0000
     1.0000   1.0000   1.0000   1.0000   1.0000   1.0000   1.0000   1.0000
     1.0000   1.0000   1.0000   1.0000   1.0000   1.0000   1.0000   1.0000
     1.0000   1.0000   1.0000   1.0000   1.0000   1.0000   1.0000   1.0000
     1.0000   1.0000   1.0000   1.0000   1.0000   1.0000   1.0000   1.0000
     1.0000   1.0000   1.0000   1.0000   1.0000   1.0000   1.0000   1.0000
     1.0000   1.0000   1.0000   1.0000   1.0000   1.0000   1.0000   1.0000
     1.0000   1.0000   1.0000   1.0000   1.0000   1.0000   1.0000   1.0000
     1.0000   1.0000   1.0000   1.0000

          k = 0.0000 0.0642-0.1683 ( 12980 PWs)   bands (ev):

   -11.5208 -11.5208 -11.2978 -11.2978 -11.1579 -11.1579 -11.0589 -11.0589
   -10.9736 -10.9736 -10.9446 -10.9446   0.1926   0.1926   0.2014   0.2014
     0.3110   0.3110   0.3858   0.3858   0.3951   0.3951   0.4452   0.4452
     0.4493   0.4493   0.4661   0.4661   0.5742   0.5742   0.5885   0.5885
     0.5886   0.5886   0.6086   0.6086   0.6252   0.6252   0.7406   0.7406
     0.7675   0.7675   0.7998   0.7998   0.8409   0.8409   0.9353   0.9353
     1.2644   1.2644   1.2755   1.2755   1.2772   1.2772   1.2993   1.2993
     1.3286   1.3286   1.3477   1.3477   1.4242   1.4242   1.4274   1.4274
     1.4350   1.4350   1.4381   1.4381   1.4984   1.4984   1.5388   1.5388
     2.1782   2.1782   2.4668   2.4668   2.4987   2.4987   2.7282   2.7282
     3.2915   3.2915   3.6936   3.6936   3.7986   3.7986   3.8822   3.8822
     4.2086   4.2086   4.5902   4.5903   4.7575   4.7575   4.8064   4.8064
     4.8733   4.8733   4.9363   4.9363   5.0739   5.0739   5.1696   5.1696
     5.4254   5.4254   5.4314   5.4314

     occupation numbers 
     1.0000   1.0000   1.0000   1.0000   1.0000   1.0000   1.0000   1.0000
     1.0000   1.0000   1.0000   1.0000   1.0000   1.0000   1.0000   1.0000
     1.0000   1.0000   1.0000   1.0000   1.0000   1.0000   1.0000   1.0000
     1.0000   1.0000   1.0000   1.0000   1.0000   1.0000   1.0000   1.0000
     1.0000   1.0000   1.0000   1.0000   1.0000   1.0000   1.0000   1.0000
     1.0000   1.0000   1.0000   1.0000   1.0000   1.0000   1.0000   1.0000
     1.0000   1.0000   1.0000   1.0000   1.0000   1.0000   1.0000   1.0000
     1.0000   1.0000   1.0000   1.0000   1.0000   1.0000   1.0000   1.0000
     1.0000   1.0000   1.0000   1.0000   1.0000   1.0000   1.0000   1.0000
     1.0000   1.0000   1.0000   1.0000   1.0000   1.0000   1.0000   1.0000
     1.0000   1.0000   1.0000   1.0000   1.0000   1.0000   1.0000   1.0000
     1.0000   1.0000   1.0000   1.0000   1.0000   1.0000   1.0000   1.0000
     1.0000   1.0000   1.0000   1.0000   1.0000   1.0000   1.0000   1.0000
     1.0000   1.0000   1.0000   1.0000

          k = 0.0000 0.1283 0.0000 ( 12960 PWs)   bands (ev):

   -11.5786 -11.4493 -11.2673 -11.2673 -11.1832 -11.1832 -11.1493 -11.0205
   -11.0205 -10.9517 -10.9221 -10.9143   0.1368   0.1368   0.1692   0.1692
     0.2083   0.2083   0.2887   0.2999   0.3696   0.4585   0.4685   0.5092
     0.5092   0.5161   0.5238   0.5250   0.5250   0.5715   0.5715   0.5847
     0.6152   0.6152   0.6239   0.6365   0.6460   0.6713   0.7854   0.7854
     0.7883   0.7883   0.7894   0.8582   0.9221   1.0108   1.0683   1.0990
     1.1869   1.2149   1.2314   1.2469   1.2865   1.3624   1.3652   1.3652
     1.3655   1.3655   1.3702   1.3702   1.3838   1.3838   1.3947   1.3947
     1.4413   1.4547   1.4688   1.4688   1.4734   1.5119   1.5541   1.5659
     1.6041   1.7790   2.0787   2.2496   2.2496   2.6307   3.1511   3.2334
     3.2334   3.5153   3.5329   3.5329   3.5337   4.1367   4.2189   4.3209
     4.3209   4.3438   4.5681   4.6048   4.6525   4.6525   4.7019   4.7019
     4.8013   4.8013   4.8725   4.9603   4.9603   5.0091   5.0500   5.0500
     5.3128   5.3423   5.5026   5.5520

     occupation numbers 
     1.0000   1.0000   1.0000   1.0000   1.0000   1.0000   1.0000   1.0000
     1.0000   1.0000   1.0000   1.0000   1.0000   1.0000   1.0000   1.0000
     1.0000   1.0000   1.0000   1.0000   1.0000   1.0000   1.0000   1.0000
     1.0000   1.0000   1.0000   1.0000   1.0000   1.0000   1.0000   1.0000
     1.0000   1.0000   1.0000   1.0000   1.0000   1.0000   1.0000   1.0000
     1.0000   1.0000   1.0000   1.0000   1.0000   1.0000   1.0000   1.0000
     1.0000   1.0000   1.0000   1.0000   1.0000   1.0000   1.0000   1.0000
     1.0000   1.0000   1.0000   1.0000   1.0000   1.0000   1.0000   1.0000
     1.0000   1.0000   1.0000   1.0000   1.0000   1.0000   1.0000   1.0000
     1.0000   1.0000   1.0000   1.0000   1.0000   1.0000   1.0000   1.0000
     1.0000   1.0000   1.0000   1.0000   1.0000   1.0000   1.0000   1.0000
     1.0000   1.0000   1.0000   1.0000   1.0000   1.0000   1.0000   1.0000
     1.0000   1.0000   1.0000   1.0000   1.0000   1.0000   1.0000   1.0000
     1.0000   1.0000   1.0000   1.0000

          k = 0.0000 0.1283 0.0561 ( 12967 PWs)   bands (ev):

   -11.5681 -11.4402 -11.3484 -11.2518 -11.1859 -11.1446 -11.1150 -11.0518
   -10.9907 -10.9625 -10.9309 -10.9175   0.1308   0.1634   0.1826   0.2120
     0.2142   0.2442   0.2770   0.2907   0.3603   0.4595   0.4654   0.4872
     0.5007   0.5149   0.5184   0.5379   0.5516   0.5542   0.5834   0.5906
     0.6025   0.6099   0.6137   0.6245   0.6519   0.6646   0.7290   0.7814
     0.7818   0.7992   0.8486   0.8529   0.8974   0.9085   1.0009   1.0578
     1.1965   1.2222   1.2368   1.2513   1.3012   1.3356   1.3372   1.3377
     1.3428   1.3632   1.3846   1.3911   1.3918   1.3988   1.4069   1.4205
     1.4400   1.4406   1.4523   1.4682   1.4706   1.4928   1.5270   1.5516
     1.7988   1.9464   2.0660   2.1749   2.3330   2.6284   3.0386   3.2074
     3.2232   3.4049   3.5405   3.5639   3.8325   4.1025   4.1314   4.2397
     4.3611   4.3965   4.4296   4.5046   4.5850   4.6456   4.6553   4.8007
     4.8036   4.8176   4.9281   4.9446   4.9503   4.9864   5.1221   5.1699
     5.3194   5.3244   5.4877   5.5378

     occupation numbers 
     1.0000   1.0000   1.0000   1.0000   1.0000   1.0000   1.0000   1.0000
     1.0000   1.0000   1.0000   1.0000   1.0000   1.0000   1.0000   1.0000
     1.0000   1.0000   1.0000   1.0000   1.0000   1.0000   1.0000   1.0000
     1.0000   1.0000   1.0000   1.0000   1.0000   1.0000   1.0000   1.0000
     1.0000   1.0000   1.0000   1.0000   1.0000   1.0000   1.0000   1.0000
     1.0000   1.0000   1.0000   1.0000   1.0000   1.0000   1.0000   1.0000
     1.0000   1.0000   1.0000   1.0000   1.0000   1.0000   1.0000   1.0000
     1.0000   1.0000   1.0000   1.0000   1.0000   1.0000   1.0000   1.0000
     1.0000   1.0000   1.0000   1.0000   1.0000   1.0000   1.0000   1.0000
     1.0000   1.0000   1.0000   1.0000   1.0000   1.0000   1.0000   1.0000
     1.0000   1.0000   1.0000   1.0000   1.0000   1.0000   1.0000   1.0000
     1.0000   1.0000   1.0000   1.0000   1.0000   1.0000   1.0000   1.0000
     1.0000   1.0000   1.0000   1.0000   1.0000   1.0000   1.0000   1.0000
     1.0000   1.0000   1.0000   1.0000

          k = 0.0000 0.1283 0.1122 ( 12978 PWs)   bands (ev):

   -11.5372 -11.4237 -11.4135 -11.3159 -11.1309 -11.1098 -11.0823 -11.0517
   -10.9941 -10.9643 -10.9566 -10.9271   0.1566   0.1869   0.2438   0.2445
     0.2641   0.2692   0.2994   0.3257   0.3320   0.4597   0.4631   0.4735
     0.4825   0.4838   0.5124   0.5257   0.5446   0.5576   0.5724   0.5725
     0.5865   0.5899   0.6081   0.6459   0.6460   0.6782   0.6909   0.7148
     0.7603   0.7879   0.8215   0.8265   0.8314   0.8799   0.9183   1.0268
     1.2217   1.2413   1.2524   1.2644   1.2997   1.3023   1.3048   1.3098
     1.3344   1.3658   1.3765   1.4084   1.4117   1.4144   1.4212   1.4216
     1.4353   1.4450   1.4514   1.4523   1.4546   1.4983   1.5134   1.5437
     2.0543   2.1129   2.1287   2.2414   2.4223   2.5895   2.8110   2.8577
     3.4375   3.5520   3.6049   3.6505   3.9478   4.0292   4.0807   4.1080
     4.1779   4.3001   4.4052   4.5166   4.6344   4.6381   4.6575   4.6716
     4.7427   4.8127   4.8766   4.9196   5.0760   5.1446   5.2717   5.2722
     5.2799   5.3174   5.4437   5.4880

     occupation numbers 
     1.0000   1.0000   1.0000   1.0000   1.0000   1.0000   1.0000   1.0000
     1.0000   1.0000   1.0000   1.0000   1.0000   1.0000   1.0000   1.0000
     1.0000   1.0000   1.0000   1.0000   1.0000   1.0000   1.0000   1.0000
     1.0000   1.0000   1.0000   1.0000   1.0000   1.0000   1.0000   1.0000
     1.0000   1.0000   1.0000   1.0000   1.0000   1.0000   1.0000   1.0000
     1.0000   1.0000   1.0000   1.0000   1.0000   1.0000   1.0000   1.0000
     1.0000   1.0000   1.0000   1.0000   1.0000   1.0000   1.0000   1.0000
     1.0000   1.0000   1.0000   1.0000   1.0000   1.0000   1.0000   1.0000
     1.0000   1.0000   1.0000   1.0000   1.0000   1.0000   1.0000   1.0000
     1.0000   1.0000   1.0000   1.0000   1.0000   1.0000   1.0000   1.0000
     1.0000   1.0000   1.0000   1.0000   1.0000   1.0000   1.0000   1.0000
     1.0000   1.0000   1.0000   1.0000   1.0000   1.0000   1.0000   1.0000
     1.0000   1.0000   1.0000   1.0000   1.0000   1.0000   1.0000   1.0000
     1.0000   1.0000   1.0000   1.0000

          k = 0.0000 0.1283-0.1683 ( 12994 PWs)   bands (ev):

   -11.4880 -11.4880 -11.3711 -11.3711 -11.1095 -11.1095 -11.0444 -11.0444
   -10.9978 -10.9977 -10.9429 -10.9429   0.1998   0.1998   0.2256   0.2256
     0.2889   0.2889   0.3868   0.3868   0.4065   0.4065   0.4376   0.4376
     0.4703   0.4703   0.4797   0.4797   0.5386   0.5386   0.5550   0.5550
     0.6169   0.6169   0.6184   0.6184   0.6375   0.6375   0.7121   0.7121
     0.7286   0.7286   0.8039   0.8039   0.8494   0.8494   0.9785   0.9785
     1.2578   1.2579   1.2692   1.2692   1.2762   1.2762   1.2846   1.2846
     1.3701   1.3701   1.3723   1.3723   1.4264   1.4264   1.4323   1.4323
     1.4376   1.4376   1.4387   1.4387   1.4763   1.4763   1.5305   1.5306
     2.0700   2.0700   2.4924   2.4924   2.5124   2.5124   2.5424   2.5424
     3.6379   3.6380   3.7447   3.7447   3.7829   3.7829   4.0200   4.0201
     4.3479   4.3479   4.3951   4.3951   4.5544   4.5544   4.7123   4.7123
     4.8126   4.8126   4.8390   4.8390   5.1872   5.1873   5.2670   5.2670
     5.3731   5.3731   5.3976   5.3976

     occupation numbers 
     1.0000   1.0000   1.0000   1.0000   1.0000   1.0000   1.0000   1.0000
     1.0000   1.0000   1.0000   1.0000   1.0000   1.0000   1.0000   1.0000
     1.0000   1.0000   1.0000   1.0000   1.0000   1.0000   1.0000   1.0000
     1.0000   1.0000   1.0000   1.0000   1.0000   1.0000   1.0000   1.0000
     1.0000   1.0000   1.0000   1.0000   1.0000   1.0000   1.0000   1.0000
     1.0000   1.0000   1.0000   1.0000   1.0000   1.0000   1.0000   1.0000
     1.0000   1.0000   1.0000   1.0000   1.0000   1.0000   1.0000   1.0000
     1.0000   1.0000   1.0000   1.0000   1.0000   1.0000   1.0000   1.0000
     1.0000   1.0000   1.0000   1.0000   1.0000   1.0000   1.0000   1.0000
     1.0000   1.0000   1.0000   1.0000   1.0000   1.0000   1.0000   1.0000
     1.0000   1.0000   1.0000   1.0000   1.0000   1.0000   1.0000   1.0000
     1.0000   1.0000   1.0000   1.0000   1.0000   1.0000   1.0000   1.0000
     1.0000   1.0000   1.0000   1.0000   1.0000   1.0000   1.0000   1.0000
     1.0000   1.0000   1.0000   1.0000

          k = 0.0000-0.1925 0.0000 ( 12942 PWs)   bands (ev):

   -11.5219 -11.5219 -11.2298 -11.2298 -11.2298 -11.2297 -11.1269 -11.0115
   -11.0115 -10.9375 -10.9374 -10.9197   0.1368   0.1368   0.1893   0.1893
     0.1893   0.1893   0.2939   0.3341   0.3341   0.4859   0.4859   0.4966
     0.4966   0.5346   0.5346   0.5346   0.5346   0.5652   0.5652   0.5652
     0.5652   0.5869   0.6240   0.6240   0.6763   0.7221   0.7221   0.7974
     0.7974   0.8045   0.8045   0.8858   0.8876   1.0563   1.0563   1.0857
     1.1971   1.1971   1.2353   1.2353   1.2886   1.3645   1.3645   1.3645
     1.3645   1.3737   1.3754   1.3754   1.3754   1.3754   1.3981   1.3981
     1.4478   1.4478   1.4743   1.4837   1.4837   1.5087   1.5588   1.5589
     1.6546   1.6546   2.1083   2.1743   2.1743   2.6034   3.1269   3.4214
     3.4214   3.4214   3.4214   3.4933   3.9517   3.9517   4.2940   4.2940
     4.4109   4.4109   4.4902   4.4902   4.5449   4.6566   4.6566   4.8111
     4.8111   4.8112   4.8112   4.9385   4.9385   4.9385   4.9386   4.9900
     5.4324   5.4324   5.4515   5.4515

     occupation numbers 
     1.0000   1.0000   1.0000   1.0000   1.0000   1.0000   1.0000   1.0000
     1.0000   1.0000   1.0000   1.0000   1.0000   1.0000   1.0000   1.0000
     1.0000   1.0000   1.0000   1.0000   1.0000   1.0000   1.0000   1.0000
     1.0000   1.0000   1.0000   1.0000   1.0000   1.0000   1.0000   1.0000
     1.0000   1.0000   1.0000   1.0000   1.0000   1.0000   1.0000   1.0000
     1.0000   1.0000   1.0000   1.0000   1.0000   1.0000   1.0000   1.0000
     1.0000   1.0000   1.0000   1.0000   1.0000   1.0000   1.0000   1.0000
     1.0000   1.0000   1.0000   1.0000   1.0000   1.0000   1.0000   1.0000
     1.0000   1.0000   1.0000   1.0000   1.0000   1.0000   1.0000   1.0000
     1.0000   1.0000   1.0000   1.0000   1.0000   1.0000   1.0000   1.0000
     1.0000   1.0000   1.0000   1.0000   1.0000   1.0000   1.0000   1.0000
     1.0000   1.0000   1.0000   1.0000   1.0000   1.0000   1.0000   1.0000
     1.0000   1.0000   1.0000   1.0000   1.0000   1.0000   1.0000   1.0000
     1.0000   1.0000   1.0000   1.0000

          k = 0.0000-0.1925 0.0561 ( 12942 PWs)   bands (ev):

   -11.5120 -11.5120 -11.3056 -11.3055 -11.1539 -11.1539 -11.1226 -11.0392
   -10.9853 -10.9474 -10.9473 -10.9225   0.1323   0.1818   0.1885   0.1885
     0.2296   0.2296   0.2820   0.3250   0.3250   0.4874   0.4874   0.4916
     0.4916   0.5135   0.5135   0.5380   0.5380   0.5645   0.5645   0.5929
     0.5973   0.5973   0.6116   0.6116   0.6314   0.7151   0.7151   0.7362
     0.8077   0.8106   0.8643   0.8789   0.8803   0.9479   0.9479   1.0748
     1.2070   1.2070   1.2404   1.2404   1.3081   1.3352   1.3352   1.3383
     1.3383   1.3742   1.3903   1.3910   1.3910   1.4079   1.4079   1.4082
     1.4460   1.4460   1.4636   1.4685   1.4968   1.5013   1.5013   1.5090
     1.8566   1.8566   2.0911   2.1161   2.2453   2.5754   3.1568   3.1568
     3.2199   3.5242   3.6544   3.6544   3.9711   3.9711   4.1019   4.4122
     4.4295   4.4295   4.4441   4.4441   4.4798   4.5880   4.5961   4.5961
     4.8055   4.8055   4.8078   4.9670   5.0231   5.0231   5.0693   5.0693
     5.4160   5.4160   5.4485   5.4485

     occupation numbers 
     1.0000   1.0000   1.0000   1.0000   1.0000   1.0000   1.0000   1.0000
     1.0000   1.0000   1.0000   1.0000   1.0000   1.0000   1.0000   1.0000
     1.0000   1.0000   1.0000   1.0000   1.0000   1.0000   1.0000   1.0000
     1.0000   1.0000   1.0000   1.0000   1.0000   1.0000   1.0000   1.0000
     1.0000   1.0000   1.0000   1.0000   1.0000   1.0000   1.0000   1.0000
     1.0000   1.0000   1.0000   1.0000   1.0000   1.0000   1.0000   1.0000
     1.0000   1.0000   1.0000   1.0000   1.0000   1.0000   1.0000   1.0000
     1.0000   1.0000   1.0000   1.0000   1.0000   1.0000   1.0000   1.0000
     1.0000   1.0000   1.0000   1.0000   1.0000   1.0000   1.0000   1.0000
     1.0000   1.0000   1.0000   1.0000   1.0000   1.0000   1.0000   1.0000
     1.0000   1.0000   1.0000   1.0000   1.0000   1.0000   1.0000   1.0000
     1.0000   1.0000   1.0000   1.0000   1.0000   1.0000   1.0000   1.0000
     1.0000   1.0000   1.0000   1.0000   1.0000   1.0000   1.0000   1.0000
     1.0000   1.0000   1.0000   1.0000

          k = 0.0000-0.1925 0.1122 ( 12946 PWs)   bands (ev):

   -11.4829 -11.4829 -11.3761 -11.3761 -11.1102 -11.0833 -11.0833 -11.0664
   -10.9765 -10.9764 -10.9624 -10.9305   0.1594   0.2161   0.2161   0.2491
     0.2681   0.2980   0.2980   0.3129   0.3129   0.4768   0.4768   0.4926
     0.4926   0.5031   0.5031   0.5169   0.5169   0.5205   0.5686   0.5686
     0.6032   0.6033   0.6112   0.6321   0.6321   0.6836   0.6954   0.6954
     0.7706   0.7706   0.8201   0.8243   0.8610   0.8633   0.9319   1.0435
     1.2297   1.2297   1.2552   1.2552   1.2993   1.2993   1.3053   1.3053
     1.3515   1.3763   1.3842   1.4129   1.4129   1.4212   1.4347   1.4347
     1.4349   1.4401   1.4401   1.4542   1.4741   1.4741   1.5046   1.5092
     2.0637   2.0747   2.1805   2.1805   2.3268   2.5047   2.8566   2.8566
     3.4583   3.6128   3.8584   3.8584   3.9156   4.0178   4.0178   4.1047
     4.3381   4.3381   4.4072   4.4072   4.4839   4.4839   4.6488   4.6795
     4.6795   4.6921   4.8516   4.8995   5.1893   5.1893   5.2069   5.2069
     5.3680   5.3680   5.4213   5.4213

     occupation numbers 
     1.0000   1.0000   1.0000   1.0000   1.0000   1.0000   1.0000   1.0000
     1.0000   1.0000   1.0000   1.0000   1.0000   1.0000   1.0000   1.0000
     1.0000   1.0000   1.0000   1.0000   1.0000   1.0000   1.0000   1.0000
     1.0000   1.0000   1.0000   1.0000   1.0000   1.0000   1.0000   1.0000
     1.0000   1.0000   1.0000   1.0000   1.0000   1.0000   1.0000   1.0000
     1.0000   1.0000   1.0000   1.0000   1.0000   1.0000   1.0000   1.0000
     1.0000   1.0000   1.0000   1.0000   1.0000   1.0000   1.0000   1.0000
     1.0000   1.0000   1.0000   1.0000   1.0000   1.0000   1.0000   1.0000
     1.0000   1.0000   1.0000   1.0000   1.0000   1.0000   1.0000   1.0000
     1.0000   1.0000   1.0000   1.0000   1.0000   1.0000   1.0000   1.0000
     1.0000   1.0000   1.0000   1.0000   1.0000   1.0000   1.0000   1.0000
     1.0000   1.0000   1.0000   1.0000   1.0000   1.0000   1.0000   1.0000
     1.0000   1.0000   1.0000   1.0000   1.0000   1.0000   1.0000   1.0000
     1.0000   1.0000   1.0000   1.0000

          k = 0.0000-0.1925-0.1683 ( 12956 PWs)   bands (ev):

   -11.4366 -11.4366 -11.4366 -11.4366 -11.0908 -11.0908 -11.0228 -11.0228
   -11.0228 -11.0228 -10.9440 -10.9440   0.2036   0.2036   0.2577   0.2577
     0.2577   0.2577   0.3878   0.3878   0.4214   0.4214   0.4214   0.4214
     0.5020   0.5020   0.5020   0.5020   0.5118   0.5118   0.5118   0.5118
     0.6415   0.6415   0.6593   0.6594   0.6594   0.6594   0.6662   0.6662
     0.6662   0.6662   0.8391   0.8391   0.8432   0.8432   0.9940   0.9940
     1.2618   1.2618   1.2618   1.2618   1.2777   1.2777   1.2777   1.2777
     1.3796   1.3796   1.3970   1.3970   1.4294   1.4294   1.4294   1.4294
     1.4369   1.4370   1.4559   1.4559   1.4559   1.4559   1.5082   1.5082
     2.0559   2.0559   2.4159   2.4159   2.5252   2.5252   2.5252   2.5252
     3.7479   3.7479   3.7720   3.7720   4.0081   4.0081   4.0081   4.0081
     4.2915   4.2916   4.2916   4.2916   4.5695   4.5695   4.5695   4.5695
     4.7914   4.7914   4.7997   4.7997   5.2909   5.2909   5.2909   5.2909
     5.3430   5.3430   5.3430   5.3430

     occupation numbers 
     1.0000   1.0000   1.0000   1.0000   1.0000   1.0000   1.0000   1.0000
     1.0000   1.0000   1.0000   1.0000   1.0000   1.0000   1.0000   1.0000
     1.0000   1.0000   1.0000   1.0000   1.0000   1.0000   1.0000   1.0000
     1.0000   1.0000   1.0000   1.0000   1.0000   1.0000   1.0000   1.0000
     1.0000   1.0000   1.0000   1.0000   1.0000   1.0000   1.0000   1.0000
     1.0000   1.0000   1.0000   1.0000   1.0000   1.0000   1.0000   1.0000
     1.0000   1.0000   1.0000   1.0000   1.0000   1.0000   1.0000   1.0000
     1.0000   1.0000   1.0000   1.0000   1.0000   1.0000   1.0000   1.0000
     1.0000   1.0000   1.0000   1.0000   1.0000   1.0000   1.0000   1.0000
     1.0000   1.0000   1.0000   1.0000   1.0000   1.0000   1.0000   1.0000
     1.0000   1.0000   1.0000   1.0000   1.0000   1.0000   1.0000   1.0000
     1.0000   1.0000   1.0000   1.0000   1.0000   1.0000   1.0000   1.0000
     1.0000   1.0000   1.0000   1.0000   1.0000   1.0000   1.0000   1.0000
     1.0000   1.0000   1.0000   1.0000

          k = 0.1667 0.0962 0.0000 ( 12960 PWs)   bands (ev):

   -11.5219 -11.3489 -11.2298 -11.2298 -11.1319 -11.1223 -11.1223 -11.0125
   -11.0125 -10.9374 -10.9162 -10.9072   0.1754   0.1754   0.1894   0.1894
     0.2155   0.2155   0.3339   0.3342   0.3681   0.4653   0.4857   0.4966
     0.5347   0.5347   0.5370   0.5650   0.5650   0.5839   0.5921   0.5921
     0.6241   0.6755   0.6943   0.6943   0.7063   0.7064   0.7220   0.7567
     0.7673   0.8266   0.8266   0.8936   1.0487   1.0564   1.1201   1.1412
     1.1679   1.1971   1.2354   1.2640   1.2672   1.2996   1.3541   1.3541
     1.3645   1.3645   1.3664   1.3664   1.3754   1.3754   1.4093   1.4093
     1.4477   1.4621   1.4783   1.5236   1.5236   1.5588   1.5890   1.6062
     1.6546   1.9517   2.0873   2.3508   2.3508   2.6196   2.9790   2.9790
     3.0722   3.3371   3.3794   3.3832   3.4215   3.4215   3.8787   3.8787
     3.9520   4.0091   4.4106   4.4378   4.4378   4.4904   4.5387   4.7136
     4.7136   4.7350   4.7485   4.7485   4.8114   4.8114   4.9382   4.9383
     5.0981   5.1150   5.4321   5.4515

     occupation numbers 
     1.0000   1.0000   1.0000   1.0000   1.0000   1.0000   1.0000   1.0000
     1.0000   1.0000   1.0000   1.0000   1.0000   1.0000   1.0000   1.0000
     1.0000   1.0000   1.0000   1.0000   1.0000   1.0000   1.0000   1.0000
     1.0000   1.0000   1.0000   1.0000   1.0000   1.0000   1.0000   1.0000
     1.0000   1.0000   1.0000   1.0000   1.0000   1.0000   1.0000   1.0000
     1.0000   1.0000   1.0000   1.0000   1.0000   1.0000   1.0000   1.0000
     1.0000   1.0000   1.0000   1.0000   1.0000   1.0000   1.0000   1.0000
     1.0000   1.0000   1.0000   1.0000   1.0000   1.0000   1.0000   1.0000
     1.0000   1.0000   1.0000   1.0000   1.0000   1.0000   1.0000   1.0000
     1.0000   1.0000   1.0000   1.0000   1.0000   1.0000   1.0000   1.0000
     1.0000   1.0000   1.0000   1.0000   1.0000   1.0000   1.0000   1.0000
     1.0000   1.0000   1.0000   1.0000   1.0000   1.0000   1.0000   1.0000
     1.0000   1.0000   1.0000   1.0000   1.0000   1.0000   1.0000   1.0000
     1.0000   1.0000   1.0000   1.0000

          k = 0.1667 0.0962 0.0561 ( 12957 PWs)   bands (ev):

   -11.5120 -11.3410 -11.3056 -11.1800 -11.1539 -11.1275 -11.0653 -11.0413
   -10.9852 -10.9473 -10.9191 -10.9143   0.1715   0.1885   0.2132   0.2183
     0.2297   0.2585   0.3225   0.3251   0.3602   0.4614   0.4873   0.4916
     0.5136   0.5323   0.5379   0.5646   0.5746   0.5789   0.5972   0.6090
     0.6117   0.6621   0.6669   0.6752   0.7127   0.7150   0.7325   0.7368
     0.7784   0.8313   0.8569   0.8845   0.9479   1.0212   1.0489   1.1047
     1.1793   1.2070   1.2404   1.2533   1.2815   1.3238   1.3352   1.3383
     1.3404   1.3446   1.3520   1.3619   1.3910   1.4059   1.4080   1.4440
     1.4460   1.4592   1.4756   1.5013   1.5018   1.5467   1.5651   1.6057
     1.8566   2.0695   2.0879   2.2734   2.4320   2.6352   2.8427   3.0811
     3.1041   3.1569   3.3813   3.3853   3.4520   3.6545   3.6600   3.9713
     3.9990   4.0908   4.2813   4.3896   4.4293   4.4443   4.5369   4.5758
     4.5963   4.6289   4.7137   4.8053   4.8697   4.9474   5.0233   5.0690
     5.0760   5.1352   5.4157   5.4486

     occupation numbers 
     1.0000   1.0000   1.0000   1.0000   1.0000   1.0000   1.0000   1.0000
     1.0000   1.0000   1.0000   1.0000   1.0000   1.0000   1.0000   1.0000
     1.0000   1.0000   1.0000   1.0000   1.0000   1.0000   1.0000   1.0000
     1.0000   1.0000   1.0000   1.0000   1.0000   1.0000   1.0000   1.0000
     1.0000   1.0000   1.0000   1.0000   1.0000   1.0000   1.0000   1.0000
     1.0000   1.0000   1.0000   1.0000   1.0000   1.0000   1.0000   1.0000
     1.0000   1.0000   1.0000   1.0000   1.0000   1.0000   1.0000   1.0000
     1.0000   1.0000   1.0000   1.0000   1.0000   1.0000   1.0000   1.0000
     1.0000   1.0000   1.0000   1.0000   1.0000   1.0000   1.0000   1.0000
     1.0000   1.0000   1.0000   1.0000   1.0000   1.0000   1.0000   1.0000
     1.0000   1.0000   1.0000   1.0000   1.0000   1.0000   1.0000   1.0000
     1.0000   1.0000   1.0000   1.0000   1.0000   1.0000   1.0000   1.0000
     1.0000   1.0000   1.0000   1.0000   1.0000   1.0000   1.0000   1.0000
     1.0000   1.0000   1.0000   1.0000

          k = 0.1667 0.0962 0.1122 ( 12962 PWs)   bands (ev):

   -11.4829 -11.3761 -11.3180 -11.2345 -11.1147 -11.0833 -11.0695 -11.0130
   -10.9764 -10.9612 -10.9352 -10.9277   0.1990   0.2161   0.2435   0.2900
     0.2972   0.2981   0.3129   0.3339   0.3403   0.4424   0.4768   0.4924
     0.5032   0.5124   0.5167   0.5641   0.5687   0.5688   0.6033   0.6114
     0.6235   0.6320   0.6407   0.6434   0.6953   0.6972   0.7510   0.7707
     0.7739   0.7771   0.8575   0.8590   0.8864   0.9192   0.9591   1.0583
     1.2098   1.2297   1.2552   1.2659   1.2977   1.2992   1.2993   1.3053
     1.3200   1.3325   1.3481   1.3644   1.4129   1.4219   1.4348   1.4401
     1.4507   1.4717   1.4742   1.4787   1.4842   1.5357   1.5690   1.6006
     2.1030   2.1805   2.2025   2.2931   2.5142   2.6371   2.6897   2.8566
     3.1385   3.2172   3.3633   3.4511   3.5319   3.6524   3.8585   3.9944
     4.0180   4.0746   4.1397   4.2067   4.3383   4.3388   4.4074   4.4836
     4.5906   4.6792   4.7235   4.7762   4.8897   5.0115   5.1048   5.1714
     5.1890   5.2071   5.3677   5.4213

     occupation numbers 
     1.0000   1.0000   1.0000   1.0000   1.0000   1.0000   1.0000   1.0000
     1.0000   1.0000   1.0000   1.0000   1.0000   1.0000   1.0000   1.0000
     1.0000   1.0000   1.0000   1.0000   1.0000   1.0000   1.0000   1.0000
     1.0000   1.0000   1.0000   1.0000   1.0000   1.0000   1.0000   1.0000
     1.0000   1.0000   1.0000   1.0000   1.0000   1.0000   1.0000   1.0000
     1.0000   1.0000   1.0000   1.0000   1.0000   1.0000   1.0000   1.0000
     1.0000   1.0000   1.0000   1.0000   1.0000   1.0000   1.0000   1.0000
     1.0000   1.0000   1.0000   1.0000   1.0000   1.0000   1.0000   1.0000
     1.0000   1.0000   1.0000   1.0000   1.0000   1.0000   1.0000   1.0000
     1.0000   1.0000   1.0000   1.0000   1.0000   1.0000   1.0000   1.0000
     1.0000   1.0000   1.0000   1.0000   1.0000   1.0000   1.0000   1.0000
     1.0000   1.0000   1.0000   1.0000   1.0000   1.0000   1.0000   1.0000
     1.0000   1.0000   1.0000   1.0000   1.0000   1.0000   1.0000   1.0000
     1.0000   1.0000   1.0000   1.0000

          k = 0.1667 0.0962-0.1683 ( 12966 PWs)   bands (ev):

   -11.4366 -11.4366 -11.2816 -11.2816 -11.0948 -11.0947 -11.0228 -11.0228
   -10.9687 -10.9687 -10.9418 -10.9418   0.2440   0.2441   0.2578   0.2578
     0.2903   0.2903   0.3864   0.3864   0.4214   0.4214   0.4420   0.4420
     0.5018   0.5018   0.5119   0.5119   0.5625   0.5625   0.6063   0.6063
     0.6185   0.6185   0.6594   0.6594   0.6661   0.6661   0.7624   0.7624
     0.7631   0.7631   0.8214   0.8214   0.9001   0.9001   0.9917   0.9917
     1.2521   1.2521   1.2617   1.2617   1.2777   1.2777   1.2933   1.2933
     1.3141   1.3141   1.3606   1.3606   1.4294   1.4294   1.4379   1.4379
[...]
     xc contribution           =    -656.26953696 Ry
     ewald contribution        =   -1253.24309784 Ry

     convergence has been achieved in  28 iterations

     Forces acting on atoms (cartesian axes, Ry/au):

     atom    1 type  1   force =     0.00000000   -0.00001611   -0.02014558
     atom    2 type  1   force =     0.00000000   -0.00000085   -0.02014935
     atom    3 type  2   force =     0.00000000    0.00000468    0.02013674
     atom    4 type  2   force =     0.00000000    0.00000093    0.02013936
     atom    5 type  1   force =     0.00000000   -0.00000899   -0.02013881
     atom    6 type  1   force =     0.00000000   -0.00000484   -0.02012524
     atom    7 type  2   force =     0.00000000    0.00000133    0.02014107
     atom    8 type  2   force =     0.00000000    0.00000127    0.02013928
     atom    9 type  1   force =     0.00000000   -0.00000057   -0.02013620
     atom   10 type  1   force =     0.00000000   -0.00001280   -0.02013489
     atom   11 type  2   force =     0.00000000   -0.00000176    0.02013931
     atom   12 type  2   force =     0.00000000   -0.00000227    0.02013544
     atom   13 type  1   force =     0.00000000   -0.00002324   -0.02013825
     atom   14 type  1   force =     0.00000000    0.00001649   -0.02014767
     atom   15 type  2   force =     0.00000000    0.00000469    0.02014053
     atom   16 type  2   force =     0.00000000   -0.00000224    0.02014476
     atom   17 type  1   force =     0.00000000    0.00000123   -0.02012263
     atom   18 type  1   force =     0.00000000    0.00002759   -0.02013964
     atom   19 type  2   force =     0.00000000    0.00000178    0.02013707
     atom   20 type  2   force =     0.00000000   -0.00000273    0.02013488
     atom   21 type  1   force =     0.00000000    0.00001711   -0.02016387
     atom   22 type  1   force =     0.00000000    0.00000407   -0.02013228
     atom   23 type  2   force =     0.00000000   -0.00000212    0.02014242
     atom   24 type  2   force =     0.00000000   -0.00000264    0.02014355
     The non-local contrib.  to forces
     atom    1 type  1   force =     0.00000000   -0.00001634   -0.23648298
     atom    2 type  1   force =     0.00000000    0.00000321   -0.23648395
     atom    3 type  2   force =     0.00000000    0.00021461   -0.19357773
     atom    4 type  2   force =     0.00000000   -0.00020393   -0.19357056
     atom    5 type  1   force =     0.00000000   -0.00001045   -0.23647015
     atom    6 type  1   force =     0.00000000   -0.00000320   -0.23646213
     atom    7 type  2   force =     0.00000000    0.00020581   -0.19356469
     atom    8 type  2   force =     0.00000000   -0.00020086   -0.19357241
     atom    9 type  1   force =     0.00000000   -0.00000225   -0.23647379
     atom   10 type  1   force =     0.00000000   -0.00000654   -0.23647372
     atom   11 type  2   force =     0.00000000    0.00020502   -0.19357262
     atom   12 type  2   force =     0.00000000   -0.00021036   -0.19357886
     atom   13 type  1   force =     0.00000000   -0.00001963   -0.23647024
     atom   14 type  1   force =     0.00000000    0.00001502   -0.23647682
     atom   15 type  2   force =     0.00000000    0.00021747   -0.19356943
     atom   16 type  2   force =     0.00000000   -0.00020916   -0.19356281
     atom   17 type  1   force =     0.00000000   -0.00000177   -0.23646502
     atom   18 type  1   force =     0.00000000    0.00002241   -0.23647973
     atom   19 type  2   force =     0.00000000    0.00020500   -0.19357513
     atom   20 type  2   force =     0.00000000   -0.00021007   -0.19358142
     atom   21 type  1   force =     0.00000000    0.00000923   -0.23648860
     atom   22 type  1   force =     0.00000000    0.00000815   -0.23646574
     atom   23 type  2   force =     0.00000000    0.00020194   -0.19356605
     atom   24 type  2   force =     0.00000000   -0.00021434   -0.19356176
     The ionic contribution  to forces
     atom    1 type  1   force =    -0.00000000    0.00000001   -1.55604004
     atom    2 type  1   force =     0.00000000    0.00000001   -1.55604004
     atom    3 type  2   force =    -0.00000000    0.00000000    1.55604004
     atom    4 type  2   force =     0.00000000    0.00000000    1.55604004
     atom    5 type  1   force =    -0.00000000    0.00000001   -1.55604004
     atom    6 type  1   force =     0.00000000    0.00000001   -1.55604004
     atom    7 type  2   force =    -0.00000000    0.00000000    1.55604004
     atom    8 type  2   force =     0.00000000    0.00000000    1.55604004
     atom    9 type  1   force =    -0.00000001    0.00000001   -1.55604004
     atom   10 type  1   force =     0.00000001   -0.00000001   -1.55604004
     atom   11 type  2   force =    -0.00000001    0.00000000    1.55604004
     atom   12 type  2   force =     0.00000001   -0.00000000    1.55604004
     atom   13 type  1   force =    -0.00000001    0.00000001   -1.55604004
     atom   14 type  1   force =     0.00000001   -0.00000001   -1.55604004
     atom   15 type  2   force =    -0.00000001    0.00000000    1.55604004
     atom   16 type  2   force =     0.00000001   -0.00000000    1.55604004
     atom   17 type  1   force =    -0.00000000   -0.00000001   -1.55604004
     atom   18 type  1   force =     0.00000000   -0.00000001   -1.55604004
     atom   19 type  2   force =    -0.00000000   -0.00000000    1.55604004
     atom   20 type  2   force =     0.00000000   -0.00000000    1.55604004
     atom   21 type  1   force =    -0.00000000   -0.00000001   -1.55604004
     atom   22 type  1   force =     0.00000000   -0.00000001   -1.55604004
     atom   23 type  2   force =    -0.00000000   -0.00000000    1.55604004
     atom   24 type  2   force =     0.00000000   -0.00000000    1.55604004
     The local contribution  to forces
     atom    1 type  1   force =    -0.00000005    0.00001789    1.75598660
     atom    2 type  1   force =     0.00000000    0.00001484    1.75598631
     atom    3 type  2   force =    -0.00000001   -0.00019332   -1.34386583
     atom    4 type  2   force =     0.00000000    0.00021000   -1.34386059
     atom    5 type  1   force =    -0.00000005    0.00000433    1.75597409
     atom    6 type  1   force =     0.00000000    0.00002190    1.75595529
     atom    7 type  2   force =    -0.00000001   -0.00020335   -1.34386295
     atom    8 type  2   force =    -0.00000000    0.00021199   -1.34386522
     atom    9 type  1   force =    -0.00000009   -0.00001181    1.75596746
     atom   10 type  1   force =     0.00000009    0.00003892    1.75596017
     atom   11 type  2   force =    -0.00000002   -0.00021282   -1.34386009
     atom   12 type  2   force =     0.00000002    0.00020495   -1.34387260
     atom   13 type  1   force =    -0.00000009    0.00003310    1.75597251
     atom   14 type  1   force =     0.00000009   -0.00001939    1.75600112
     atom   15 type  2   force =    -0.00000002   -0.00019234   -1.34386416
     atom   16 type  2   force =     0.00000002    0.00020334   -1.34385140
     atom   17 type  1   force =    -0.00000000   -0.00001576    1.75594194
     atom   18 type  1   force =     0.00000005   -0.00004180    1.75596612
     atom   19 type  2   force =    -0.00000000   -0.00020539   -1.34386364
     atom   20 type  2   force =     0.00000001    0.00019749   -1.34387179
     atom   21 type  1   force =    -0.00000000   -0.00004659    1.75602557
     atom   22 type  1   force =     0.00000005    0.00000742    1.75596648
     atom   23 type  2   force =     0.00000000   -0.00021716   -1.34386210
     atom   24 type  2   force =     0.00000001    0.00019759   -1.34385294
     The core correction contribution to forces
     atom    1 type  1   force =     0.00000009    0.00000424    0.01639319
     atom    2 type  1   force =     0.00000003   -0.00000485    0.01639364
     atom    3 type  2   force =     0.00000001   -0.00000244    0.00153745
     atom    4 type  2   force =    -0.00000001    0.00000234    0.00153824
     atom    5 type  1   force =     0.00000009    0.00000433    0.01638962
     atom    6 type  1   force =     0.00000003   -0.00000447    0.01638959
     atom    7 type  2   force =     0.00000001   -0.00000233    0.00153576
     atom    8 type  2   force =    -0.00000001    0.00000230    0.00153501
     atom    9 type  1   force =    -0.00000003    0.00000460    0.01639326
     atom   10 type  1   force =     0.00000003   -0.00000524    0.01639400
     atom   11 type  2   force =    -0.00000000   -0.00000231    0.00153741
     atom   12 type  2   force =     0.00000000    0.00000236    0.00153833
     atom   13 type  1   force =    -0.00000003    0.00000398    0.01638986
     atom   14 type  1   force =     0.00000003   -0.00000428    0.01638857
     atom   15 type  2   force =    -0.00000000   -0.00000245    0.00153583
     atom   16 type  2   force =     0.00000000    0.00000235    0.00153491
     atom   17 type  1   force =    -0.00000003    0.00000475    0.01639369
     atom   18 type  1   force =    -0.00000009   -0.00000342    0.01639441
     atom   19 type  2   force =     0.00000001   -0.00000234    0.00153743
     atom   20 type  2   force =    -0.00000001    0.00000239    0.00153835
     atom   21 type  1   force =    -0.00000003    0.00000530    0.01638890
     atom   22 type  1   force =    -0.00000009   -0.00000482    0.01638925
     atom   23 type  2   force =     0.00000001   -0.00000232    0.00153580
     atom   24 type  2   force =    -0.00000001    0.00000244    0.00153489
     The Hubbard contrib.    to forces
     atom    1 type  1   force =     0.00000000    0.00000000    0.00000000
     atom    2 type  1   force =     0.00000000    0.00000000    0.00000000
     atom    3 type  2   force =     0.00000000    0.00000000    0.00000000
     atom    4 type  2   force =     0.00000000    0.00000000    0.00000000
     atom    5 type  1   force =     0.00000000    0.00000000    0.00000000
     atom    6 type  1   force =     0.00000000    0.00000000    0.00000000
     atom    7 type  2   force =     0.00000000    0.00000000    0.00000000
     atom    8 type  2   force =     0.00000000    0.00000000    0.00000000
     atom    9 type  1   force =     0.00000000    0.00000000    0.00000000
     atom   10 type  1   force =     0.00000000    0.00000000    0.00000000
     atom   11 type  2   force =     0.00000000    0.00000000    0.00000000
     atom   12 type  2   force =     0.00000000    0.00000000    0.00000000
     atom   13 type  1   force =     0.00000000    0.00000000    0.00000000
     atom   14 type  1   force =     0.00000000    0.00000000    0.00000000
     atom   15 type  2   force =     0.00000000    0.00000000    0.00000000
     atom   16 type  2   force =     0.00000000    0.00000000    0.00000000
     atom   17 type  1   force =     0.00000000    0.00000000    0.00000000
     atom   18 type  1   force =     0.00000000    0.00000000    0.00000000
     atom   19 type  2   force =     0.00000000    0.00000000    0.00000000
     atom   20 type  2   force =     0.00000000    0.00000000    0.00000000
     atom   21 type  1   force =     0.00000000    0.00000000    0.00000000
     atom   22 type  1   force =     0.00000000    0.00000000    0.00000000
     atom   23 type  2   force =     0.00000000    0.00000000    0.00000000
     atom   24 type  2   force =     0.00000000    0.00000000    0.00000000
     The SCF correction term to forces
     atom    1 type  1   force =    -0.00000000   -0.00002188    0.00000001
     atom    2 type  1   force =     0.00000000   -0.00001403   -0.00000294
     atom    3 type  2   force =    -0.00000000   -0.00001415    0.00000517
     atom    4 type  2   force =    -0.00000000   -0.00000745   -0.00000540
     atom    5 type  1   force =    -0.00000000   -0.00000718    0.00001003
     atom    6 type  1   force =     0.00000000   -0.00001904    0.00003441
     atom    7 type  2   force =    -0.00000000    0.00000123   -0.00000472
     atom    8 type  2   force =     0.00000000   -0.00001213    0.00000423
     atom    9 type  1   force =     0.00000000    0.00000891    0.00001928
     atom   10 type  1   force =    -0.00000000   -0.00003989    0.00002707
     atom   11 type  2   force =    -0.00000000    0.00000838   -0.00000305
     atom   12 type  2   force =     0.00000000    0.00000081    0.00001090
     atom   13 type  1   force =    -0.00000000   -0.00004067    0.00001204
     atom   14 type  1   force =    -0.00000000    0.00002519   -0.00001813
     atom   15 type  2   force =    -0.00000000   -0.00001797    0.00000061
     atom   16 type  2   force =     0.00000000    0.00000127   -0.00001362
     atom   17 type  1   force =    -0.00000000    0.00001405    0.00004918
     atom   18 type  1   force =     0.00000000    0.00005044    0.00002197
     atom   19 type  2   force =     0.00000000    0.00000455    0.00000074
     atom   20 type  2   force =     0.00000000    0.00000750    0.00001207
     atom   21 type  1   force =    -0.00000000    0.00004921   -0.00004733
     atom   22 type  1   force =     0.00000000   -0.00000664    0.00002014
     atom   23 type  2   force =    -0.00000000    0.00001546   -0.00000291
     atom   24 type  2   force =     0.00000000    0.00001171   -0.00001430

     Total force =     0.098663     Total SCF correction =     0.000144

     init_run     :     22.62s CPU     23.29s WALL (       1 calls)
     electrons    :   1670.06s CPU   1704.93s WALL (       1 calls)
     forces       :     10.39s CPU     10.47s WALL (       1 calls)

     Called by init_run:
     wfcinit      :     15.91s CPU     16.42s WALL (       1 calls)
     wfcinit:atom :      0.08s CPU      0.08s WALL (       9 calls)
     wfcinit:wfcr :     15.16s CPU     15.64s WALL (       9 calls)
     potinit      :      2.48s CPU      2.55s WALL (       1 calls)
     hinit0       :      3.88s CPU      3.91s WALL (       1 calls)

     Called by electrons:
     c_bands      :   1525.89s CPU   1555.76s WALL (      28 calls)
     sum_band     :    123.74s CPU    128.15s WALL (      28 calls)
     v_of_rho     :     10.86s CPU     11.22s WALL (      29 calls)
     v_h          :      0.62s CPU      0.67s WALL (      29 calls)
     v_xc         :     10.50s CPU     10.82s WALL (      30 calls)
     newd         :      6.98s CPU      7.09s WALL (      29 calls)
     mix_rho      :      1.46s CPU      1.52s WALL (      28 calls)

     Called by c_bands:
     init_us_2    :      6.58s CPU      6.64s WALL (     522 calls)
     init_us_2:cp :      6.57s CPU      6.64s WALL (     522 calls)
     cegterg      :   1376.78s CPU   1406.13s WALL (     252 calls)

     Called by sum_band:
     sum_band:wei :      0.04s CPU      0.04s WALL (      28 calls)
     sum_band:loo :    113.84s CPU    117.81s WALL (      28 calls)
     sum_band:buf :      0.81s CPU      0.88s WALL (     252 calls)
     sum_band:ini :      2.62s CPU      2.63s WALL (     252 calls)
     sum_band:cal :     33.97s CPU     34.15s WALL (     252 calls)
     sum_band:bec :      0.21s CPU      0.21s WALL (     252 calls)
     addusdens    :      6.18s CPU      6.29s WALL (      28 calls)
     addusd:skk   :      0.08s CPU      0.09s WALL (      56 calls)
     addusd:dgemm :      1.16s CPU      1.17s WALL (      56 calls)
     addusd:qvan2 :      2.95s CPU      2.97s WALL (      56 calls)

     Called by *egterg:
     cdiaghg      :     99.10s CPU    101.22s WALL (    2197 calls)
     cegterg:over :    143.29s CPU    143.65s WALL (    1945 calls)
     cegterg:upda :     83.34s CPU     83.65s WALL (    1945 calls)
     cegterg:last :    168.56s CPU    169.11s WALL (     818 calls)
     cdiaghg:chol :      6.02s CPU      6.04s WALL (    2197 calls)
     cdiaghg:inve :      1.52s CPU      1.52s WALL (    2197 calls)
     cdiaghg:para :     18.41s CPU     20.11s WALL (    4394 calls)
     h_psi        :    745.91s CPU    772.03s WALL (    2206 calls)
     s_psi        :    112.31s CPU    112.46s WALL (    2206 calls)
     g_psi        :      2.89s CPU      2.90s WALL (    1945 calls)

     Called by h_psi:
     h_psi:calbec :    132.05s CPU    132.88s WALL (    2206 calls)
     vloc_psi     :    494.86s CPU    519.97s WALL (    2206 calls)
     add_vuspsi   :    116.34s CPU    116.50s WALL (    2206 calls)

     General routines
     calbec       :    171.06s CPU    172.09s WALL (    2494 calls)
     fft          :      7.90s CPU      8.38s WALL (     386 calls)
     ffts         :      0.64s CPU      0.67s WALL (      57 calls)
     fftw         :    510.45s CPU    536.85s WALL (  218990 calls)
     interpolate  :      1.08s CPU      1.13s WALL (      29 calls)

     Parallel routines

     PWSCF        :  28m23.66s CPU  28m59.33s WALL


   This run was terminated on:  16:12: 7  31Aug2025            

=------------------------------------------------------------------------------=
   JOB DONE.
=------------------------------------------------------------------------------=
Note: The following floating-point exceptions are signalling: IEEE_UNDERFLOW_FLAG IEEE_DENORMAL
Note: The following floating-point exceptions are signalling: IEEE_UNDERFLOW_FLAG IEEE_DENORMAL
Note: The following floating-point exceptions are signalling: IEEE_UNDERFLOW_FLAG IEEE_DENORMAL
Note: The following floating-point exceptions are signalling: IEEE_UNDERFLOW_FLAG IEEE_DENORMAL
Note: The following floating-point exceptions are signalling: IEEE_UNDERFLOW_FLAG IEEE_DENORMAL
Note: The following floating-point exceptions are signalling: IEEE_UNDERFLOW_FLAG IEEE_DENORMAL
Note: The following floating-point exceptions are signalling: IEEE_UNDERFLOW_FLAG IEEE_DENORMAL
Note: The following floating-point exceptions are signalling: IEEE_UNDERFLOW_FLAG IEEE_DENORMAL
Note: The following floating-point exceptions are signalling: IEEE_UNDERFLOW_FLAG IEEE_DENORMAL
Note: The following floating-point exceptions are signalling: IEEE_UNDERFLOW_FLAG IEEE_DENORMAL
Note: The following floating-point exceptions are signalling: IEEE_UNDERFLOW_FLAG IEEE_DENORMAL
Note: The following floating-point exceptions are signalling: IEEE_UNDERFLOW_FLAG IEEE_DENORMAL
Note: The following floating-point exceptions are signalling: IEEE_UNDERFLOW_FLAG IEEE_DENORMAL
Note: The following floating-point exceptions are signalling: IEEE_UNDERFLOW_FLAG IEEE_DENORMAL
Note: The following floating-point exceptions are signalling: IEEE_UNDERFLOW_FLAG IEEE_DENORMAL
Note: The following floating-point exceptions are signalling: IEEE_UNDERFLOW_FLAG IEEE_DENORMAL
Note: The following floating-point exceptions are signalling: IEEE_UNDERFLOW_FLAG IEEE_DENORMAL
Note: The following floating-point exceptions are signalling: IEEE_UNDERFLOW_FLAG IEEE_DENORMAL
Note: The following floating-point exceptions are signalling: IEEE_UNDERFLOW_FLAG IEEE_DENORMAL
Note: The following floating-point exceptions are signalling: IEEE_UNDERFLOW_FLAG IEEE_DENORMAL
Note: The following floating-point exceptions are signalling: IEEE_UNDERFLOW_FLAG IEEE_DENORMAL
Note: The following floating-point exceptions are signalling: IEEE_UNDERFLOW_FLAG IEEE_DENORMAL
Note: The following floating-point exceptions are signalling: IEEE_UNDERFLOW_FLAG IEEE_DENORMAL
Note: The following floating-point exceptions are signalling: IEEE_UNDERFLOW_FLAG IEEE_DENORMAL
Note: The following floating-point exceptions are signalling: IEEE_UNDERFLOW_FLAG IEEE_DENORMAL
Note: The following floating-point exceptions are signalling: IEEE_UNDERFLOW_FLAG IEEE_DENORMAL
Note: The following floating-point exceptions are signalling: IEEE_UNDERFLOW_FLAG IEEE_DENORMAL
Note: The following floating-point exceptions are signalling: IEEE_UNDERFLOW_FLAG IEEE_DENORMAL
Note: The following floating-point exceptions are signalling: IEEE_UNDERFLOW_FLAG IEEE_DENORMAL
Note: The following floating-point exceptions are signalling: IEEE_UNDERFLOW_FLAG IEEE_DENORMAL
Note: The following floating-point exceptions are signalling: IEEE_UNDERFLOW_FLAG IEEE_DENORMAL
Note: The following floating-point exceptions are signalling: IEEE_UNDERFLOW_FLAG IEEE_DENORMAL
