Authorization required, but no authorization protocol specified

Authorization required, but no authorization protocol specified

Authorization required, but no authorization protocol specified

Authorization required, but no authorization protocol specified

Authorization required, but no authorization protocol specified

Authorization required, but no authorization protocol specified

Authorization required, but no authorization protocol specified

Authorization required, but no authorization protocol specified

Authorization required, but no authorization protocol specified

Authorization required, but no authorization protocol specified

Authorization required, but no authorization protocol specified

Authorization required, but no authorization protocol specified

Authorization required, but no authorization protocol specified

Authorization required, but no authorization protocol specified

Authorization required, but no authorization protocol specified

Authorization required, but no authorization protocol specified

Authorization required, but no authorization protocol specified

Authorization required, but no authorization protocol specified

Authorization required, but no authorization protocol specified

Authorization required, but no authorization protocol specified

Authorization required, but no authorization protocol specified

Authorization required, but no authorization protocol specified

Authorization required, but no authorization protocol specified

Authorization required, but no authorization protocol specified

Authorization required, but no authorization protocol specified

Authorization required, but no authorization protocol specified

Authorization required, but no authorization protocol specified

Authorization required, but no authorization protocol specified

Authorization required, but no authorization protocol specified

Authorization required, but no authorization protocol specified

Authorization required, but no authorization protocol specified

Authorization required, but no authorization protocol specified

Authorization required, but no authorization protocol specified

Authorization required, but no authorization protocol specified


     Program PWSCF v.7.2 starts on 19Jul2025 at 21: 2:58 

     This program is part of the open-source Quantum ESPRESSO suite
     for quantum simulation of materials; please cite
         "P. Giannozzi et al., J. Phys.:Condens. Matter 21 395502 (2009);
         "P. Giannozzi et al., J. Phys.:Condens. Matter 29 465901 (2017);
         "P. Giannozzi et al., J. Chem. Phys. 152 154105 (2020);
          URL http://www.quantum-espresso.org", 
     in publications or presentations arising from this work. More details at
     http://www.quantum-espresso.org/quote

     Parallel version (MPI), running on    32 processors

     MPI processes distributed on     1 nodes
     80226 MiB available memory on the printing compute node when the environment starts

     Reading input from /home/jvc/QEspresso7.2/ZnO_database/scripts/cell132.in/ZnO-2.94-1.61-132.in
Warning: card &CELL ignored
Warning: card / ignored
Warning: card &FCP ignored
Warning: card / ignored
Warning: card &RISM ignored
Warning: card / ignored

     Current dimensions of program PWSCF are:
     Max number of different atomic species (ntypx) = 10
     Max number of k-points (npk) =  40000
     Max angular momentum in pseudopotentials (lmaxx) =  4
     file Zn.upf: wavefunction(s)  3D renormalized
     Found identity + (  0.0000  0.0000 -0.5000) symmetry
     This is a supercell, fractional translations are disabled
     Message from routine setup:
     using ibrav=0 with symmetry is DISCOURAGED, use correct ibrav instead

     K-points division:     npool     =       8
     R & G space division:  proc/nbgrp/npool/nimage =       4
     Subspace diagonalization in iterative solution of the eigenvalue problem:
     a serial algorithm will be used


     Parallelization info
     --------------------
     sticks:   dense  smooth     PW     G-vecs:    dense   smooth      PW
     Min         787     393    115                66833    23593    3775
     Max         789     394    116                66835    23594    3780
     Sum        3153    1573    461               267335    94373   15109

     Using Slab Decomposition



     bravais-lattice index     =            0
     lattice parameter (alat)  =       6.1788  a.u.
     unit-cell volume          =    1978.7861 (a.u.)^3
     number of atoms/cell      =           24
     number of atomic types    =            2
     number of electrons       =       216.00
     number of Kohn-Sham states=          108
     kinetic-energy cutoff     =      50.0000  Ry
     charge density cutoff     =     400.0000  Ry
     scf convergence threshold =      1.0E-08
     mixing beta               =       0.3000
     number of iterations used =            8  plain     mixing
     Exchange-correlation= PBE
                           (   1   4   3   4   0   0   0)

     celldm(1)=   6.178822  celldm(2)=   0.000000  celldm(3)=   0.000000
     celldm(4)=   0.000000  celldm(5)=   0.000000  celldm(6)=   0.000000

     crystal axes: (cart. coord. in units of alat)
               a(1) = (   1.000000   0.000000   0.000000 )  
               a(2) = (  -1.500000   2.598076   0.000000 )  
               a(3) = (   0.000000   0.000000   3.228717 )  

     reciprocal axes: (cart. coord. in units 2 pi/alat)
               b(1) = (  1.000000  0.577350 -0.000000 )  
               b(2) = (  0.000000  0.384900  0.000000 )  
               b(3) = (  0.000000 -0.000000  0.309721 )  


     PseudoPot. # 1 for Zn read from file:
     /home/jvc/QEspresso7.2/ZnO_database/pseudos/Zn.upf
     MD5 check sum: 7f56cabf9682ed8c977c2f7d0c5985c5
     Pseudo is Ultrasoft + core correction, Zval = 12.0
     Generated using &quot;atomic&quot; code by A. Dal Corso  v.6.2.2
     Using radial grid of 1201 points,  6 beta functions with: 
                l(1) =   0
                l(2) =   0
                l(3) =   1
                l(4) =   1
                l(5) =   2
                l(6) =   2
     Q(r) pseudized with 0 coefficients 


     PseudoPot. # 2 for O  read from file:
     /home/jvc/QEspresso7.2/ZnO_database/pseudos/O.upf
     MD5 check sum: 91400c9766925bcf19f520983a725ff0
     Pseudo is Ultrasoft + core correction, Zval =  6.0
     Generated using &quot;atomic&quot; code by A. Dal Corso  v.6.3MaX
     Using radial grid of 1095 points,  4 beta functions with: 
                l(1) =   0
                l(2) =   0
                l(3) =   1
                l(4) =   1
     Q(r) pseudized with 0 coefficients 


     atomic species   valence    mass     pseudopotential
        Zn            12.00    65.38000     Zn( 1.00)
        O              6.00    15.99900     O ( 1.00)

      2 Sym. Ops. (no inversion) found


                                    s                        frac. trans.

      isym =  1     identity                                     

 cryst.   s( 1) = (     1          0          0      )
                  (     0          1          0      )
                  (     0          0          1      )

 cart.    s( 1) = (  1.0000000  0.0000000  0.0000000 )
                  (  0.0000000  1.0000000  0.0000000 )
                  (  0.0000000  0.0000000  1.0000000 )


      isym =  2     inv. 180 deg rotation - cart. axis [1,0,0]   

 cryst.   s( 2) = (    -1          0          0      )
                  (     3          1          0      )
                  (     0          0          1      )

 cart.    s( 2) = ( -1.0000000  0.0000000  0.0000000 )
                  (  0.0000000  1.0000000  0.0000000 )
                  (  0.0000000  0.0000000  1.0000000 )


   Cartesian axes

     site n.     atom                  positions (alat units)
         1           Zn  tau(   1) = (   0.5000000   0.2886751   0.8082020  )
         2           Zn  tau(   2) = (   0.0000000   0.5773503   0.0010228  )
         3           O   tau(   3) = (   0.5000000   0.2886751   1.4201130  )
         4           O   tau(   4) = (   0.0000000   0.5773503   0.6129338  )
         5           Zn  tau(   5) = (   0.5000000   0.2886751   2.4225604  )
         6           Zn  tau(   6) = (   0.0000000   0.5773503   1.6153812  )
         7           O   tau(   7) = (   0.5000000   0.2886751   3.0344713  )
         8           O   tau(   8) = (   0.0000000   0.5773503   2.2272921  )
         9           Zn  tau(   9) = (   0.0000000   1.1547005   0.8082020  )
        10           Zn  tau(  10) = (  -0.5000000   1.4433757   0.0010228  )
        11           O   tau(  11) = (   0.0000000   1.1547005   1.4201130  )
        12           O   tau(  12) = (  -0.5000000   1.4433757   0.6129338  )
        13           Zn  tau(  13) = (   0.0000000   1.1547005   2.4225604  )
        14           Zn  tau(  14) = (  -0.5000000   1.4433757   1.6153812  )
        15           O   tau(  15) = (   0.0000000   1.1547005   3.0344713  )
        16           O   tau(  16) = (  -0.5000000   1.4433757   2.2272921  )
        17           Zn  tau(  17) = (  -0.5000000   2.0207259   0.8082020  )
        18           Zn  tau(  18) = (  -1.0000000   2.3094011   0.0010228  )
        19           O   tau(  19) = (  -0.5000000   2.0207259   1.4201130  )
        20           O   tau(  20) = (  -1.0000000   2.3094011   0.6129338  )
        21           Zn  tau(  21) = (  -0.5000000   2.0207259   2.4225604  )
        22           Zn  tau(  22) = (  -1.0000000   2.3094011   1.6153812  )
        23           O   tau(  23) = (  -0.5000000   2.0207259   3.0344713  )
        24           O   tau(  24) = (  -1.0000000   2.3094011   2.2272921  )

   Crystallographic axes

     site n.     atom                  positions (cryst. coord.)
         1           Zn  tau(   1) = (  0.6666667  0.1111111  0.2503168  )
         2           Zn  tau(   2) = (  0.3333333  0.2222222  0.0003168  )
         3           O   tau(   3) = (  0.6666667  0.1111111  0.4398382  )
         4           O   tau(   4) = (  0.3333333  0.2222222  0.1898382  )
         5           Zn  tau(   5) = (  0.6666667  0.1111111  0.7503168  )
         6           Zn  tau(   6) = (  0.3333333  0.2222222  0.5003168  )
         7           O   tau(   7) = (  0.6666667  0.1111111  0.9398382  )
         8           O   tau(   8) = (  0.3333333  0.2222222  0.6898382  )
         9           Zn  tau(   9) = (  0.6666667  0.4444444  0.2503168  )
        10           Zn  tau(  10) = (  0.3333333  0.5555556  0.0003168  )
        11           O   tau(  11) = (  0.6666667  0.4444444  0.4398382  )
        12           O   tau(  12) = (  0.3333333  0.5555556  0.1898382  )
        13           Zn  tau(  13) = (  0.6666667  0.4444444  0.7503168  )
        14           Zn  tau(  14) = (  0.3333333  0.5555556  0.5003168  )
        15           O   tau(  15) = (  0.6666667  0.4444444  0.9398382  )
        16           O   tau(  16) = (  0.3333333  0.5555556  0.6898382  )
        17           Zn  tau(  17) = (  0.6666667  0.7777778  0.2503168  )
        18           Zn  tau(  18) = (  0.3333333  0.8888889  0.0003168  )
        19           O   tau(  19) = (  0.6666667  0.7777778  0.4398382  )
        20           O   tau(  20) = (  0.3333333  0.8888889  0.1898382  )
        21           Zn  tau(  21) = (  0.6666667  0.7777778  0.7503168  )
        22           Zn  tau(  22) = (  0.3333333  0.8888889  0.5003168  )
        23           O   tau(  23) = (  0.6666667  0.7777778  0.9398382  )
        24           O   tau(  24) = (  0.3333333  0.8888889  0.6898382  )

     number of k points=    13
                       cart. coord. in units 2pi/alat
        k(    1) = (   0.0000000   0.0000000   0.0000000), wk =   0.0555556
        k(    2) = (   0.0000000   0.0000000   0.1032402), wk =   0.1111111
        k(    3) = (   0.0000000  -0.1924501   0.0000000), wk =   0.0555556
        k(    4) = (   0.0000000  -0.1924501   0.1032402), wk =   0.1111111
        k(    5) = (   0.1666667   0.0962250   0.0000000), wk =   0.2222222
        k(    6) = (   0.1666667   0.0962250   0.1032402), wk =   0.2222222
        k(    7) = (   0.3333333   0.1924501   0.0000000), wk =   0.1111111
        k(    8) = (   0.3333333   0.1924501   0.1032402), wk =   0.2222222
        k(    9) = (   0.3333333  -0.0000000   0.0000000), wk =   0.1111111
        k(   10) = (   0.3333333  -0.0000000   0.1032402), wk =   0.2222222
        k(   11) = (  -0.5000000  -0.2886751   0.0000000), wk =   0.1111111
        k(   12) = (  -0.5000000  -0.2886751   0.1032402), wk =   0.2222222
        k(   13) = (  -0.1666667   0.0962250  -0.1032402), wk =   0.2222222

                       cryst. coord.
        k(    1) = (   0.0000000   0.0000000   0.0000000), wk =   0.0555556
        k(    2) = (   0.0000000   0.0000000   0.3333333), wk =   0.1111111
        k(    3) = (   0.0000000  -0.5000000   0.0000000), wk =   0.0555556
        k(    4) = (   0.0000000  -0.5000000   0.3333333), wk =   0.1111111
        k(    5) = (   0.1666667   0.0000000   0.0000000), wk =   0.2222222
        k(    6) = (   0.1666667   0.0000000   0.3333333), wk =   0.2222222
        k(    7) = (   0.3333333   0.0000000   0.0000000), wk =   0.1111111
        k(    8) = (   0.3333333   0.0000000   0.3333333), wk =   0.2222222
        k(    9) = (   0.3333333  -0.5000000   0.0000000), wk =   0.1111111
        k(   10) = (   0.3333333  -0.5000000   0.3333333), wk =   0.2222222
        k(   11) = (  -0.5000000  -0.0000000   0.0000000), wk =   0.1111111
        k(   12) = (  -0.5000000  -0.0000000   0.3333333), wk =   0.2222222
        k(   13) = (  -0.1666667   0.5000000  -0.3333333), wk =   0.2222222

     Dense  grid:   267335 G-vectors     FFT dimensions: (  40, 120, 128)

     Smooth grid:    94373 G-vectors     FFT dimensions: (  27,  90,  90)

     Dynamical RAM for                 wfc:       4.87 MB

     Dynamical RAM for     wfc (w. buffer):      14.60 MB

     Dynamical RAM for           str. fact:       2.04 MB

     Dynamical RAM for           local pot:       0.00 MB

     Dynamical RAM for          nlocal pot:      14.06 MB

     Dynamical RAM for                qrad:       3.21 MB

     Dynamical RAM for          rho,v,vnew:       6.58 MB

     Dynamical RAM for               rhoin:       2.19 MB

     Dynamical RAM for            rho*nmix:      16.32 MB

     Dynamical RAM for           G-vectors:       4.00 MB

     Dynamical RAM for          h,s,v(r/c):       2.14 MB

     Dynamical RAM for          <psi|beta>:       0.51 MB

     Dynamical RAM for                 psi:       9.73 MB

     Dynamical RAM for                hpsi:       9.73 MB

     Dynamical RAM for                spsi:       9.73 MB

     Dynamical RAM for      wfcinit/wfcrot:      14.62 MB

     Dynamical RAM for           addusdens:      26.13 MB

     Dynamical RAM for          addusforce:      28.60 MB

     Estimated static dynamical RAM per process >      55.60 MB

     Estimated max dynamical RAM per process >     103.76 MB

     Estimated total dynamical RAM >       2.80 GB

     Check: negative core charge=   -0.000002

     Initial potential from superposition of free atoms

     starting charge     215.9553, renormalised to     216.0000
     Starting wfcs are  156 randomized atomic wfcs

     total cpu time spent up to now is        9.1 secs

     Self-consistent Calculation

     iteration #  1     ecut=    50.00 Ry     beta= 0.30
     Davidson diagonalization with overlap

---- Real-time Memory Report at c_bands before calling an iterative solver
           105 MiB given to the printing process from OS
             0 MiB allocation reported by mallinfo(arena+hblkhd)
         77658 MiB available memory on the node where the printing process lives
------------------
     ethr =  1.00E-02,  avg # of iterations =  2.0

     total cpu time spent up to now is       13.8 secs

     total energy              =   -2168.87653470 Ry
     estimated scf accuracy    <       4.14486984 Ry

     iteration #  2     ecut=    50.00 Ry     beta= 0.30
     Davidson diagonalization with overlap

---- Real-time Memory Report at c_bands before calling an iterative solver
           127 MiB given to the printing process from OS
             0 MiB allocation reported by mallinfo(arena+hblkhd)
         76962 MiB available memory on the node where the printing process lives
------------------
     ethr =  1.92E-03,  avg # of iterations =  2.0

     total cpu time spent up to now is       19.5 secs

     total energy              =   -2169.47855798 Ry
     estimated scf accuracy    <       0.52574703 Ry

     iteration #  3     ecut=    50.00 Ry     beta= 0.30
     Davidson diagonalization with overlap

---- Real-time Memory Report at c_bands before calling an iterative solver
           131 MiB given to the printing process from OS
             0 MiB allocation reported by mallinfo(arena+hblkhd)
         76983 MiB available memory on the node where the printing process lives
------------------
     ethr =  2.43E-04,  avg # of iterations =  7.2

     total cpu time spent up to now is       29.5 secs

     total energy              =   -2169.67497421 Ry
     estimated scf accuracy    <       0.32618261 Ry

     iteration #  4     ecut=    50.00 Ry     beta= 0.30
     Davidson diagonalization with overlap

---- Real-time Memory Report at c_bands before calling an iterative solver
           132 MiB given to the printing process from OS
             0 MiB allocation reported by mallinfo(arena+hblkhd)
         77040 MiB available memory on the node where the printing process lives
------------------
     ethr =  1.51E-04,  avg # of iterations =  8.5

     total cpu time spent up to now is       41.9 secs

     total energy              =   -2169.86392475 Ry
     estimated scf accuracy    <       1.22911505 Ry

     iteration #  5     ecut=    50.00 Ry     beta= 0.30
     Davidson diagonalization with overlap

---- Real-time Memory Report at c_bands before calling an iterative solver
           132 MiB given to the printing process from OS
             0 MiB allocation reported by mallinfo(arena+hblkhd)
         77041 MiB available memory on the node where the printing process lives
------------------
     ethr =  1.51E-04,  avg # of iterations =  2.0

     total cpu time spent up to now is       46.7 secs

     total energy              =   -2169.36482832 Ry
     estimated scf accuracy    <       0.66979062 Ry

     iteration #  6     ecut=    50.00 Ry     beta= 0.30
     Davidson diagonalization with overlap

---- Real-time Memory Report at c_bands before calling an iterative solver
           133 MiB given to the printing process from OS
             0 MiB allocation reported by mallinfo(arena+hblkhd)
         77036 MiB available memory on the node where the printing process lives
------------------
     ethr =  1.51E-04,  avg # of iterations = 11.1

     total cpu time spent up to now is       61.3 secs

     total energy              =   -2169.07698395 Ry
     estimated scf accuracy    <       7.46964791 Ry

     iteration #  7     ecut=    50.00 Ry     beta= 0.30
     Davidson diagonalization with overlap

---- Real-time Memory Report at c_bands before calling an iterative solver
           134 MiB given to the printing process from OS
             0 MiB allocation reported by mallinfo(arena+hblkhd)
         77032 MiB available memory on the node where the printing process lives
------------------
     ethr =  1.51E-04,  avg # of iterations = 10.3

     total cpu time spent up to now is       74.4 secs

     total energy              =   -2169.81288317 Ry
     estimated scf accuracy    <       0.39390617 Ry

     iteration #  8     ecut=    50.00 Ry     beta= 0.30
     Davidson diagonalization with overlap

---- Real-time Memory Report at c_bands before calling an iterative solver
           135 MiB given to the printing process from OS
             0 MiB allocation reported by mallinfo(arena+hblkhd)
         77031 MiB available memory on the node where the printing process lives
------------------
     ethr =  1.51E-04,  avg # of iterations =  2.0

     total cpu time spent up to now is       79.1 secs

     total energy              =   -2169.80709128 Ry
     estimated scf accuracy    <       0.22278994 Ry

     iteration #  9     ecut=    50.00 Ry     beta= 0.30
     Davidson diagonalization with overlap

---- Real-time Memory Report at c_bands before calling an iterative solver
           135 MiB given to the printing process from OS
             0 MiB allocation reported by mallinfo(arena+hblkhd)
         77030 MiB available memory on the node where the printing process lives
------------------
     ethr =  1.03E-04,  avg # of iterations =  2.0

     total cpu time spent up to now is       83.9 secs

     total energy              =   -2169.77118830 Ry
     estimated scf accuracy    <       0.14095159 Ry

     iteration # 10     ecut=    50.00 Ry     beta= 0.30
     Davidson diagonalization with overlap

---- Real-time Memory Report at c_bands before calling an iterative solver
           136 MiB given to the printing process from OS
             0 MiB allocation reported by mallinfo(arena+hblkhd)
         77022 MiB available memory on the node where the printing process lives
------------------
     ethr =  6.53E-05,  avg # of iterations =  5.0

     total cpu time spent up to now is       91.2 secs

     total energy              =   -2169.81677122 Ry
     estimated scf accuracy    <       0.00031226 Ry

     iteration # 11     ecut=    50.00 Ry     beta= 0.30
     Davidson diagonalization with overlap

---- Real-time Memory Report at c_bands before calling an iterative solver
           137 MiB given to the printing process from OS
             0 MiB allocation reported by mallinfo(arena+hblkhd)
         77021 MiB available memory on the node where the printing process lives
------------------
     c_bands:  1 eigenvalues not converged
     c_bands:  1 eigenvalues not converged
     ethr =  1.45E-07,  avg # of iterations = 15.9

     total cpu time spent up to now is      108.6 secs

     total energy              =   -2169.82124977 Ry
     estimated scf accuracy    <       0.00232126 Ry

     iteration # 12     ecut=    50.00 Ry     beta= 0.30
     Davidson diagonalization with overlap

---- Real-time Memory Report at c_bands before calling an iterative solver
           137 MiB given to the printing process from OS
             0 MiB allocation reported by mallinfo(arena+hblkhd)
         77022 MiB available memory on the node where the printing process lives
------------------
     ethr =  1.45E-07,  avg # of iterations =  5.4

     total cpu time spent up to now is      116.1 secs

     total energy              =   -2169.82076261 Ry
     estimated scf accuracy    <       0.00075537 Ry

     iteration # 13     ecut=    50.00 Ry     beta= 0.30
     Davidson diagonalization with overlap

---- Real-time Memory Report at c_bands before calling an iterative solver
           137 MiB given to the printing process from OS
             0 MiB allocation reported by mallinfo(arena+hblkhd)
         77022 MiB available memory on the node where the printing process lives
------------------
     ethr =  1.45E-07,  avg # of iterations = 11.3

     total cpu time spent up to now is      131.0 secs

     total energy              =   -2169.82169984 Ry
     estimated scf accuracy    <       0.00393183 Ry

     iteration # 14     ecut=    50.00 Ry     beta= 0.30
     Davidson diagonalization with overlap

---- Real-time Memory Report at c_bands before calling an iterative solver
           137 MiB given to the printing process from OS
             0 MiB allocation reported by mallinfo(arena+hblkhd)
         77022 MiB available memory on the node where the printing process lives
------------------
     ethr =  1.45E-07,  avg # of iterations =  2.3

     total cpu time spent up to now is      136.3 secs

     total energy              =   -2169.82088303 Ry
     estimated scf accuracy    <       0.00265252 Ry

     iteration # 15     ecut=    50.00 Ry     beta= 0.30
     Davidson diagonalization with overlap

---- Real-time Memory Report at c_bands before calling an iterative solver
           137 MiB given to the printing process from OS
             0 MiB allocation reported by mallinfo(arena+hblkhd)
         77021 MiB available memory on the node where the printing process lives
------------------
     ethr =  1.45E-07,  avg # of iterations =  7.8

     total cpu time spent up to now is      147.7 secs

     total energy              =   -2169.82135598 Ry
     estimated scf accuracy    <       0.00006176 Ry

     iteration # 16     ecut=    50.00 Ry     beta= 0.30
     Davidson diagonalization with overlap

---- Real-time Memory Report at c_bands before calling an iterative solver
           137 MiB given to the printing process from OS
             0 MiB allocation reported by mallinfo(arena+hblkhd)
         77021 MiB available memory on the node where the printing process lives
------------------
     ethr =  2.86E-08,  avg # of iterations =  2.9

     total cpu time spent up to now is      153.1 secs

     total energy              =   -2169.82136657 Ry
     estimated scf accuracy    <       0.00011711 Ry

     iteration # 17     ecut=    50.00 Ry     beta= 0.30
     Davidson diagonalization with overlap

---- Real-time Memory Report at c_bands before calling an iterative solver
           137 MiB given to the printing process from OS
             0 MiB allocation reported by mallinfo(arena+hblkhd)
         77021 MiB available memory on the node where the printing process lives
------------------
     ethr =  2.86E-08,  avg # of iterations =  1.7

     total cpu time spent up to now is      157.7 secs

     total energy              =   -2169.82135540 Ry
     estimated scf accuracy    <       0.00013820 Ry

     iteration # 18     ecut=    50.00 Ry     beta= 0.30
     Davidson diagonalization with overlap

---- Real-time Memory Report at c_bands before calling an iterative solver
           137 MiB given to the printing process from OS
             0 MiB allocation reported by mallinfo(arena+hblkhd)
         77021 MiB available memory on the node where the printing process lives
------------------
     ethr =  2.86E-08,  avg # of iterations =  1.0

     total cpu time spent up to now is      161.9 secs

     total energy              =   -2169.82128076 Ry
     estimated scf accuracy    <       0.00011843 Ry

     iteration # 19     ecut=    50.00 Ry     beta= 0.30
     Davidson diagonalization with overlap

---- Real-time Memory Report at c_bands before calling an iterative solver
           137 MiB given to the printing process from OS
             0 MiB allocation reported by mallinfo(arena+hblkhd)
         77021 MiB available memory on the node where the printing process lives
------------------
     ethr =  2.86E-08,  avg # of iterations =  8.2

     total cpu time spent up to now is      172.6 secs

     total energy              =   -2169.82132809 Ry
     estimated scf accuracy    <       0.00004634 Ry

     iteration # 20     ecut=    50.00 Ry     beta= 0.30
     Davidson diagonalization with overlap

---- Real-time Memory Report at c_bands before calling an iterative solver
           137 MiB given to the printing process from OS
             0 MiB allocation reported by mallinfo(arena+hblkhd)
         77021 MiB available memory on the node where the printing process lives
------------------
     ethr =  2.15E-08,  avg # of iterations =  1.3

     total cpu time spent up to now is      177.1 secs

     total energy              =   -2169.82132605 Ry
     estimated scf accuracy    <       0.00002315 Ry

     iteration # 21     ecut=    50.00 Ry     beta= 0.30
     Davidson diagonalization with overlap

---- Real-time Memory Report at c_bands before calling an iterative solver
           137 MiB given to the printing process from OS
             0 MiB allocation reported by mallinfo(arena+hblkhd)
         77020 MiB available memory on the node where the printing process lives
------------------
     ethr =  1.07E-08,  avg # of iterations =  2.0

     total cpu time spent up to now is      182.0 secs

     total energy              =   -2169.82132023 Ry
     estimated scf accuracy    <       0.00001244 Ry

     iteration # 22     ecut=    50.00 Ry     beta= 0.30
     Davidson diagonalization with overlap

---- Real-time Memory Report at c_bands before calling an iterative solver
           137 MiB given to the printing process from OS
             0 MiB allocation reported by mallinfo(arena+hblkhd)
         77020 MiB available memory on the node where the printing process lives
------------------
     ethr =  5.76E-09,  avg # of iterations =  6.6

     total cpu time spent up to now is      191.8 secs

     total energy              =   -2169.82132780 Ry
     estimated scf accuracy    <       0.00000646 Ry

     iteration # 23     ecut=    50.00 Ry     beta= 0.30
     Davidson diagonalization with overlap

---- Real-time Memory Report at c_bands before calling an iterative solver
           137 MiB given to the printing process from OS
             0 MiB allocation reported by mallinfo(arena+hblkhd)
         77020 MiB available memory on the node where the printing process lives
------------------
     ethr =  2.99E-09,  avg # of iterations =  1.7

     total cpu time spent up to now is      196.4 secs

     total energy              =   -2169.82132550 Ry
     estimated scf accuracy    <       0.00000366 Ry

     iteration # 24     ecut=    50.00 Ry     beta= 0.30
     Davidson diagonalization with overlap

---- Real-time Memory Report at c_bands before calling an iterative solver
           137 MiB given to the printing process from OS
             0 MiB allocation reported by mallinfo(arena+hblkhd)
         77020 MiB available memory on the node where the printing process lives
------------------
     ethr =  1.70E-09,  avg # of iterations =  6.3

     total cpu time spent up to now is      206.1 secs

     total energy              =   -2169.82132722 Ry
     estimated scf accuracy    <       0.00000260 Ry

     iteration # 25     ecut=    50.00 Ry     beta= 0.30
     Davidson diagonalization with overlap

---- Real-time Memory Report at c_bands before calling an iterative solver
           137 MiB given to the printing process from OS
             0 MiB allocation reported by mallinfo(arena+hblkhd)
         77020 MiB available memory on the node where the printing process lives
------------------
     ethr =  1.20E-09,  avg # of iterations =  2.0

     total cpu time spent up to now is      210.8 secs

     total energy              =   -2169.82132670 Ry
     estimated scf accuracy    <       0.00000083 Ry

     iteration # 26     ecut=    50.00 Ry     beta= 0.30
     Davidson diagonalization with overlap

---- Real-time Memory Report at c_bands before calling an iterative solver
           137 MiB given to the printing process from OS
             0 MiB allocation reported by mallinfo(arena+hblkhd)
         77020 MiB available memory on the node where the printing process lives
------------------
     ethr =  3.86E-10,  avg # of iterations =  8.7

     total cpu time spent up to now is      222.8 secs

     total energy              =   -2169.82132771 Ry
     estimated scf accuracy    <       0.00000300 Ry

     iteration # 27     ecut=    50.00 Ry     beta= 0.30
     Davidson diagonalization with overlap

---- Real-time Memory Report at c_bands before calling an iterative solver
           137 MiB given to the printing process from OS
             0 MiB allocation reported by mallinfo(arena+hblkhd)
         77020 MiB available memory on the node where the printing process lives
------------------
     ethr =  3.86E-10,  avg # of iterations =  1.4

     total cpu time spent up to now is      227.4 secs

     total energy              =   -2169.82132714 Ry
     estimated scf accuracy    <       0.00000192 Ry

     iteration # 28     ecut=    50.00 Ry     beta= 0.30
     Davidson diagonalization with overlap

---- Real-time Memory Report at c_bands before calling an iterative solver
           137 MiB given to the printing process from OS
             0 MiB allocation reported by mallinfo(arena+hblkhd)
         77020 MiB available memory on the node where the printing process lives
------------------
     ethr =  3.86E-10,  avg # of iterations =  4.2

     total cpu time spent up to now is      234.5 secs

     total energy              =   -2169.82132743 Ry
     estimated scf accuracy    <       0.00000012 Ry

     iteration # 29     ecut=    50.00 Ry     beta= 0.30
     Davidson diagonalization with overlap

---- Real-time Memory Report at c_bands before calling an iterative solver
           137 MiB given to the printing process from OS
             0 MiB allocation reported by mallinfo(arena+hblkhd)
         77020 MiB available memory on the node where the printing process lives
------------------
     ethr =  5.45E-11,  avg # of iterations =  6.1

     total cpu time spent up to now is      241.8 secs

     total energy              =   -2169.82132745 Ry
     estimated scf accuracy    <       0.00000006 Ry

     iteration # 30     ecut=    50.00 Ry     beta= 0.30
     Davidson diagonalization with overlap

---- Real-time Memory Report at c_bands before calling an iterative solver
           137 MiB given to the printing process from OS
             0 MiB allocation reported by mallinfo(arena+hblkhd)
         77020 MiB available memory on the node where the printing process lives
------------------
     ethr =  2.67E-11,  avg # of iterations =  3.2

     total cpu time spent up to now is      247.5 secs

     total energy              =   -2169.82132743 Ry
     estimated scf accuracy    <       0.00000003 Ry

     iteration # 31     ecut=    50.00 Ry     beta= 0.30
     Davidson diagonalization with overlap

---- Real-time Memory Report at c_bands before calling an iterative solver
           137 MiB given to the printing process from OS
             0 MiB allocation reported by mallinfo(arena+hblkhd)
         77020 MiB available memory on the node where the printing process lives
------------------
     ethr =  1.44E-11,  avg # of iterations =  7.8

     total cpu time spent up to now is      258.3 secs

     total energy              =   -2169.82132746 Ry
     estimated scf accuracy    <       0.00000003 Ry

     iteration # 32     ecut=    50.00 Ry     beta= 0.30
     Davidson diagonalization with overlap

---- Real-time Memory Report at c_bands before calling an iterative solver
           137 MiB given to the printing process from OS
             0 MiB allocation reported by mallinfo(arena+hblkhd)
         77020 MiB available memory on the node where the printing process lives
------------------
     ethr =  1.44E-11,  avg # of iterations =  1.4

     total cpu time spent up to now is      262.8 secs

     total energy              =   -2169.82132745 Ry
     estimated scf accuracy    <       0.00000002 Ry

     iteration # 33     ecut=    50.00 Ry     beta= 0.30
     Davidson diagonalization with overlap

---- Real-time Memory Report at c_bands before calling an iterative solver
           137 MiB given to the printing process from OS
             0 MiB allocation reported by mallinfo(arena+hblkhd)
         77020 MiB available memory on the node where the printing process lives
------------------
     ethr =  1.11E-11,  avg # of iterations =  2.7

     total cpu time spent up to now is      268.2 secs

     End of self-consistent calculation

          k = 0.0000 0.0000 0.0000 ( 11795 PWs)   bands (ev):

   -10.9985 -10.6675 -10.6674 -10.5470 -10.5470 -10.3487 -10.3487 -10.3487
   -10.3486 -10.3182 -10.1575 -10.1574   0.9620   0.9620   0.9620   0.9620
     1.0419   1.0419   1.1297   1.1297   1.3159   1.3159   1.3565   1.3780
     1.3780   1.3852   1.3852   1.3852   1.3852   1.4392   1.5014   1.5014
     1.5196   1.5196   1.6841   1.6841   1.6841   1.6842   1.6874   1.6874
     1.6874   1.6874   1.7197   1.7197   1.9005   1.9005   2.0312   2.0312
     2.3484   2.3484   2.4282   2.4282   2.4988   2.4988   2.5468   2.5468
     2.5468   2.5468   2.5702   2.5702   2.5702   2.5702   2.5851   2.5851
     2.5851   2.5851   2.6248   2.6248   2.6552   2.6552   2.8131   2.8131
     2.8918   3.0838   3.0838   3.7941   3.7941   3.8758   3.8758   3.8758
     3.8758   4.6506   4.6506   4.6601   4.6601   5.0972   5.0972   5.5303
     5.5303   5.5303   5.5303   5.7224   5.7224   5.7224   5.7224   6.0931
     6.0931   6.1251   6.1251   6.3016   6.3016   6.5108   6.5108   6.5108
     6.5108   6.8049   6.8873   6.8873

     occupation numbers 
     1.0000   1.0000   1.0000   1.0000   1.0000   1.0000   1.0000   1.0000
     1.0000   1.0000   1.0000   1.0000   1.0000   1.0000   1.0000   1.0000
     1.0000   1.0000   1.0000   1.0000   1.0000   1.0000   1.0000   1.0000
     1.0000   1.0000   1.0000   1.0000   1.0000   1.0000   1.0000   1.0000
     1.0000   1.0000   1.0000   1.0000   1.0000   1.0000   1.0000   1.0000
     1.0000   1.0000   1.0000   1.0000   1.0000   1.0000   1.0000   1.0000
     1.0000   1.0000   1.0000   1.0000   1.0000   1.0000   1.0000   1.0000
     1.0000   1.0000   1.0000   1.0000   1.0000   1.0000   1.0000   1.0000
     1.0000   1.0000   1.0000   1.0000   1.0000   1.0000   1.0000   1.0000
     1.0000   1.0000   1.0000   1.0000   1.0000   1.0000   1.0000   1.0000
     1.0000   1.0000   1.0000   1.0000   1.0000   1.0000   1.0000   1.0000
     1.0000   1.0000   1.0000   1.0000   1.0000   1.0000   1.0000   1.0000
     1.0000   1.0000   1.0000   1.0000   1.0000   1.0000   1.0000   1.0000
     1.0000   1.0000   1.0000   1.0000

          k = 0.0000 0.0000 0.1032 ( 11753 PWs)   bands (ev):

   -10.9551 -10.8352 -10.5201 -10.5201 -10.4952 -10.4471 -10.4471 -10.3661
   -10.2520 -10.2520 -10.1825 -10.1825   0.9559   0.9559   1.0114   1.0114
     1.0906   1.0906   1.1614   1.2062   1.2878   1.2878   1.3102   1.3169
     1.3225   1.3225   1.3451   1.3451   1.4366   1.4366   1.4826   1.4826
     1.5395   1.5395   1.5967   1.5967   1.6674   1.6674   1.6945   1.6945
     1.7583   1.7583   1.7846   1.7846   1.8679   1.8679   1.8969   1.8969
     2.3853   2.3853   2.4460   2.4460   2.4787   2.4787   2.4918   2.4918
     2.5083   2.5083   2.5339   2.5339   2.5918   2.5918   2.6097   2.6097
     2.6172   2.6172   2.6425   2.6425   2.6819   2.6819   2.7606   2.7606
     3.2007   3.3424   3.3424   3.6415   3.6415   3.8753   3.9351   3.9351
     4.0473   4.0473   4.6229   4.6229   4.9084   4.9084   5.1856   5.1856
     5.4185   5.4185   5.4566   5.9793   5.9793   6.0154   6.0154   6.1085
     6.1085   6.1772   6.1772   6.2254   6.2255   6.2430   6.3189   6.3189
     6.7003   6.7003   6.8374   6.8374

     occupation numbers 
     1.0000   1.0000   1.0000   1.0000   1.0000   1.0000   1.0000   1.0000
     1.0000   1.0000   1.0000   1.0000   1.0000   1.0000   1.0000   1.0000
     1.0000   1.0000   1.0000   1.0000   1.0000   1.0000   1.0000   1.0000
     1.0000   1.0000   1.0000   1.0000   1.0000   1.0000   1.0000   1.0000
     1.0000   1.0000   1.0000   1.0000   1.0000   1.0000   1.0000   1.0000
     1.0000   1.0000   1.0000   1.0000   1.0000   1.0000   1.0000   1.0000
     1.0000   1.0000   1.0000   1.0000   1.0000   1.0000   1.0000   1.0000
     1.0000   1.0000   1.0000   1.0000   1.0000   1.0000   1.0000   1.0000
     1.0000   1.0000   1.0000   1.0000   1.0000   1.0000   1.0000   1.0000
     1.0000   1.0000   1.0000   1.0000   1.0000   1.0000   1.0000   1.0000
     1.0000   1.0000   1.0000   1.0000   1.0000   1.0000   1.0000   1.0000
     1.0000   1.0000   1.0000   1.0000   1.0000   1.0000   1.0000   1.0000
     1.0000   1.0000   1.0000   1.0000   1.0000   1.0000   1.0000   1.0000
     1.0000   1.0000   1.0000   1.0000

          k = 0.0000-0.1925 0.0000 ( 11762 PWs)   bands (ev):

   -10.8594 -10.8593 -10.5637 -10.5637 -10.5637 -10.5636 -10.3493 -10.2581
   -10.2581 -10.2372 -10.2371 -10.1407   0.9527   0.9527   1.0549   1.0549
     1.0549   1.0549   1.1141   1.1787   1.1787   1.3230   1.3939   1.3939
     1.4175   1.4175   1.4698   1.4698   1.4698   1.4698   1.4827   1.4827
     1.4827   1.4827   1.4978   1.4978   1.5609   1.6182   1.6182   1.6647
     1.6647   1.7821   1.7821   1.8586   1.8587   1.9413   1.9538   2.0753
     2.3719   2.3719   2.4269   2.4269   2.4642   2.5440   2.5440   2.5440
     2.5440   2.5485   2.5485   2.5485   2.5485   2.5909   2.6133   2.6133
     2.6358   2.6358   2.6705   2.6978   2.6978   2.7418   2.7479   2.7479
     2.8614   2.8614   3.1878   3.1878   3.2047   3.4268   4.1406   4.6007
     4.6007   4.6007   4.6007   4.7139   5.2256   5.2257   5.4385   5.4385
     5.5539   5.5539   5.6402   5.7793   5.7793   5.7885   5.7885   5.9119
     5.9119   5.9120   5.9120   6.0830   6.2537   6.2537   6.2537   6.2537
     6.6256   6.6256   6.7030   6.7030

     occupation numbers 
     1.0000   1.0000   1.0000   1.0000   1.0000   1.0000   1.0000   1.0000
     1.0000   1.0000   1.0000   1.0000   1.0000   1.0000   1.0000   1.0000
     1.0000   1.0000   1.0000   1.0000   1.0000   1.0000   1.0000   1.0000
     1.0000   1.0000   1.0000   1.0000   1.0000   1.0000   1.0000   1.0000
     1.0000   1.0000   1.0000   1.0000   1.0000   1.0000   1.0000   1.0000
     1.0000   1.0000   1.0000   1.0000   1.0000   1.0000   1.0000   1.0000
     1.0000   1.0000   1.0000   1.0000   1.0000   1.0000   1.0000   1.0000
     1.0000   1.0000   1.0000   1.0000   1.0000   1.0000   1.0000   1.0000
     1.0000   1.0000   1.0000   1.0000   1.0000   1.0000   1.0000   1.0000
     1.0000   1.0000   1.0000   1.0000   1.0000   1.0000   1.0000   1.0000
     1.0000   1.0000   1.0000   1.0000   1.0000   1.0000   1.0000   1.0000
     1.0000   1.0000   1.0000   1.0000   1.0000   1.0000   1.0000   1.0000
     1.0000   1.0000   1.0000   1.0000   1.0000   1.0000   1.0000   1.0000
     1.0000   1.0000   1.0000   1.0000

          k = 0.0000-0.1925 0.1032 ( 11768 PWs)   bands (ev):

   -10.8203 -10.8203 -10.7128 -10.7128 -10.4121 -10.4121 -10.3335 -10.2996
   -10.2996 -10.2914 -10.1868 -10.1526   0.9826   1.0471   1.0697   1.0820
     1.0820   1.1443   1.1443   1.1496   1.1496   1.2255   1.3367   1.3367
     1.4035   1.4035   1.4331   1.4332   1.4425   1.4425   1.4548   1.4548
     1.5221   1.5221   1.5437   1.5437   1.5871   1.5905   1.5905   1.5969
     1.5969   1.6641   1.8687   1.8803   1.9133   1.9178   1.9195   2.0308
     2.4014   2.4014   2.4440   2.4440   2.4695   2.4695   2.4884   2.4884
     2.5266   2.5930   2.5935   2.5935   2.6003   2.6172   2.6172   2.6255
     2.6256   2.6268   2.6330   2.6574   2.6725   2.6725   2.7318   2.7411
     3.1456   3.1660   3.2560   3.2560   3.2754   3.3761   3.9343   3.9343
     4.4237   4.8200   5.0141   5.0927   5.1229   5.1229   5.2750   5.2750
     5.5974   5.5974   5.6314   5.6315   5.7267   5.7659   5.7927   5.8520
     5.8520   5.9987   6.0234   6.0234   6.2837   6.2837   6.4800   6.4800
     6.5472   6.5472   6.6436   6.6436

     occupation numbers 
     1.0000   1.0000   1.0000   1.0000   1.0000   1.0000   1.0000   1.0000
     1.0000   1.0000   1.0000   1.0000   1.0000   1.0000   1.0000   1.0000
     1.0000   1.0000   1.0000   1.0000   1.0000   1.0000   1.0000   1.0000
     1.0000   1.0000   1.0000   1.0000   1.0000   1.0000   1.0000   1.0000
     1.0000   1.0000   1.0000   1.0000   1.0000   1.0000   1.0000   1.0000
     1.0000   1.0000   1.0000   1.0000   1.0000   1.0000   1.0000   1.0000
     1.0000   1.0000   1.0000   1.0000   1.0000   1.0000   1.0000   1.0000
     1.0000   1.0000   1.0000   1.0000   1.0000   1.0000   1.0000   1.0000
     1.0000   1.0000   1.0000   1.0000   1.0000   1.0000   1.0000   1.0000
     1.0000   1.0000   1.0000   1.0000   1.0000   1.0000   1.0000   1.0000
     1.0000   1.0000   1.0000   1.0000   1.0000   1.0000   1.0000   1.0000
     1.0000   1.0000   1.0000   1.0000   1.0000   1.0000   1.0000   1.0000
     1.0000   1.0000   1.0000   1.0000   1.0000   1.0000   1.0000   1.0000
     1.0000   1.0000   1.0000   1.0000

          k = 0.1667 0.0962 0.0000 ( 11805 PWs)   bands (ev):

   -10.8593 -10.6322 -10.5637 -10.5637 -10.4039 -10.4038 -10.3567 -10.2581
   -10.2391 -10.2391 -10.1782 -10.1367   1.0209   1.0209   1.0549   1.0549
     1.0856   1.0857   1.1448   1.1787   1.2098   1.3347   1.3939   1.4175
     1.4530   1.4698   1.4698   1.4827   1.4827   1.4978   1.5272   1.5328
     1.5328   1.5839   1.5845   1.6182   1.6623   1.6623   1.6647   1.6781
     1.6781   1.7926   1.8373   1.8597   1.8597   1.9688   2.0460   2.1149
     2.3226   2.3719   2.4055   2.4269   2.4473   2.4731   2.5440   2.5440
     2.5485   2.5485   2.5519   2.5519   2.5532   2.5532   2.5835   2.5835
     2.6358   2.6485   2.6836   2.7390   2.7390   2.7479   2.8199   2.8614
     2.8732   3.0203   3.0747   3.4275   3.4275   3.6813   4.1030   4.2135
     4.2135   4.4220   4.4227   4.6007   4.6007   4.6354   4.9299   4.9299
     5.2257   5.2290   5.5301   5.5301   5.6135   5.6422   5.6423   5.7236
     5.7236   5.7793   5.7885   5.7975   5.9119   5.9120   6.2536   6.2537
     6.2537   6.2863   6.6256   6.7030

     occupation numbers 
     1.0000   1.0000   1.0000   1.0000   1.0000   1.0000   1.0000   1.0000
     1.0000   1.0000   1.0000   1.0000   1.0000   1.0000   1.0000   1.0000
     1.0000   1.0000   1.0000   1.0000   1.0000   1.0000   1.0000   1.0000
     1.0000   1.0000   1.0000   1.0000   1.0000   1.0000   1.0000   1.0000
     1.0000   1.0000   1.0000   1.0000   1.0000   1.0000   1.0000   1.0000
     1.0000   1.0000   1.0000   1.0000   1.0000   1.0000   1.0000   1.0000
     1.0000   1.0000   1.0000   1.0000   1.0000   1.0000   1.0000   1.0000
     1.0000   1.0000   1.0000   1.0000   1.0000   1.0000   1.0000   1.0000
     1.0000   1.0000   1.0000   1.0000   1.0000   1.0000   1.0000   1.0000
     1.0000   1.0000   1.0000   1.0000   1.0000   1.0000   1.0000   1.0000
     1.0000   1.0000   1.0000   1.0000   1.0000   1.0000   1.0000   1.0000
     1.0000   1.0000   1.0000   1.0000   1.0000   1.0000   1.0000   1.0000
     1.0000   1.0000   1.0000   1.0000   1.0000   1.0000   1.0000   1.0000
     1.0000   1.0000   1.0000   1.0000

          k = 0.1667 0.0962 0.1032 ( 11800 PWs)   bands (ev):

   -10.8203 -10.7128 -10.6016 -10.5179 -10.4121 -10.3402 -10.2996 -10.2962
   -10.2905 -10.2082 -10.1859 -10.1495   1.0368   1.0820   1.1038   1.1086
     1.1268   1.1443   1.1496   1.1780   1.1968   1.2850   1.3367   1.3762
     1.4035   1.4331   1.4425   1.4548   1.5169   1.5188   1.5221   1.5381
     1.5437   1.5573   1.5637   1.5839   1.5905   1.5969   1.6853   1.7338
     1.7417   1.7730   1.8092   1.8094   1.8904   1.9133   1.9824   2.0290
     2.3643   2.4014   2.4172   2.4440   2.4609   2.4695   2.4789   2.4884
     2.4958   2.5183   2.5393   2.5677   2.5935   2.6056   2.6172   2.6256
     2.6364   2.6725   2.6725   2.6804   2.6913   2.7501   2.8116   2.8696
     3.1154   3.2560   3.2568   3.3752   3.5916   3.6971   3.8659   3.9343
     4.2091   4.4657   4.5350   4.5551   4.6101   4.6168   4.9825   5.0817
     5.1229   5.2328   5.2750   5.3664   5.3813   5.5972   5.5974   5.6315
     5.7986   5.8447   5.8520   5.9570   6.0234   6.0904   6.1732   6.2738
     6.2837   6.4800   6.5472   6.6436

     occupation numbers 
     1.0000   1.0000   1.0000   1.0000   1.0000   1.0000   1.0000   1.0000
     1.0000   1.0000   1.0000   1.0000   1.0000   1.0000   1.0000   1.0000
     1.0000   1.0000   1.0000   1.0000   1.0000   1.0000   1.0000   1.0000
     1.0000   1.0000   1.0000   1.0000   1.0000   1.0000   1.0000   1.0000
     1.0000   1.0000   1.0000   1.0000   1.0000   1.0000   1.0000   1.0000
     1.0000   1.0000   1.0000   1.0000   1.0000   1.0000   1.0000   1.0000
     1.0000   1.0000   1.0000   1.0000   1.0000   1.0000   1.0000   1.0000
     1.0000   1.0000   1.0000   1.0000   1.0000   1.0000   1.0000   1.0000
     1.0000   1.0000   1.0000   1.0000   1.0000   1.0000   1.0000   1.0000
     1.0000   1.0000   1.0000   1.0000   1.0000   1.0000   1.0000   1.0000
     1.0000   1.0000   1.0000   1.0000   1.0000   1.0000   1.0000   1.0000
     1.0000   1.0000   1.0000   1.0000   1.0000   1.0000   1.0000   1.0000
     1.0000   1.0000   1.0000   1.0000   1.0000   1.0000   1.0000   1.0000
     1.0000   1.0000   1.0000   1.0000

          k = 0.3333 0.1925 0.0000 ( 11855 PWs)   bands (ev):

   -10.5470 -10.5470 -10.3487 -10.3487 -10.3487 -10.3486 -10.1943 -10.1943
   -10.1849 -10.1849 -10.1575 -10.1574   0.9620   0.9620   0.9620   0.9620
     1.0419   1.0419   1.2800   1.3212   1.3212   1.3780   1.3780   1.5196
     1.5196   1.5305   1.5305   1.6688   1.6688   1.6841   1.6841   1.6841
     1.6842   1.6874   1.6874   1.6874   1.6874   1.7197   1.7197   1.9005
     1.9005   2.0258   2.0312   2.0312   2.0556   2.0556   2.2690   2.2690
     2.3484   2.3484   2.3627   2.4346   2.4346   2.4858   2.4988   2.4988
     2.5316   2.5316   2.5702   2.5702   2.5702   2.5702   2.5851   2.5851
     2.5851   2.5851   2.6552   2.6552   2.8131   2.8131   2.9255   2.9255
     3.0838   3.0838   3.2410   3.2429   3.2429   3.4120   3.4120   3.7941
     3.7941   3.8758   3.8758   3.8758   3.8758   4.2827   4.2827   4.6506
     4.6506   5.0283   5.0283   5.0972   5.0972   5.2182   5.5303   5.5303
     5.5303   5.5303   5.6818   5.6818   5.7224   5.7224   5.7224   5.7224
     6.0931   6.0931   6.3016   6.3016

     occupation numbers 
     1.0000   1.0000   1.0000   1.0000   1.0000   1.0000   1.0000   1.0000
     1.0000   1.0000   1.0000   1.0000   1.0000   1.0000   1.0000   1.0000
     1.0000   1.0000   1.0000   1.0000   1.0000   1.0000   1.0000   1.0000
     1.0000   1.0000   1.0000   1.0000   1.0000   1.0000   1.0000   1.0000
     1.0000   1.0000   1.0000   1.0000   1.0000   1.0000   1.0000   1.0000
     1.0000   1.0000   1.0000   1.0000   1.0000   1.0000   1.0000   1.0000
     1.0000   1.0000   1.0000   1.0000   1.0000   1.0000   1.0000   1.0000
     1.0000   1.0000   1.0000   1.0000   1.0000   1.0000   1.0000   1.0000
     1.0000   1.0000   1.0000   1.0000   1.0000   1.0000   1.0000   1.0000
     1.0000   1.0000   1.0000   1.0000   1.0000   1.0000   1.0000   1.0000
     1.0000   1.0000   1.0000   1.0000   1.0000   1.0000   1.0000   1.0000
     1.0000   1.0000   1.0000   1.0000   1.0000   1.0000   1.0000   1.0000
     1.0000   1.0000   1.0000   1.0000   1.0000   1.0000   1.0000   1.0000
     1.0000   1.0000   1.0000   1.0000

          k = 0.3333 0.1925 0.1032 ( 11798 PWs)   bands (ev):

   -10.5201 -10.5201 -10.4471 -10.4471 -10.2520 -10.2519 -10.1920 -10.1919
   -10.1872 -10.1872 -10.1825 -10.1825   0.9559   0.9559   1.0114   1.0114
     1.0906   1.0906   1.2878   1.2878   1.3081   1.3917   1.4031   1.4031
     1.5395   1.5395   1.5787   1.5787   1.5967   1.5967   1.6674   1.6674
     1.6945   1.6945   1.7170   1.7583   1.7583   1.7846   1.7846   1.8679
     1.8679   1.8969   1.8969   1.9187   2.0771   2.0771   2.1585   2.1585
     2.3793   2.3853   2.3853   2.4064   2.4607   2.4787   2.4787   2.4792
     2.5083   2.5083   2.5339   2.5339   2.6097   2.6097   2.6425   2.6425
     2.6812   2.6812   2.6819   2.6819   2.7606   2.7606   2.8530   2.8530
     3.2872   3.2873   3.3424   3.3424   3.3685   3.3685   3.4090   3.6415
     3.6415   3.8035   3.9351   3.9351   4.0473   4.0473   4.6229   4.6229
     4.7452   4.9084   4.9084   5.0893   5.1856   5.1856   5.1982   5.1982
     5.4185   5.4185   5.5234   5.5234   5.9793   5.9793   6.0154   6.0154
     6.1085   6.1085   6.2254   6.2254

     occupation numbers 
     1.0000   1.0000   1.0000   1.0000   1.0000   1.0000   1.0000   1.0000
     1.0000   1.0000   1.0000   1.0000   1.0000   1.0000   1.0000   1.0000
     1.0000   1.0000   1.0000   1.0000   1.0000   1.0000   1.0000   1.0000
     1.0000   1.0000   1.0000   1.0000   1.0000   1.0000   1.0000   1.0000
     1.0000   1.0000   1.0000   1.0000   1.0000   1.0000   1.0000   1.0000
     1.0000   1.0000   1.0000   1.0000   1.0000   1.0000   1.0000   1.0000
     1.0000   1.0000   1.0000   1.0000   1.0000   1.0000   1.0000   1.0000
     1.0000   1.0000   1.0000   1.0000   1.0000   1.0000   1.0000   1.0000
     1.0000   1.0000   1.0000   1.0000   1.0000   1.0000   1.0000   1.0000
     1.0000   1.0000   1.0000   1.0000   1.0000   1.0000   1.0000   1.0000
     1.0000   1.0000   1.0000   1.0000   1.0000   1.0000   1.0000   1.0000
     1.0000   1.0000   1.0000   1.0000   1.0000   1.0000   1.0000   1.0000
     1.0000   1.0000   1.0000   1.0000   1.0000   1.0000   1.0000   1.0000
     1.0000   1.0000   1.0000   1.0000

          k = 0.3333-0.0000 0.0000 ( 11837 PWs)   bands (ev):

   -10.6322 -10.4039 -10.4038 -10.3567 -10.3567 -10.2391 -10.2391 -10.2391
   -10.2391 -10.1782 -10.1367 -10.1367   1.0209   1.0209   1.0856   1.0856
     1.0857   1.0857   1.1448   1.2098   1.2098   1.3347   1.4530   1.4530
     1.5272   1.5328   1.5328   1.5839   1.5839   1.5845   1.6623   1.6623
     1.6623   1.6623   1.6781   1.6781   1.7926   1.7926   1.8373   1.8597
     1.8597   1.8597   1.8597   1.9688   2.0460   2.0460   2.1149   2.1149
     2.3226   2.4055   2.4055   2.4473   2.4731   2.4731   2.5519   2.5519
     2.5532   2.5532   2.5532   2.5532   2.5835   2.5835   2.6485   2.6836
     2.6836   2.7390   2.7390   2.7390   2.7390   2.8199   2.8732   2.8732
     3.0203   3.0747   3.0747   3.4275   3.4275   3.4275   3.4275   3.6813
     3.6813   4.1030   4.1030   4.2135   4.2135   4.4220   4.4220   4.4227
     4.6354   4.9299   4.9299   4.9299   4.9299   5.2290   5.5301   5.5301
     5.6135   5.6135   5.6422   5.6423   5.6423   5.6423   5.7236   5.7236
     5.7975   5.7975   6.2536   6.2863

     occupation numbers 
     1.0000   1.0000   1.0000   1.0000   1.0000   1.0000   1.0000   1.0000
     1.0000   1.0000   1.0000   1.0000   1.0000   1.0000   1.0000   1.0000
     1.0000   1.0000   1.0000   1.0000   1.0000   1.0000   1.0000   1.0000
     1.0000   1.0000   1.0000   1.0000   1.0000   1.0000   1.0000   1.0000
     1.0000   1.0000   1.0000   1.0000   1.0000   1.0000   1.0000   1.0000
     1.0000   1.0000   1.0000   1.0000   1.0000   1.0000   1.0000   1.0000
     1.0000   1.0000   1.0000   1.0000   1.0000   1.0000   1.0000   1.0000
     1.0000   1.0000   1.0000   1.0000   1.0000   1.0000   1.0000   1.0000
     1.0000   1.0000   1.0000   1.0000   1.0000   1.0000   1.0000   1.0000
     1.0000   1.0000   1.0000   1.0000   1.0000   1.0000   1.0000   1.0000
     1.0000   1.0000   1.0000   1.0000   1.0000   1.0000   1.0000   1.0000
     1.0000   1.0000   1.0000   1.0000   1.0000   1.0000   1.0000   1.0000
     1.0000   1.0000   1.0000   1.0000   1.0000   1.0000   1.0000   1.0000
     1.0000   1.0000   1.0000   1.0000

          k = 0.3333-0.0000 0.1032 ( 11848 PWs)   bands (ev):

   -10.6016 -10.5179 -10.3402 -10.3402 -10.2962 -10.2962 -10.2905 -10.2082
   -10.1859 -10.1859 -10.1495 -10.1495   1.0368   1.1038   1.1038   1.1086
     1.1268   1.1780   1.1780   1.1968   1.1968   1.2850   1.3762   1.3762
     1.5169   1.5188   1.5381   1.5573   1.5637   1.5637   1.5839   1.5839
     1.6853   1.7338   1.7338   1.7417   1.7730   1.7730   1.8092   1.8094
     1.8904   1.8904   1.9133   1.9133   1.9824   1.9824   2.0290   2.0290
     2.3643   2.4172   2.4172   2.4609   2.4789   2.4958   2.4958   2.5183
     2.5393   2.5393   2.5677   2.5677   2.6056   2.6364   2.6725   2.6804
     2.6804   2.6913   2.6913   2.7501   2.8116   2.8116   2.8696   2.8696
     3.1154   3.1154   3.2568   3.2568   3.3752   3.5916   3.5916   3.6971
     3.6971   3.8659   4.2091   4.2091   4.4657   4.5350   4.5350   4.5551
     4.6101   4.6168   4.6168   4.9825   5.0817   5.0817   5.2328   5.3664
     5.3813   5.3813   5.5972   5.5972   5.7986   5.7986   5.8447   5.8447
     5.9570   6.0904   6.1732   6.2738

     occupation numbers 
     1.0000   1.0000   1.0000   1.0000   1.0000   1.0000   1.0000   1.0000
     1.0000   1.0000   1.0000   1.0000   1.0000   1.0000   1.0000   1.0000
     1.0000   1.0000   1.0000   1.0000   1.0000   1.0000   1.0000   1.0000
     1.0000   1.0000   1.0000   1.0000   1.0000   1.0000   1.0000   1.0000
     1.0000   1.0000   1.0000   1.0000   1.0000   1.0000   1.0000   1.0000
     1.0000   1.0000   1.0000   1.0000   1.0000   1.0000   1.0000   1.0000
     1.0000   1.0000   1.0000   1.0000   1.0000   1.0000   1.0000   1.0000
     1.0000   1.0000   1.0000   1.0000   1.0000   1.0000   1.0000   1.0000
     1.0000   1.0000   1.0000   1.0000   1.0000   1.0000   1.0000   1.0000
     1.0000   1.0000   1.0000   1.0000   1.0000   1.0000   1.0000   1.0000
     1.0000   1.0000   1.0000   1.0000   1.0000   1.0000   1.0000   1.0000
     1.0000   1.0000   1.0000   1.0000   1.0000   1.0000   1.0000   1.0000
     1.0000   1.0000   1.0000   1.0000   1.0000   1.0000   1.0000   1.0000
     1.0000   1.0000   1.0000   1.0000

          k =-0.5000-0.2887 0.0000 ( 11826 PWs)   bands (ev):

   -10.3567 -10.3567 -10.3493 -10.2391 -10.2391 -10.2391 -10.2391 -10.2372
   -10.2371 -10.1407 -10.1367 -10.1367   0.9527   0.9527   1.0856   1.0856
     1.0857   1.0857   1.1141   1.2098   1.2098   1.3230   1.4530   1.4530
     1.5609   1.5839   1.5839   1.6623   1.6623   1.6623   1.6623   1.7821
     1.7821   1.7926   1.7926   1.8586   1.8587   1.8597   1.8597   1.8597
     1.8597   1.9413   1.9538   2.0460   2.0460   2.0753   2.1149   2.1149
     2.4055   2.4055   2.4642   2.4731   2.4731   2.5532   2.5532   2.5532
     2.5532   2.5909   2.6133   2.6133   2.6705   2.6836   2.6836   2.6978
     2.6978   2.7390   2.7390   2.7390   2.7390   2.7418   2.8732   2.8732
     3.0747   3.0747   3.1878   3.1878   3.2047   3.4268   3.4275   3.4275
     3.4275   3.4275   3.6813   3.6813   4.1030   4.1030   4.1406   4.4220
     4.4220   4.7139   4.9299   4.9299   4.9299   4.9299   5.4385   5.4385
     5.5539   5.5539   5.6135   5.6135   5.6402   5.6422   5.6423   5.6423
     5.6423   5.7975   5.7975   6.0830

     occupation numbers 
     1.0000   1.0000   1.0000   1.0000   1.0000   1.0000   1.0000   1.0000
     1.0000   1.0000   1.0000   1.0000   1.0000   1.0000   1.0000   1.0000
     1.0000   1.0000   1.0000   1.0000   1.0000   1.0000   1.0000   1.0000
     1.0000   1.0000   1.0000   1.0000   1.0000   1.0000   1.0000   1.0000
     1.0000   1.0000   1.0000   1.0000   1.0000   1.0000   1.0000   1.0000
     1.0000   1.0000   1.0000   1.0000   1.0000   1.0000   1.0000   1.0000
     1.0000   1.0000   1.0000   1.0000   1.0000   1.0000   1.0000   1.0000
     1.0000   1.0000   1.0000   1.0000   1.0000   1.0000   1.0000   1.0000
     1.0000   1.0000   1.0000   1.0000   1.0000   1.0000   1.0000   1.0000
     1.0000   1.0000   1.0000   1.0000   1.0000   1.0000   1.0000   1.0000
     1.0000   1.0000   1.0000   1.0000   1.0000   1.0000   1.0000   1.0000
     1.0000   1.0000   1.0000   1.0000   1.0000   1.0000   1.0000   1.0000
     1.0000   1.0000   1.0000   1.0000   1.0000   1.0000   1.0000   1.0000
     1.0000   1.0000   1.0000   1.0000

          k =-0.5000-0.2887 0.1032 ( 11864 PWs)   bands (ev):

   -10.3402 -10.3402 -10.3335 -10.2962 -10.2962 -10.2914 -10.1868 -10.1859
   -10.1859 -10.1526 -10.1495 -10.1495   0.9826   1.0471   1.0697   1.1038
     1.1038   1.1780   1.1780   1.1968   1.1968   1.2255   1.3762   1.3762
     1.5637   1.5637   1.5839   1.5839   1.5871   1.6641   1.7338   1.7338
     1.7730   1.7730   1.8687   1.8803   1.8904   1.8904   1.9133   1.9133
     1.9133   1.9178   1.9195   1.9824   1.9824   2.0290   2.0290   2.0308
     2.4172   2.4172   2.4958   2.4958   2.5266   2.5393   2.5393   2.5677
     2.5677   2.5930   2.6003   2.6268   2.6330   2.6574   2.6804   2.6804
     2.6913   2.6913   2.7318   2.7411   2.8116   2.8116   2.8696   2.8696
     3.1154   3.1154   3.1456   3.1660   3.2568   3.2568   3.2754   3.3761
     3.5916   3.5916   3.6971   3.6971   4.2091   4.2091   4.4237   4.5350
     4.5350   4.6168   4.6168   4.8200   5.0141   5.0817   5.0817   5.0927
     5.3813   5.3813   5.5972   5.5972   5.7267   5.7659   5.7927   5.7986
     5.7986   5.8447   5.8447   5.9987

     occupation numbers 
     1.0000   1.0000   1.0000   1.0000   1.0000   1.0000   1.0000   1.0000
     1.0000   1.0000   1.0000   1.0000   1.0000   1.0000   1.0000   1.0000
     1.0000   1.0000   1.0000   1.0000   1.0000   1.0000   1.0000   1.0000
     1.0000   1.0000   1.0000   1.0000   1.0000   1.0000   1.0000   1.0000
     1.0000   1.0000   1.0000   1.0000   1.0000   1.0000   1.0000   1.0000
     1.0000   1.0000   1.0000   1.0000   1.0000   1.0000   1.0000   1.0000
     1.0000   1.0000   1.0000   1.0000   1.0000   1.0000   1.0000   1.0000
     1.0000   1.0000   1.0000   1.0000   1.0000   1.0000   1.0000   1.0000
     1.0000   1.0000   1.0000   1.0000   1.0000   1.0000   1.0000   1.0000
     1.0000   1.0000   1.0000   1.0000   1.0000   1.0000   1.0000   1.0000
     1.0000   1.0000   1.0000   1.0000   1.0000   1.0000   1.0000   1.0000
     1.0000   1.0000   1.0000   1.0000   1.0000   1.0000   1.0000   1.0000
     1.0000   1.0000   1.0000   1.0000   1.0000   1.0000   1.0000   1.0000
     1.0000   1.0000   1.0000   1.0000

          k =-0.1667 0.0962-0.1032 ( 11800 PWs)   bands (ev):

   -10.8203 -10.7128 -10.6016 -10.5179 -10.4121 -10.3402 -10.2996 -10.2962
   -10.2905 -10.2082 -10.1859 -10.1495   1.0368   1.0820   1.1038   1.1086
     1.1268   1.1443   1.1496   1.1780   1.1968   1.2850   1.3367   1.3762
     1.4035   1.4331   1.4425   1.4548   1.5169   1.5188   1.5221   1.5381
     1.5437   1.5573   1.5637   1.5839   1.5905   1.5969   1.6853   1.7338
     1.7417   1.7730   1.8092   1.8094   1.8904   1.9133   1.9824   2.0290
     2.3643   2.4014   2.4172   2.4440   2.4609   2.4695   2.4789   2.4884
     2.4958   2.5183   2.5393   2.5677   2.5935   2.6056   2.6172   2.6256
     2.6364   2.6725   2.6725   2.6804   2.6913   2.7501   2.8116   2.8696
     3.1154   3.2560   3.2568   3.3752   3.5916   3.6971   3.8659   3.9343
     4.2091   4.4657   4.5350   4.5551   4.6101   4.6168   4.9825   5.0817
     5.1229   5.2328   5.2750   5.3664   5.3813   5.5972   5.5974   5.6314
     5.7986   5.8447   5.8520   5.9570   6.0234   6.0904   6.1732   6.2738
     6.2837   6.4800   6.5472   6.6436

     occupation numbers 
     1.0000   1.0000   1.0000   1.0000   1.0000   1.0000   1.0000   1.0000
     1.0000   1.0000   1.0000   1.0000   1.0000   1.0000   1.0000   1.0000
     1.0000   1.0000   1.0000   1.0000   1.0000   1.0000   1.0000   1.0000
     1.0000   1.0000   1.0000   1.0000   1.0000   1.0000   1.0000   1.0000
     1.0000   1.0000   1.0000   1.0000   1.0000   1.0000   1.0000   1.0000
     1.0000   1.0000   1.0000   1.0000   1.0000   1.0000   1.0000   1.0000
     1.0000   1.0000   1.0000   1.0000   1.0000   1.0000   1.0000   1.0000
     1.0000   1.0000   1.0000   1.0000   1.0000   1.0000   1.0000   1.0000
     1.0000   1.0000   1.0000   1.0000   1.0000   1.0000   1.0000   1.0000
     1.0000   1.0000   1.0000   1.0000   1.0000   1.0000   1.0000   1.0000
     1.0000   1.0000   1.0000   1.0000   1.0000   1.0000   1.0000   1.0000
     1.0000   1.0000   1.0000   1.0000   1.0000   1.0000   1.0000   1.0000
     1.0000   1.0000   1.0000   1.0000   1.0000   1.0000   1.0000   1.0000
     1.0000   1.0000   1.0000   1.0000

     highest occupied level (ev):     6.8873

!    total energy              =   -2169.82132745 Ry
     estimated scf accuracy    <          5.2E-09 Ry

     The total energy is the sum of the following terms:
     one-electron contribution =    -927.15157697 Ry
     hartree contribution      =     709.73545411 Ry
     xc contribution           =    -657.27681267 Ry
     ewald contribution        =   -1295.12839192 Ry

     convergence has been achieved in  33 iterations

     Forces acting on atoms (cartesian axes, Ry/au):

     atom    1 type  1   force =     0.00000000    0.00000245    0.00006206
     atom    2 type  1   force =     0.00000000    0.00000352    0.00005622
     atom    3 type  2   force =     0.00000000   -0.00000123   -0.00006028
     atom    4 type  2   force =     0.00000000   -0.00000027   -0.00006382
     atom    5 type  1   force =     0.00000000   -0.00000053    0.00006209
     atom    6 type  1   force =     0.00000000    0.00000131    0.00006467
     atom    7 type  2   force =     0.00000000   -0.00000120   -0.00006025
     atom    8 type  2   force =     0.00000000   -0.00000002   -0.00006057
     atom    9 type  1   force =     0.00000000   -0.00000013    0.00006201
     atom   10 type  1   force =     0.00000000   -0.00000369    0.00005651
     atom   11 type  2   force =     0.00000000   -0.00000144   -0.00006132
     atom   12 type  2   force =     0.00000000    0.00000042   -0.00006450
     atom   13 type  1   force =     0.00000000    0.00000044    0.00006333
     atom   14 type  1   force =     0.00000000    0.00000048    0.00006457
     atom   15 type  2   force =     0.00000000   -0.00000024   -0.00006069
     atom   16 type  2   force =     0.00000000   -0.00000079   -0.00006050
     atom   17 type  1   force =     0.00000000   -0.00000103    0.00006250
     atom   18 type  1   force =     0.00000000   -0.00000242    0.00005566
     atom   19 type  2   force =     0.00000000    0.00000154   -0.00006189
     atom   20 type  2   force =     0.00000000    0.00000116   -0.00006447
     atom   21 type  1   force =     0.00000000    0.00000039    0.00006116
     atom   22 type  1   force =     0.00000000   -0.00000197    0.00006788
     atom   23 type  2   force =     0.00000000    0.00000097   -0.00006107
     atom   24 type  2   force =     0.00000000    0.00000227   -0.00005929
     The non-local contrib.  to forces
     atom    1 type  1   force =     0.00000000    0.00000254   -0.00482975
     atom    2 type  1   force =     0.00000000    0.00000638   -0.00483808
     atom    3 type  2   force =     0.00000000   -0.00000149    0.00575202
     atom    4 type  2   force =     0.00000000   -0.00000078    0.00575358
     atom    5 type  1   force =     0.00000000    0.00000055   -0.00483245
     atom    6 type  1   force =     0.00000000    0.00000272   -0.00483105
     atom    7 type  2   force =     0.00000000   -0.00000098    0.00575627
     atom    8 type  2   force =     0.00000000   -0.00000010    0.00575319
     atom    9 type  1   force =     0.00000000    0.00000117   -0.00483033
     atom   10 type  1   force =     0.00000000   -0.00000333   -0.00483863
     atom   11 type  2   force =     0.00000000   -0.00000042    0.00575229
     atom   12 type  2   force =     0.00000000    0.00000140    0.00575337
     atom   13 type  1   force =     0.00000000    0.00000242   -0.00483046
     atom   14 type  1   force =     0.00000000    0.00000165   -0.00483072
     atom   15 type  2   force =     0.00000000   -0.00000046    0.00575592
     atom   16 type  2   force =     0.00000000   -0.00000032    0.00575212
     atom   17 type  1   force =     0.00000000   -0.00000208   -0.00482876
     atom   18 type  1   force =     0.00000000   -0.00000314   -0.00483792
     atom   19 type  2   force =     0.00000000    0.00000062    0.00575099
     atom   20 type  2   force =     0.00000000    0.00000015    0.00575288
     atom   21 type  1   force =     0.00000000   -0.00000243   -0.00483488
     atom   22 type  1   force =     0.00000000   -0.00000446   -0.00482822
     atom   23 type  2   force =     0.00000000   -0.00000024    0.00575631
     atom   24 type  2   force =     0.00000000    0.00000028    0.00575257
     The ionic contribution  to forces
     atom    1 type  1   force =     0.00000000    0.00000001    0.06271747
     atom    2 type  1   force =    -0.00000000    0.00000001    0.06271747
     atom    3 type  2   force =     0.00000000    0.00000000   -0.06271747
     atom    4 type  2   force =    -0.00000000    0.00000001   -0.06271747
     atom    5 type  1   force =     0.00000000    0.00000001    0.06271747
     atom    6 type  1   force =    -0.00000000    0.00000001    0.06271747
     atom    7 type  2   force =     0.00000000    0.00000000   -0.06271747
     atom    8 type  2   force =    -0.00000000    0.00000001   -0.06271747
     atom    9 type  1   force =    -0.00000001    0.00000001    0.06271747
     atom   10 type  1   force =     0.00000001   -0.00000001    0.06271747
     atom   11 type  2   force =    -0.00000000    0.00000000   -0.06271747
     atom   12 type  2   force =     0.00000000   -0.00000000   -0.06271747
     atom   13 type  1   force =    -0.00000001    0.00000001    0.06271747
     atom   14 type  1   force =     0.00000001   -0.00000001    0.06271747
     atom   15 type  2   force =    -0.00000000    0.00000000   -0.06271747
     atom   16 type  2   force =     0.00000000   -0.00000000   -0.06271747
     atom   17 type  1   force =     0.00000000   -0.00000001    0.06271747
     atom   18 type  1   force =    -0.00000000   -0.00000001    0.06271747
     atom   19 type  2   force =     0.00000000   -0.00000001   -0.06271747
     atom   20 type  2   force =    -0.00000000   -0.00000000   -0.06271747
     atom   21 type  1   force =     0.00000000   -0.00000001    0.06271747
     atom   22 type  1   force =    -0.00000000   -0.00000001    0.06271747
     atom   23 type  2   force =     0.00000000   -0.00000001   -0.06271747
     atom   24 type  2   force =    -0.00000000   -0.00000000   -0.06271747
     The local contribution  to forces
     atom    1 type  1   force =    -0.00000004   -0.00000560   -0.05829482
     atom    2 type  1   force =     0.00000000   -0.00001299   -0.05827576
     atom    3 type  2   force =    -0.00000001   -0.00000213    0.05696296
     atom    4 type  2   force =     0.00000000   -0.00000176    0.05696112
     atom    5 type  1   force =    -0.00000004    0.00000126   -0.05828934
     atom    6 type  1   force =     0.00000000   -0.00000590   -0.05829230
     atom    7 type  2   force =    -0.00000001   -0.00000330    0.05696675
     atom    8 type  2   force =     0.00000000   -0.00000019    0.05696339
     atom    9 type  1   force =    -0.00000009   -0.00000184   -0.05829401
     atom   10 type  1   force =     0.00000009    0.00000834   -0.05827442
     atom   11 type  2   force =    -0.00000002   -0.00000262    0.05696166
     atom   12 type  2   force =     0.00000002    0.00000146    0.05696085
     atom   13 type  1   force =    -0.00000009   -0.00000477   -0.05829503
     atom   14 type  1   force =     0.00000009   -0.00000234   -0.05829325
     atom   15 type  2   force =    -0.00000002   -0.00000023    0.05696572
     atom   16 type  2   force =     0.00000002   -0.00000086    0.05696526
     atom   17 type  1   force =    -0.00000000    0.00000529   -0.05829758
     atom   18 type  1   force =     0.00000004    0.00000587   -0.05827500
     atom   19 type  2   force =    -0.00000000    0.00000234    0.05696045
     atom   20 type  2   force =     0.00000001    0.00000243    0.05696065
     atom   21 type  1   force =    -0.00000000    0.00000303   -0.05828485
     atom   22 type  1   force =     0.00000004    0.00000843   -0.05829923
     atom   23 type  2   force =    -0.00000000    0.00000296    0.05696686
     atom   24 type  2   force =     0.00000001    0.00000433    0.05696627
     The core correction contribution to forces
     atom    1 type  1   force =    -0.00000001    0.00000005    0.00046415
     atom    2 type  1   force =    -0.00000000    0.00000020    0.00046377
     atom    3 type  2   force =     0.00000000    0.00000002   -0.00006500
     atom    4 type  2   force =    -0.00000000    0.00000001   -0.00006504
     atom    5 type  1   force =    -0.00000001   -0.00000016    0.00046402
     atom    6 type  1   force =    -0.00000000    0.00000011    0.00046396
     atom    7 type  2   force =     0.00000000    0.00000001   -0.00006506
     atom    8 type  2   force =    -0.00000000    0.00000001   -0.00006502
     atom    9 type  1   force =    -0.00000001    0.00000006    0.00046421
     atom   10 type  1   force =     0.00000001   -0.00000017    0.00046370
     atom   11 type  2   force =     0.00000000    0.00000000   -0.00006501
     atom   12 type  2   force =    -0.00000000   -0.00000002   -0.00006503
     atom   13 type  1   force =    -0.00000001    0.00000013    0.00046423
     atom   14 type  1   force =     0.00000001   -0.00000002    0.00046402
     atom   15 type  2   force =     0.00000000    0.00000000   -0.00006506
     atom   16 type  2   force =    -0.00000000    0.00000000   -0.00006500
     atom   17 type  1   force =     0.00000000   -0.00000016    0.00046429
     atom   18 type  1   force =     0.00000001    0.00000002    0.00046372
     atom   19 type  2   force =     0.00000000   -0.00000001   -0.00006499
     atom   20 type  2   force =    -0.00000000   -0.00000000   -0.00006502
     atom   21 type  1   force =     0.00000000    0.00000004    0.00046399
     atom   22 type  1   force =     0.00000001   -0.00000010    0.00046404
     atom   23 type  2   force =     0.00000000    0.00000000   -0.00006506
     atom   24 type  2   force =    -0.00000000    0.00000000   -0.00006501
     The Hubbard contrib.    to forces
     atom    1 type  1   force =     0.00000000    0.00000000    0.00000000
     atom    2 type  1   force =     0.00000000    0.00000000    0.00000000
     atom    3 type  2   force =     0.00000000    0.00000000    0.00000000
     atom    4 type  2   force =     0.00000000    0.00000000    0.00000000
     atom    5 type  1   force =     0.00000000    0.00000000    0.00000000
     atom    6 type  1   force =     0.00000000    0.00000000    0.00000000
     atom    7 type  2   force =     0.00000000    0.00000000    0.00000000
     atom    8 type  2   force =     0.00000000    0.00000000    0.00000000
     atom    9 type  1   force =     0.00000000    0.00000000    0.00000000
     atom   10 type  1   force =     0.00000000    0.00000000    0.00000000
     atom   11 type  2   force =     0.00000000    0.00000000    0.00000000
     atom   12 type  2   force =     0.00000000    0.00000000    0.00000000
     atom   13 type  1   force =     0.00000000    0.00000000    0.00000000
     atom   14 type  1   force =     0.00000000    0.00000000    0.00000000
     atom   15 type  2   force =     0.00000000    0.00000000    0.00000000
     atom   16 type  2   force =     0.00000000    0.00000000    0.00000000
     atom   17 type  1   force =     0.00000000    0.00000000    0.00000000
     atom   18 type  1   force =     0.00000000    0.00000000    0.00000000
     atom   19 type  2   force =     0.00000000    0.00000000    0.00000000
     atom   20 type  2   force =     0.00000000    0.00000000    0.00000000
     atom   21 type  1   force =     0.00000000    0.00000000    0.00000000
     atom   22 type  1   force =     0.00000000    0.00000000    0.00000000
     atom   23 type  2   force =     0.00000000    0.00000000    0.00000000
     atom   24 type  2   force =     0.00000000    0.00000000    0.00000000
     The SCF correction term to forces
     atom    1 type  1   force =     0.00000000    0.00000538    0.00000285
     atom    2 type  1   force =    -0.00000000    0.00000982   -0.00001334
     atom    3 type  2   force =     0.00000000    0.00000229    0.00000507
     atom    4 type  2   force =     0.00000000    0.00000216    0.00000184
     atom    5 type  1   force =     0.00000000   -0.00000228    0.00000024
     atom    6 type  1   force =    -0.00000000    0.00000428    0.00000443
     atom    7 type  2   force =     0.00000000    0.00000298   -0.00000288
     atom    8 type  2   force =     0.00000000    0.00000016    0.00000318
     atom    9 type  1   force =     0.00000000    0.00000038    0.00000251
     atom   10 type  1   force =    -0.00000000   -0.00000861   -0.00001377
     atom   11 type  2   force =     0.00000000    0.00000151    0.00000505
     atom   12 type  2   force =    -0.00000000   -0.00000251    0.00000162
     atom   13 type  1   force =     0.00000000    0.00000257    0.00000496
     atom   14 type  1   force =    -0.00000000    0.00000111    0.00000489
     atom   15 type  2   force =     0.00000000    0.00000035   -0.00000196
     atom   16 type  2   force =    -0.00000000    0.00000030    0.00000244
     atom   17 type  1   force =     0.00000000   -0.00000416    0.00000491
     atom   18 type  1   force =    -0.00000000   -0.00000525   -0.00001477
     atom   19 type  2   force =     0.00000000   -0.00000150    0.00000698
     atom   20 type  2   force =    -0.00000000   -0.00000149    0.00000235
     atom   21 type  1   force =     0.00000000   -0.00000033   -0.00000273
     atom   22 type  1   force =    -0.00000000   -0.00000593    0.00001166
     atom   23 type  2   force =     0.00000000   -0.00000184   -0.00000385
     atom   24 type  2   force =    -0.00000000   -0.00000243    0.00000220

     Total force =     0.000302     Total SCF correction =     0.000037
     SCF correction compared to forces is large: reduce conv_thr to get better values

     init_run     :      9.21s CPU      8.71s WALL (       1 calls)
     electrons    :    345.57s CPU    259.08s WALL (       1 calls)
     forces       :      5.07s CPU      4.56s WALL (       1 calls)

     Called by init_run:
     wfcinit      :      2.72s CPU      2.13s WALL (       1 calls)
     wfcinit:atom :      0.03s CPU      0.03s WALL (       2 calls)
     wfcinit:wfcr :      2.56s CPU      1.97s WALL (       2 calls)
     potinit      :      3.22s CPU      3.25s WALL (       1 calls)
     hinit0       :      2.72s CPU      2.75s WALL (       1 calls)

     Called by electrons:
     c_bands      :    301.89s CPU    220.94s WALL (      33 calls)
     sum_band     :     30.36s CPU     25.40s WALL (      33 calls)
     v_of_rho     :      7.31s CPU      7.53s WALL (      34 calls)
     v_h          :      0.44s CPU      0.48s WALL (      34 calls)
     v_xc         :      7.06s CPU      7.25s WALL (      35 calls)
     newd         :      4.48s CPU      3.87s WALL (      34 calls)
     mix_rho      :      1.26s CPU      1.09s WALL (      33 calls)

     Called by c_bands:
     init_us_2    :      1.43s CPU      1.28s WALL (     136 calls)
     init_us_2:cp :      1.43s CPU      1.28s WALL (     136 calls)
     cegterg      :    280.38s CPU    200.94s WALL (      66 calls)

     Called by sum_band:
     sum_band:wei :      0.01s CPU      0.01s WALL (      33 calls)
     sum_band:loo :     23.65s CPU     20.04s WALL (      33 calls)
     sum_band:buf :      0.26s CPU      0.22s WALL (      66 calls)
     sum_band:ini :      0.69s CPU      0.60s WALL (      66 calls)
     sum_band:cal :      7.00s CPU      3.62s WALL (      66 calls)
     sum_band:bec :      0.05s CPU      0.05s WALL (      66 calls)
     addusdens    :      5.05s CPU      3.69s WALL (      33 calls)
                                        0.00s GPU  (      33 calls)
     addusd:skk   :      0.11s CPU      0.09s WALL (      66 calls)
                                        0.00s GPU  (      66 calls)

     Called by *egterg:
     cdiaghg      :     24.74s CPU     18.31s WALL (     456 calls)
     cegterg:over :     24.13s CPU     12.81s WALL (     390 calls)
     cegterg:upda :     14.45s CPU      7.57s WALL (     390 calls)
     cegterg:last :     35.73s CPU     18.78s WALL (     220 calls)
     h_psi        :    150.42s CPU    127.25s WALL (     458 calls)
     s_psi        :     25.25s CPU     13.09s WALL (     458 calls)
     g_psi        :      0.68s CPU      0.57s WALL (     390 calls)

     Called by h_psi:
     h_psi:calbec :     24.46s CPU     13.26s WALL (     458 calls)
     vloc_psi     :     99.72s CPU     99.99s WALL (     458 calls)
     add_vuspsi   :     25.54s CPU     13.36s WALL (     458 calls)

     General routines
     calbec       :     32.32s CPU     17.32s WALL (     532 calls)
     fft          :      4.13s CPU      4.45s WALL (     451 calls)
     ffts         :      0.38s CPU      0.40s WALL (      67 calls)
     fftw         :     96.82s CPU     96.53s WALL (   56324 calls)
     interpolate  :      0.55s CPU      0.60s WALL (      34 calls)

     Parallel routines

     PWSCF        :   6m 0.80s CPU   4m33.32s WALL


   This run was terminated on:  21: 7:31  19Jul2025            

=------------------------------------------------------------------------------=
   JOB DONE.
=------------------------------------------------------------------------------=
Note: The following floating-point exceptions are signalling: IEEE_INVALID_FLAG
Note: The following floating-point exceptions are signalling: IEEE_INVALID_FLAG
Note: The following floating-point exceptions are signalling: IEEE_INVALID_FLAG
Note: The following floating-point exceptions are signalling: IEEE_INVALID_FLAG
Note: The following floating-point exceptions are signalling: IEEE_INVALID_FLAG
Note: The following floating-point exceptions are signalling: IEEE_INVALID_FLAG
Note: The following floating-point exceptions are signalling: IEEE_INVALID_FLAG
Note: The following floating-point exceptions are signalling: IEEE_INVALID_FLAG
