Authorization required, but no authorization protocol specified

Authorization required, but no authorization protocol specified

Authorization required, but no authorization protocol specified

Authorization required, but no authorization protocol specified

Authorization required, but no authorization protocol specified

Authorization required, but no authorization protocol specified

Authorization required, but no authorization protocol specified

Authorization required, but no authorization protocol specified

Authorization required, but no authorization protocol specified

Authorization required, but no authorization protocol specified


     Program PWSCF v.7.2 starts on 13Jun2025 at 17:58:40 

     This program is part of the open-source Quantum ESPRESSO suite
     for quantum simulation of materials; please cite
         "P. Giannozzi et al., J. Phys.:Condens. Matter 21 395502 (2009);
         "P. Giannozzi et al., J. Phys.:Condens. Matter 29 465901 (2017);
         "P. Giannozzi et al., J. Chem. Phys. 152 154105 (2020);
          URL http://www.quantum-espresso.org", 
     in publications or presentations arising from this work. More details at
     http://www.quantum-espresso.org/quote

     Parallel version (MPI), running on     8 processors

     MPI processes distributed on     1 nodes
     120705 MiB available memory on the printing compute node when the environment starts

     Reading input from /home/jvc/QEspresso7.2/ZnO_database_python/SCFs.in/scf-6.36-1.57.in

     Current dimensions of program PWSCF are:
     Max number of different atomic species (ntypx) = 10
     Max number of k-points (npk) =  40000
     Max angular momentum in pseudopotentials (lmaxx) =  4
     file Zn.upf: wavefunction(s)  3D renormalized

     R & G space division:  proc/nbgrp/npool/nimage =       8
     Subspace diagonalization in iterative solution of the eigenvalue problem:
     a serial algorithm will be used


     Parallelization info
     --------------------
     sticks:   dense  smooth     PW     G-vecs:    dense   smooth      PW
     Min         140      69     20                 5916     2089     348
     Max         141      70     21                 5919     2096     355
     Sum        1123     559    163                47337    16755    2803

     Using Slab Decomposition



     bravais-lattice index     =            4
     lattice parameter (alat)  =       6.3642  a.u.
     unit-cell volume          =     349.5674 (a.u.)^3
     number of atoms/cell      =            4
     number of atomic types    =            2
     number of electrons       =        36.00
     number of Kohn-Sham states=           18
     kinetic-energy cutoff     =      50.0000  Ry
     charge density cutoff     =     400.0000  Ry
     scf convergence threshold =      1.0E-08
     mixing beta               =       0.3000
     number of iterations used =            8  plain     mixing
     Exchange-correlation= PBE
                           (   1   4   3   4   0   0   0)

     celldm(1)=   6.364186  celldm(2)=   0.000000  celldm(3)=   1.565928
     celldm(4)=   0.000000  celldm(5)=   0.000000  celldm(6)=   0.000000

     crystal axes: (cart. coord. in units of alat)
               a(1) = (   1.000000   0.000000   0.000000 )  
               a(2) = (  -0.500000   0.866025   0.000000 )  
               a(3) = (   0.000000   0.000000   1.565928 )  

     reciprocal axes: (cart. coord. in units 2 pi/alat)
               b(1) = (  1.000000  0.577350 -0.000000 )  
               b(2) = (  0.000000  1.154701  0.000000 )  
               b(3) = (  0.000000 -0.000000  0.638599 )  


     PseudoPot. # 1 for Zn read from file:
     /home/jvc/QEspresso7.2/ZnO_database/pseudos/Zn.upf
     MD5 check sum: 7f56cabf9682ed8c977c2f7d0c5985c5
     Pseudo is Ultrasoft + core correction, Zval = 12.0
     Generated using &quot;atomic&quot; code by A. Dal Corso  v.6.2.2
     Using radial grid of 1201 points,  6 beta functions with: 
                l(1) =   0
                l(2) =   0
                l(3) =   1
                l(4) =   1
                l(5) =   2
                l(6) =   2
     Q(r) pseudized with 0 coefficients 


     PseudoPot. # 2 for O  read from file:
     /home/jvc/QEspresso7.2/ZnO_database/pseudos/O.upf
     MD5 check sum: 91400c9766925bcf19f520983a725ff0
     Pseudo is Ultrasoft + core correction, Zval =  6.0
     Generated using &quot;atomic&quot; code by A. Dal Corso  v.6.3MaX
     Using radial grid of 1095 points,  4 beta functions with: 
                l(1) =   0
                l(2) =   0
                l(3) =   1
                l(4) =   1
     Q(r) pseudized with 0 coefficients 


     atomic species   valence    mass     pseudopotential
        Zn            12.00    63.38000     Zn( 1.00)
        O              6.00    15.99900     O ( 1.00)

     12 Sym. Ops. (no inversion) found ( 6 have fractional translation)



   Cartesian axes

     site n.     atom                  positions (alat units)
         1           Zn  tau(   1) = (   0.5000000   0.2886751   0.7839560  )
         2           Zn  tau(   2) = (  -0.0000000   0.5773503   0.0009921  )
         3           O   tau(   3) = (   0.5000000   0.2886751   1.3775096  )
         4           O   tau(   4) = (  -0.0000000   0.5773503   0.5945458  )

     number of k points=    28
                       cart. coord. in units 2pi/alat
        k(    1) = (   0.0000000   0.0000000   0.0000000), wk =   0.0092593
        k(    2) = (   0.0000000   0.0000000   0.1064332), wk =   0.0185185
        k(    3) = (   0.0000000   0.0000000   0.2128664), wk =   0.0185185
        k(    4) = (   0.0000000   0.0000000  -0.3192996), wk =   0.0092593
        k(    5) = (   0.0000000   0.1924501   0.0000000), wk =   0.0555556
        k(    6) = (   0.0000000   0.1924501   0.1064332), wk =   0.1111111
        k(    7) = (   0.0000000   0.1924501   0.2128664), wk =   0.1111111
        k(    8) = (   0.0000000   0.1924501  -0.3192996), wk =   0.0555556
        k(    9) = (   0.0000000   0.3849002   0.0000000), wk =   0.0555556
        k(   10) = (   0.0000000   0.3849002   0.1064332), wk =   0.1111111
        k(   11) = (   0.0000000   0.3849002   0.2128664), wk =   0.1111111
        k(   12) = (   0.0000000   0.3849002  -0.3192996), wk =   0.0555556
        k(   13) = (   0.0000000  -0.5773503   0.0000000), wk =   0.0277778
        k(   14) = (   0.0000000  -0.5773503   0.1064332), wk =   0.0555556
        k(   15) = (   0.0000000  -0.5773503   0.2128664), wk =   0.0555556
        k(   16) = (   0.0000000  -0.5773503  -0.3192996), wk =   0.0277778
        k(   17) = (   0.1666667   0.2886751   0.0000000), wk =   0.0555556
        k(   18) = (   0.1666667   0.2886751   0.1064332), wk =   0.1111111
        k(   19) = (   0.1666667   0.2886751   0.2128664), wk =   0.1111111
        k(   20) = (   0.1666667   0.2886751  -0.3192996), wk =   0.0555556
        k(   21) = (   0.1666667   0.4811252   0.0000000), wk =   0.1111111
        k(   22) = (   0.1666667   0.4811252   0.1064332), wk =   0.2222222
        k(   23) = (   0.1666667   0.4811252   0.2128664), wk =   0.2222222
        k(   24) = (   0.1666667   0.4811252  -0.3192996), wk =   0.1111111
        k(   25) = (   0.3333333   0.5773503   0.0000000), wk =   0.0185185
        k(   26) = (   0.3333333   0.5773503   0.1064332), wk =   0.0370370
        k(   27) = (   0.3333333   0.5773503   0.2128664), wk =   0.0370370
        k(   28) = (   0.3333333   0.5773503  -0.3192996), wk =   0.0185185

     Dense  grid:    47337 G-vectors     FFT dimensions: (  45,  45,  64)

     Smooth grid:    16755 G-vectors     FFT dimensions: (  30,  30,  48)

     Estimated max dynamical RAM per process >      27.36 MB

     Estimated total dynamical RAM >     218.90 MB

     Check: negative core charge=   -0.000002

     Initial potential from superposition of free atoms

     starting charge      35.9925, renormalised to      36.0000
     Starting wfcs are   26 randomized atomic wfcs

     total cpu time spent up to now is        1.5 secs

     Self-consistent Calculation

     iteration #  1     ecut=    50.00 Ry     beta= 0.30
     Davidson diagonalization with overlap
     ethr =  1.00E-02,  avg # of iterations =  1.9

     total cpu time spent up to now is        2.4 secs

     total energy              =    -361.46539584 Ry
     estimated scf accuracy    <       0.71846794 Ry

     iteration #  2     ecut=    50.00 Ry     beta= 0.30
     Davidson diagonalization with overlap
     ethr =  2.00E-03,  avg # of iterations =  2.0

     total cpu time spent up to now is        3.4 secs

     total energy              =    -361.57407179 Ry
     estimated scf accuracy    <       0.08583633 Ry

     iteration #  3     ecut=    50.00 Ry     beta= 0.30
     Davidson diagonalization with overlap
     ethr =  2.38E-04,  avg # of iterations =  6.2

     total cpu time spent up to now is        5.1 secs

     total energy              =    -361.60109950 Ry
     estimated scf accuracy    <       0.06681623 Ry

     iteration #  4     ecut=    50.00 Ry     beta= 0.30
     Davidson diagonalization with overlap
     ethr =  1.86E-04,  avg # of iterations =  8.7

     total cpu time spent up to now is        7.1 secs

     total energy              =    -361.65612701 Ry
     estimated scf accuracy    <       0.32872376 Ry

     iteration #  5     ecut=    50.00 Ry     beta= 0.30
     Davidson diagonalization with overlap
     ethr =  1.86E-04,  avg # of iterations =  2.0

     total cpu time spent up to now is        8.0 secs

     total energy              =    -361.71688290 Ry
     estimated scf accuracy    <       0.20661715 Ry

     iteration #  6     ecut=    50.00 Ry     beta= 0.30
     Davidson diagonalization with overlap
     ethr =  1.86E-04,  avg # of iterations =  1.8

     total cpu time spent up to now is        8.9 secs

     total energy              =    -361.64306268 Ry
     estimated scf accuracy    <       0.30655189 Ry

     iteration #  7     ecut=    50.00 Ry     beta= 0.30
     Davidson diagonalization with overlap
     ethr =  1.86E-04,  avg # of iterations =  2.0

     total cpu time spent up to now is        9.7 secs

     total energy              =    -361.52584750 Ry
     estimated scf accuracy    <       0.17873749 Ry

     iteration #  8     ecut=    50.00 Ry     beta= 0.30
     Davidson diagonalization with overlap
     ethr =  1.86E-04,  avg # of iterations =  7.9

     total cpu time spent up to now is       11.7 secs

     total energy              =    -361.67337149 Ry
     estimated scf accuracy    <       0.24508785 Ry

     iteration #  9     ecut=    50.00 Ry     beta= 0.30
     Davidson diagonalization with overlap
     ethr =  1.86E-04,  avg # of iterations =  1.0

     total cpu time spent up to now is       12.5 secs

     total energy              =    -361.70617357 Ry
     estimated scf accuracy    <       0.19942587 Ry

     iteration # 10     ecut=    50.00 Ry     beta= 0.30
     Davidson diagonalization with overlap
     ethr =  1.86E-04,  avg # of iterations =  1.1

     total cpu time spent up to now is       13.3 secs

     total energy              =    -361.65685933 Ry
     estimated scf accuracy    <       0.26187929 Ry

     iteration # 11     ecut=    50.00 Ry     beta= 0.30
     Davidson diagonalization with overlap
     ethr =  1.86E-04,  avg # of iterations =  1.1

     total cpu time spent up to now is       14.1 secs

     total energy              =    -361.57741983 Ry
     estimated scf accuracy    <       0.17651889 Ry

     iteration # 12     ecut=    50.00 Ry     beta= 0.30
     Davidson diagonalization with overlap
     ethr =  1.86E-04,  avg # of iterations =  6.1

     total cpu time spent up to now is       15.8 secs

     total energy              =    -361.63198492 Ry
     estimated scf accuracy    <       0.00800555 Ry

     iteration # 13     ecut=    50.00 Ry     beta= 0.30
     Davidson diagonalization with overlap
     ethr =  2.22E-05,  avg # of iterations =  3.0

     total cpu time spent up to now is       16.7 secs

     total energy              =    -361.63787752 Ry
     estimated scf accuracy    <       0.00658705 Ry

     iteration # 14     ecut=    50.00 Ry     beta= 0.30
     Davidson diagonalization with overlap
     ethr =  1.83E-05,  avg # of iterations =  2.7

     total cpu time spent up to now is       17.7 secs

     total energy              =    -361.64071262 Ry
     estimated scf accuracy    <       0.01773499 Ry

     iteration # 15     ecut=    50.00 Ry     beta= 0.30
     Davidson diagonalization with overlap
     ethr =  1.83E-05,  avg # of iterations =  2.2

     total cpu time spent up to now is       18.6 secs

     total energy              =    -361.65309973 Ry
     estimated scf accuracy    <       0.02565740 Ry

     iteration # 16     ecut=    50.00 Ry     beta= 0.30
     Davidson diagonalization with overlap
     ethr =  1.83E-05,  avg # of iterations =  6.5

     total cpu time spent up to now is       20.3 secs

     total energy              =    -361.64557315 Ry
     estimated scf accuracy    <       0.09944941 Ry

     iteration # 17     ecut=    50.00 Ry     beta= 0.30
     Davidson diagonalization with overlap
     ethr =  1.83E-05,  avg # of iterations =  2.0

     total cpu time spent up to now is       21.2 secs

     total energy              =    -361.64470275 Ry
     estimated scf accuracy    <       0.07450851 Ry

     iteration # 18     ecut=    50.00 Ry     beta= 0.30
     Davidson diagonalization with overlap
     ethr =  1.83E-05,  avg # of iterations =  2.0

     total cpu time spent up to now is       22.1 secs

     total energy              =    -361.63023369 Ry
     estimated scf accuracy    <       0.06343679 Ry

     iteration # 19     ecut=    50.00 Ry     beta= 0.30
     Davidson diagonalization with overlap
     ethr =  1.83E-05,  avg # of iterations =  6.1

     total cpu time spent up to now is       23.6 secs

     total energy              =    -361.63284121 Ry
     estimated scf accuracy    <       0.01310231 Ry

     iteration # 20     ecut=    50.00 Ry     beta= 0.30
     Davidson diagonalization with overlap
     ethr =  1.83E-05,  avg # of iterations =  1.7

     total cpu time spent up to now is       24.5 secs

     total energy              =    -361.62908358 Ry
     estimated scf accuracy    <       0.00823004 Ry

     iteration # 21     ecut=    50.00 Ry     beta= 0.30
     Davidson diagonalization with overlap
     ethr =  1.83E-05,  avg # of iterations =  5.0

     total cpu time spent up to now is       25.9 secs

     total energy              =    -361.63245841 Ry
     estimated scf accuracy    <       0.00116944 Ry

     iteration # 22     ecut=    50.00 Ry     beta= 0.30
     Davidson diagonalization with overlap
     ethr =  3.25E-06,  avg # of iterations =  2.1

     total cpu time spent up to now is       26.8 secs

     total energy              =    -361.63204895 Ry
     estimated scf accuracy    <       0.00073501 Ry

     iteration # 23     ecut=    50.00 Ry     beta= 0.30
     Davidson diagonalization with overlap
     ethr =  2.04E-06,  avg # of iterations =  5.8

     total cpu time spent up to now is       28.3 secs

     total energy              =    -361.63234890 Ry
     estimated scf accuracy    <       0.00039063 Ry

     iteration # 24     ecut=    50.00 Ry     beta= 0.30
     Davidson diagonalization with overlap
     ethr =  1.09E-06,  avg # of iterations =  2.0

     total cpu time spent up to now is       29.2 secs

     total energy              =    -361.63235325 Ry
     estimated scf accuracy    <       0.00008187 Ry

     iteration # 25     ecut=    50.00 Ry     beta= 0.30
     Davidson diagonalization with overlap
     ethr =  2.27E-07,  avg # of iterations =  5.9

     total cpu time spent up to now is       30.7 secs

     total energy              =    -361.63240743 Ry
     estimated scf accuracy    <       0.00001712 Ry

     iteration # 26     ecut=    50.00 Ry     beta= 0.30
     Davidson diagonalization with overlap
     ethr =  4.76E-08,  avg # of iterations =  7.2

     total cpu time spent up to now is       32.5 secs

     total energy              =    -361.63243154 Ry
     estimated scf accuracy    <       0.00003739 Ry

     iteration # 27     ecut=    50.00 Ry     beta= 0.30
     Davidson diagonalization with overlap
     ethr =  4.76E-08,  avg # of iterations =  1.2

     total cpu time spent up to now is       33.3 secs

     total energy              =    -361.63241431 Ry
     estimated scf accuracy    <       0.00005038 Ry

     iteration # 28     ecut=    50.00 Ry     beta= 0.30
     Davidson diagonalization with overlap
     ethr =  4.76E-08,  avg # of iterations =  2.1

     total cpu time spent up to now is       34.2 secs

     total energy              =    -361.63242168 Ry
     estimated scf accuracy    <       0.00001875 Ry

     iteration # 29     ecut=    50.00 Ry     beta= 0.30
     Davidson diagonalization with overlap
     ethr =  4.76E-08,  avg # of iterations =  1.0

     total cpu time spent up to now is       35.0 secs

     total energy              =    -361.63241141 Ry
     estimated scf accuracy    <       0.00002536 Ry

     iteration # 30     ecut=    50.00 Ry     beta= 0.30
     Davidson diagonalization with overlap
     ethr =  4.76E-08,  avg # of iterations =  2.5

     total cpu time spent up to now is       36.0 secs

     total energy              =    -361.63241095 Ry
     estimated scf accuracy    <       0.00000680 Ry

     iteration # 31     ecut=    50.00 Ry     beta= 0.30
     Davidson diagonalization with overlap
     ethr =  1.89E-08,  avg # of iterations =  6.4

     total cpu time spent up to now is       37.6 secs

     total energy              =    -361.63241697 Ry
     estimated scf accuracy    <       0.00000329 Ry

     iteration # 32     ecut=    50.00 Ry     beta= 0.30
     Davidson diagonalization with overlap
     ethr =  9.14E-09,  avg # of iterations =  1.5

     total cpu time spent up to now is       38.4 secs

     total energy              =    -361.63241651 Ry
     estimated scf accuracy    <       0.00000277 Ry

     iteration # 33     ecut=    50.00 Ry     beta= 0.30
     Davidson diagonalization with overlap
     ethr =  7.70E-09,  avg # of iterations =  1.1

     total cpu time spent up to now is       39.2 secs

     total energy              =    -361.63241648 Ry
     estimated scf accuracy    <       0.00000152 Ry

     iteration # 34     ecut=    50.00 Ry     beta= 0.30
     Davidson diagonalization with overlap
     ethr =  4.21E-09,  avg # of iterations =  1.1

     total cpu time spent up to now is       40.0 secs

     total energy              =    -361.63241678 Ry
     estimated scf accuracy    <       0.00000122 Ry

     iteration # 35     ecut=    50.00 Ry     beta= 0.30
     Davidson diagonalization with overlap
     ethr =  3.39E-09,  avg # of iterations =  1.0

     total cpu time spent up to now is       40.9 secs

     total energy              =    -361.63241649 Ry
     estimated scf accuracy    <       0.00000162 Ry

     iteration # 36     ecut=    50.00 Ry     beta= 0.30
     Davidson diagonalization with overlap
     ethr =  3.39E-09,  avg # of iterations =  1.1

     total cpu time spent up to now is       41.7 secs

     total energy              =    -361.63241644 Ry
     estimated scf accuracy    <       0.00000093 Ry

     iteration # 37     ecut=    50.00 Ry     beta= 0.30
     Davidson diagonalization with overlap
     ethr =  2.58E-09,  avg # of iterations =  1.0

     total cpu time spent up to now is       42.5 secs

     total energy              =    -361.63241643 Ry
     estimated scf accuracy    <       0.00000063 Ry

     iteration # 38     ecut=    50.00 Ry     beta= 0.30
     Davidson diagonalization with overlap
     ethr =  1.74E-09,  avg # of iterations =  1.0

     total cpu time spent up to now is       43.3 secs

     total energy              =    -361.63241650 Ry
     estimated scf accuracy    <       0.00000048 Ry

     iteration # 39     ecut=    50.00 Ry     beta= 0.30
     Davidson diagonalization with overlap
     ethr =  1.33E-09,  avg # of iterations =  1.1

     total cpu time spent up to now is       44.1 secs

     total energy              =    -361.63241628 Ry
     estimated scf accuracy    <       0.00000054 Ry

     iteration # 40     ecut=    50.00 Ry     beta= 0.30
     Davidson diagonalization with overlap
     ethr =  1.33E-09,  avg # of iterations =  2.5

     total cpu time spent up to now is       45.0 secs

     total energy              =    -361.63241629 Ry
     estimated scf accuracy    <       0.00000013 Ry

     iteration # 41     ecut=    50.00 Ry     beta= 0.30
     Davidson diagonalization with overlap
     ethr =  3.72E-10,  avg # of iterations =  6.2

     total cpu time spent up to now is       46.6 secs

     total energy              =    -361.63241638 Ry
     estimated scf accuracy    <       0.00000004 Ry

     iteration # 42     ecut=    50.00 Ry     beta= 0.30
     Davidson diagonalization with overlap
     ethr =  1.02E-10,  avg # of iterations =  4.8

     total cpu time spent up to now is       47.9 secs

     total energy              =    -361.63241640 Ry
     estimated scf accuracy    <       0.00000001 Ry

     iteration # 43     ecut=    50.00 Ry     beta= 0.30
     Davidson diagonalization with overlap
     ethr =  3.83E-11,  avg # of iterations =  2.2

     total cpu time spent up to now is       48.8 secs

     total energy              =    -361.63241642 Ry
     estimated scf accuracy    <       0.00000002 Ry

     iteration # 44     ecut=    50.00 Ry     beta= 0.30
     Davidson diagonalization with overlap
     ethr =  3.83E-11,  avg # of iterations =  6.2

     total cpu time spent up to now is       50.4 secs

     total energy              =    -361.63241638 Ry
     estimated scf accuracy    <       0.00000014 Ry

     iteration # 45     ecut=    50.00 Ry     beta= 0.30
     Davidson diagonalization with overlap
     ethr =  3.83E-11,  avg # of iterations =  7.7

     total cpu time spent up to now is       52.3 secs

     End of self-consistent calculation

          k = 0.0000 0.0000 0.0000 (  2069 PWs)   bands (ev):

   -11.3911 -10.7508   0.7479   0.7479   0.7648   0.9298   0.9298   1.0943
     1.6715   1.6715   1.8610   1.8610   2.0838   5.2703   5.2703   6.0319
     6.0382   6.0382

          k = 0.0000 0.0000 0.1064 (  2075 PWs)   bands (ev):

   -11.3499 -10.7954   0.7234   0.7532   0.7532   0.8937   0.9100   0.9100
     1.6898   1.6898   1.8542   1.8542   2.4562   5.3234   5.3234   5.4573
     5.9885   5.9885

          k = 0.0000 0.0000 0.2129 (  2068 PWs)   bands (ev):

   -11.2360 -10.9159   0.6343   0.6624   0.7731   0.7731   0.8627   0.8627
     1.7357   1.7357   1.8314   1.8314   3.1646   4.6983   5.4674   5.4674
     5.8516   5.8516

          k = 0.0000 0.0000-0.3193 (  2098 PWs)   bands (ev):

   -11.0776 -11.0776   0.5852   0.5852   0.8110   0.8110   0.8110   0.8110
     1.7888   1.7888   1.7888   1.7888   3.9352   3.9352   5.6612   5.6612
     5.6612   5.6612

          k = 0.0000 0.1925 0.0000 (  2099 PWs)   bands (ev):

   -11.2719 -10.7063   0.6428   0.8135   0.8322   0.9320   1.0335   1.2471
     1.6266   1.6718   1.8716   2.0122   2.0614   4.4352   4.9456   4.9588
     5.8561   5.8802

          k = 0.0000 0.1925 0.1064 (  2087 PWs)   bands (ev):

   -11.2348 -10.7448   0.6142   0.8011   0.8220   0.8829   1.0114   1.0644
     1.6558   1.6890   1.8625   1.9058   2.5348   4.4847   4.8045   5.0233
     5.7944   5.8209

          k = 0.0000 0.1925 0.2129 (  2072 PWs)   bands (ev):

   -11.1328 -10.8498   0.5494   0.6326   0.8493   0.8502   0.9401   0.9574
     1.7209   1.7331   1.8336   1.8570   3.2110   4.3102   4.8311   5.1971
     5.5516   5.6572

          k = 0.0000 0.1925-0.3193 (  2072 PWs)   bands (ev):

   -10.9920 -10.9920   0.5288   0.5288   0.8792   0.8792   0.8968   0.8968
     1.7871   1.7871   1.7946   1.7946   3.8291   3.8291   5.1752   5.1752
     5.4297   5.4297

          k = 0.0000 0.3849 0.0000 (  2096 PWs)   bands (ev):

   -11.0036 -10.6368   0.5533   0.8518   0.9162   1.1031   1.2841   1.4172
     1.6419   1.7367   1.8888   2.0502   2.3934   3.1258   3.8947   4.3262
     5.3484   5.5355

          k = 0.0000 0.3849 0.1064 (  2087 PWs)   bands (ev):

   -10.9780 -10.6602   0.5217   0.7764   0.9348   1.0760   1.2520   1.2787
     1.6610   1.7459   1.8761   1.9895   2.6236   3.2762   3.8864   4.4154
     5.3852   5.4594

          k = 0.0000 0.3849 0.2129 (  2090 PWs)   bands (ev):

   -10.9087 -10.7249   0.4623   0.5909   0.9891   1.0440   1.1309   1.1706
     1.7402   1.7709   1.8447   1.9169   2.8869   3.3100   4.2648   4.6501
     5.2492   5.2992

          k = 0.0000 0.3849-0.3193 (  2080 PWs)   bands (ev):

   -10.8157 -10.8157   0.4645   0.4645   1.0612   1.0612   1.0732   1.0732
     1.8064   1.8064   1.8331   1.8331   3.1149   3.1149   4.8877   4.8877
     4.9555   4.9555

          k = 0.0000-0.5774 0.0000 (  2104 PWs)   bands (ev):

   -10.8321 -10.6341   0.6002   0.8882   0.9481   1.2805   1.3131   1.4374
     1.7184   1.8166   1.8988   1.9541   2.4752   2.8412   3.4780   3.9817
     4.9232   5.3493

          k = 0.0000-0.5774 0.1064 (  2090 PWs)   bands (ev):

   -10.8168 -10.6451   0.5599   0.7746   0.9734   1.2612   1.2767   1.3962
     1.7772   1.8190   1.8845   1.9546   2.4360   2.7682   3.7739   4.0880
     5.0296   5.2653

          k = 0.0000-0.5774 0.2129 (  2098 PWs)   bands (ev):

   -10.7765 -10.6771   0.4808   0.5720   1.0465   1.2279   1.2325   1.2889
     1.8258   1.8585   1.8654   1.9485   2.4310   2.6270   4.3607   4.3752
     5.0330   5.1282

          k = 0.0000-0.5774-0.3193 (  2092 PWs)   bands (ev):

   -10.7247 -10.7247   0.4615   0.4615   1.1589   1.1589   1.2148   1.2148
     1.8385   1.8385   1.9230   1.9230   2.5032   2.5032   4.7061   4.7061
     4.9099   4.9099

          k = 0.1667 0.2887 0.0000 (  2079 PWs)   bands (ev):

   -11.0769 -10.6498   0.6343   0.7838   0.9257   1.0055   1.2260   1.4345
     1.5889   1.6945   1.8835   2.0471   2.3134   3.7235   3.8407   4.4636
     5.4863   5.5257

          k = 0.1667 0.2887 0.1064 (  2074 PWs)   bands (ev):

   -11.0478 -10.6776   0.5973   0.7541   0.9168   0.9795   1.1970   1.2262
     1.6285   1.7255   1.8725   1.9763   2.6650   3.8113   3.8791   4.4660
     5.4060   5.5377

          k = 0.1667 0.2887 0.2129 (  2080 PWs)   bands (ev):

   -10.9684 -10.7544   0.5239   0.6183   0.9169   0.9543   1.0644   1.1266
     1.7175   1.7607   1.8437   1.9066   3.1049   3.6629   4.3485   4.6033
     5.1893   5.4015

          k = 0.1667 0.2887-0.3193 (  2076 PWs)   bands (ev):

   -10.8607 -10.8607   0.5096   0.5096   0.9405   0.9405   1.0569   1.0569
     1.7929   1.7929   1.8284   1.8284   3.4198   3.4198   4.8404   4.8404
     5.0052   5.0052

          k = 0.1667 0.4811 0.0000 (  2087 PWs)   bands (ev):

   -10.8381 -10.6304   0.6830   0.8939   1.0426   1.1631   1.4097   1.4742
     1.6780   1.7237   1.9084   2.0723   2.4172   2.9830   3.4419   3.7460
     4.9112   5.0736

          k = 0.1667 0.4811 0.1064 (  2084 PWs)   bands (ev):

   -10.8222 -10.6422   0.6553   0.8497   0.9810   1.1516   1.3393   1.4019
     1.6819   1.7794   1.9049   2.0643   2.4461   2.9903   3.5372   3.9683
     4.9092   5.0806

          k = 0.1667 0.4811 0.2129 (  2089 PWs)   bands (ev):

   -10.7802 -10.6761   0.5841   0.6813   0.9835   1.1252   1.2465   1.2776
     1.7467   1.8012   1.9172   2.0203   2.5589   2.8754   3.8469   4.4643
     4.6797   5.1737

          k = 0.1667 0.4811-0.3193 (  2096 PWs)   bands (ev):

   -10.7261 -10.7261   0.5671   0.5671   1.0640   1.0640   1.2135   1.2135
     1.7901   1.7901   1.9615   1.9615   2.7137   2.7137   4.2432   4.2432
     4.9988   4.9988

          k = 0.3333 0.5774 0.0000 (  2097 PWs)   bands (ev):

   -10.6915 -10.6915   0.7287   1.0453   1.0453   1.5118   1.5694   1.5694
     1.6449   1.7416   1.8501   1.8501   2.5457   2.7247   2.7247   4.3315
     4.3315   4.5943

          k = 0.3333 0.5774 0.1064 (  2100 PWs)   bands (ev):

   -10.6890 -10.6890   0.7566   0.9682   0.9682   1.3925   1.4785   1.4785
     1.6530   1.7354   1.9514   1.9514   2.6778   2.6778   2.7356   4.4651
     4.5216   4.5216

          k = 0.3333 0.5774 0.2129 (  2091 PWs)   bands (ev):

   -10.6841 -10.6841   0.8105   0.8105   0.8408   1.1762   1.3996   1.3996
     1.6711   1.7185   2.0669   2.0669   2.6054   2.6054   3.1560   4.1189
     4.8760   4.8760

          k = 0.3333 0.5774-0.3193 (  2112 PWs)   bands (ev):

   -10.6817 -10.6817   0.7342   0.7342   0.9821   0.9821   1.3772   1.3772
     1.6949   1.6949   2.1098   2.1098   2.5754   2.5754   3.6495   3.6495
     5.0455   5.0455

     highest occupied level (ev):     6.0382

!    total energy              =    -361.63241640 Ry
     estimated scf accuracy    <          1.4E-09 Ry

     The total energy is the sum of the following terms:
     one-electron contribution =    -161.34646663 Ry
     hartree contribution      =     120.75724987 Ry
     xc contribution           =    -109.43282291 Ry
     ewald contribution        =    -211.61037672 Ry

     convergence has been achieved in  45 iterations

     Forces acting on atoms (cartesian axes, Ry/au):

     atom    1 type  1   force =     0.00000000    0.00000000   -0.00708921
     atom    2 type  1   force =     0.00000000    0.00000000   -0.00708921
     atom    3 type  2   force =     0.00000000    0.00000000    0.00708921
     atom    4 type  2   force =     0.00000000    0.00000000    0.00708921
     The non-local contrib.  to forces
     atom    1 type  1   force =     0.00000000   -0.00000000   -0.08966418
     atom    2 type  1   force =     0.00000000   -0.00000000   -0.08966418
     atom    3 type  2   force =    -0.00000000    0.00000000   -0.06817226
     atom    4 type  2   force =     0.00000000   -0.00000000   -0.06817226
     The ionic contribution  to forces
     atom    1 type  1   force =    -0.00000000    0.00000000   -0.54307727
     atom    2 type  1   force =     0.00000000   -0.00000000   -0.54307727
     atom    3 type  2   force =    -0.00000000    0.00000000    0.54307727
     atom    4 type  2   force =     0.00000000   -0.00000000    0.54307727
     The local contribution  to forces
     atom    1 type  1   force =    -0.00000002    0.00000001    0.61930110
     atom    2 type  1   force =     0.00000007   -0.00000004    0.61930110
     atom    3 type  2   force =    -0.00000001    0.00000000   -0.46834605
     atom    4 type  2   force =     0.00000002   -0.00000001   -0.46834605
     The core correction contribution to forces
     atom    1 type  1   force =    -0.00000000    0.00000000    0.00634943
     atom    2 type  1   force =     0.00000001   -0.00000001    0.00634943
     atom    3 type  2   force =     0.00000000   -0.00000000    0.00052924
     atom    4 type  2   force =    -0.00000000    0.00000000    0.00052924
     The Hubbard contrib.    to forces
     atom    1 type  1   force =     0.00000000    0.00000000    0.00000000
     atom    2 type  1   force =     0.00000000    0.00000000    0.00000000
     atom    3 type  2   force =     0.00000000    0.00000000    0.00000000
     atom    4 type  2   force =     0.00000000    0.00000000    0.00000000
     The SCF correction term to forces
     atom    1 type  1   force =     0.00000000   -0.00000000   -0.00000108
     atom    2 type  1   force =    -0.00000000    0.00000000   -0.00000108
     atom    3 type  2   force =     0.00000000    0.00000000   -0.00000179
     atom    4 type  2   force =     0.00000000   -0.00000000   -0.00000179

     Total force =     0.014178     Total SCF correction =     0.000003


     Computing stress (Cartesian axis) and pressure

          total   stress  (Ry/bohr**3)                   (kbar)     P=      -68.04
  -0.00058235  -0.00000000   0.00000000          -85.67       -0.00        0.00
  -0.00000000  -0.00058235   0.00000000           -0.00      -85.67        0.00
   0.00000000   0.00000000  -0.00022286            0.00        0.00      -32.78


     Writing all to output data dir ./ZnO_ANN.save/

     init_run     :      1.80s CPU      1.21s WALL (       1 calls)
     electrons    :    134.64s CPU     50.72s WALL (       1 calls)
     forces       :      0.75s CPU      0.39s WALL (       1 calls)
     stress       :      2.60s CPU      1.33s WALL (       1 calls)

     Called by init_run:
     wfcinit      :      0.99s CPU      0.40s WALL (       1 calls)
     potinit      :      0.27s CPU      0.28s WALL (       1 calls)
     hinit0       :      0.40s CPU      0.41s WALL (       1 calls)

     Called by electrons:
     c_bands      :    105.59s CPU     39.31s WALL (      45 calls)
     sum_band     :     21.25s CPU      8.28s WALL (      45 calls)
     v_of_rho     :      1.81s CPU      0.77s WALL (      46 calls)
     newd         :      5.53s CPU      2.21s WALL (      46 calls)
     mix_rho      :      0.31s CPU      0.13s WALL (      45 calls)

     Called by c_bands:
     init_us_2    :      2.00s CPU      0.71s WALL (    2604 calls)
     init_us_2:cp :      1.97s CPU      0.70s WALL (    2604 calls)
     cegterg      :    101.25s CPU     37.61s WALL (    1260 calls)

     Called by *egterg:
     cdiaghg      :     15.30s CPU      5.01s WALL (    5399 calls)
     h_psi        :     70.58s CPU     28.77s WALL (    5427 calls)
     s_psi        :      1.59s CPU      0.47s WALL (    5427 calls)
     g_psi        :      0.52s CPU      0.13s WALL (    4139 calls)

     Called by h_psi:
     h_psi:calbec :      2.42s CPU      0.87s WALL (    5427 calls)
     vloc_psi     :     65.95s CPU     27.19s WALL (    5427 calls)
     add_vuspsi   :      1.61s CPU      0.51s WALL (    5427 calls)

     General routines
     calbec       :      3.21s CPU      1.13s WALL (    6827 calls)
     fft          :      1.17s CPU      0.60s WALL (     621 calls)
     ffts         :      0.20s CPU      0.16s WALL (      91 calls)
     fftw         :     67.13s CPU     27.74s WALL (  156462 calls)
     interpolate  :      0.25s CPU      0.18s WALL (      46 calls)

     Parallel routines

     PWSCF        :   2m20.33s CPU     54.13s WALL


   This run was terminated on:  17:59:35  13Jun2025            

=------------------------------------------------------------------------------=
   JOB DONE.
=------------------------------------------------------------------------------=
Note: The following floating-point exceptions are signalling: IEEE_INVALID_FLAG
