Authorization required, but no authorization protocol specified

Authorization required, but no authorization protocol specified

Authorization required, but no authorization protocol specified

Authorization required, but no authorization protocol specified

Authorization required, but no authorization protocol specified

Authorization required, but no authorization protocol specified

Authorization required, but no authorization protocol specified

Authorization required, but no authorization protocol specified

Authorization required, but no authorization protocol specified

Authorization required, but no authorization protocol specified


     Program PWSCF v.7.2 starts on 13Jun2025 at 15:58:47 

     This program is part of the open-source Quantum ESPRESSO suite
     for quantum simulation of materials; please cite
         "P. Giannozzi et al., J. Phys.:Condens. Matter 21 395502 (2009);
         "P. Giannozzi et al., J. Phys.:Condens. Matter 29 465901 (2017);
         "P. Giannozzi et al., J. Chem. Phys. 152 154105 (2020);
          URL http://www.quantum-espresso.org", 
     in publications or presentations arising from this work. More details at
     http://www.quantum-espresso.org/quote

     Parallel version (MPI), running on     8 processors

     MPI processes distributed on     1 nodes
     120717 MiB available memory on the printing compute node when the environment starts

     Reading input from /home/jvc/QEspresso7.2/ZnO_database_python/SCFs.in/scf-5.81-1.70.in

     Current dimensions of program PWSCF are:
     Max number of different atomic species (ntypx) = 10
     Max number of k-points (npk) =  40000
     Max angular momentum in pseudopotentials (lmaxx) =  4
     file Zn.upf: wavefunction(s)  3D renormalized

     R & G space division:  proc/nbgrp/npool/nimage =       8
     Subspace diagonalization in iterative solution of the eigenvalue problem:
     a serial algorithm will be used


     Parallelization info
     --------------------
     sticks:   dense  smooth     PW     G-vecs:    dense   smooth      PW
     Min         116      57     18                 4861     1711     295
     Max         117      58     20                 4864     1716     298
     Sum         931     463    151                38901    13719    2371

     Using Slab Decomposition



     bravais-lattice index     =            4
     lattice parameter (alat)  =       5.8081  a.u.
     unit-cell volume          =     287.6208 (a.u.)^3
     number of atoms/cell      =            4
     number of atomic types    =            2
     number of electrons       =        36.00
     number of Kohn-Sham states=           18
     kinetic-energy cutoff     =      50.0000  Ry
     charge density cutoff     =     400.0000  Ry
     scf convergence threshold =      1.0E-08
     mixing beta               =       0.3000
     number of iterations used =            8  plain     mixing
     Exchange-correlation= PBE
                           (   1   4   3   4   0   0   0)

     celldm(1)=   5.808092  celldm(2)=   0.000000  celldm(3)=   1.695076
     celldm(4)=   0.000000  celldm(5)=   0.000000  celldm(6)=   0.000000

     crystal axes: (cart. coord. in units of alat)
               a(1) = (   1.000000   0.000000   0.000000 )  
               a(2) = (  -0.500000   0.866025   0.000000 )  
               a(3) = (   0.000000   0.000000   1.695076 )  

     reciprocal axes: (cart. coord. in units 2 pi/alat)
               b(1) = (  1.000000  0.577350 -0.000000 )  
               b(2) = (  0.000000  1.154701  0.000000 )  
               b(3) = (  0.000000 -0.000000  0.589944 )  


     PseudoPot. # 1 for Zn read from file:
     /home/jvc/QEspresso7.2/ZnO_database/pseudos/Zn.upf
     MD5 check sum: 7f56cabf9682ed8c977c2f7d0c5985c5
     Pseudo is Ultrasoft + core correction, Zval = 12.0
     Generated using &quot;atomic&quot; code by A. Dal Corso  v.6.2.2
     Using radial grid of 1201 points,  6 beta functions with: 
                l(1) =   0
                l(2) =   0
                l(3) =   1
                l(4) =   1
                l(5) =   2
                l(6) =   2
     Q(r) pseudized with 0 coefficients 


     PseudoPot. # 2 for O  read from file:
     /home/jvc/QEspresso7.2/ZnO_database/pseudos/O.upf
     MD5 check sum: 91400c9766925bcf19f520983a725ff0
     Pseudo is Ultrasoft + core correction, Zval =  6.0
     Generated using &quot;atomic&quot; code by A. Dal Corso  v.6.3MaX
     Using radial grid of 1095 points,  4 beta functions with: 
                l(1) =   0
                l(2) =   0
                l(3) =   1
                l(4) =   1
     Q(r) pseudized with 0 coefficients 


     atomic species   valence    mass     pseudopotential
        Zn            12.00    63.38000     Zn( 1.00)
        O              6.00    15.99900     O ( 1.00)

     12 Sym. Ops. (no inversion) found ( 6 have fractional translation)



   Cartesian axes

     site n.     atom                  positions (alat units)
         1           Zn  tau(   1) = (   0.5000000   0.2886751   0.8486121  )
         2           Zn  tau(   2) = (  -0.0000000   0.5773503   0.0010740  )
         3           O   tau(   3) = (   0.5000000   0.2886751   1.4911186  )
         4           O   tau(   4) = (  -0.0000000   0.5773503   0.6435805  )

     number of k points=    28
                       cart. coord. in units 2pi/alat
        k(    1) = (   0.0000000   0.0000000   0.0000000), wk =   0.0092593
        k(    2) = (   0.0000000   0.0000000   0.0983240), wk =   0.0185185
        k(    3) = (   0.0000000   0.0000000   0.1966480), wk =   0.0185185
        k(    4) = (   0.0000000   0.0000000  -0.2949720), wk =   0.0092593
        k(    5) = (   0.0000000   0.1924501   0.0000000), wk =   0.0555556
        k(    6) = (   0.0000000   0.1924501   0.0983240), wk =   0.1111111
        k(    7) = (   0.0000000   0.1924501   0.1966480), wk =   0.1111111
        k(    8) = (   0.0000000   0.1924501  -0.2949720), wk =   0.0555556
        k(    9) = (   0.0000000   0.3849002   0.0000000), wk =   0.0555556
        k(   10) = (   0.0000000   0.3849002   0.0983240), wk =   0.1111111
        k(   11) = (   0.0000000   0.3849002   0.1966480), wk =   0.1111111
        k(   12) = (   0.0000000   0.3849002  -0.2949720), wk =   0.0555556
        k(   13) = (   0.0000000  -0.5773503   0.0000000), wk =   0.0277778
        k(   14) = (   0.0000000  -0.5773503   0.0983240), wk =   0.0555556
        k(   15) = (   0.0000000  -0.5773503   0.1966480), wk =   0.0555556
        k(   16) = (   0.0000000  -0.5773503  -0.2949720), wk =   0.0277778
        k(   17) = (   0.1666667   0.2886751   0.0000000), wk =   0.0555556
        k(   18) = (   0.1666667   0.2886751   0.0983240), wk =   0.1111111
        k(   19) = (   0.1666667   0.2886751   0.1966480), wk =   0.1111111
        k(   20) = (   0.1666667   0.2886751  -0.2949720), wk =   0.0555556
        k(   21) = (   0.1666667   0.4811252   0.0000000), wk =   0.1111111
        k(   22) = (   0.1666667   0.4811252   0.0983240), wk =   0.2222222
        k(   23) = (   0.1666667   0.4811252   0.1966480), wk =   0.2222222
        k(   24) = (   0.1666667   0.4811252  -0.2949720), wk =   0.1111111
        k(   25) = (   0.3333333   0.5773503   0.0000000), wk =   0.0185185
        k(   26) = (   0.3333333   0.5773503   0.0983240), wk =   0.0370370
        k(   27) = (   0.3333333   0.5773503   0.1966480), wk =   0.0370370
        k(   28) = (   0.3333333   0.5773503  -0.2949720), wk =   0.0185185

     Dense  grid:    38901 G-vectors     FFT dimensions: (  40,  40,  64)

     Smooth grid:    13719 G-vectors     FFT dimensions: (  27,  27,  48)

     Estimated max dynamical RAM per process >      23.03 MB

     Estimated total dynamical RAM >     184.23 MB

     Check: negative core charge=   -0.000002

     Initial potential from superposition of free atoms

     starting charge      35.9925, renormalised to      36.0000
     Starting wfcs are   26 randomized atomic wfcs

     total cpu time spent up to now is        1.4 secs

     Self-consistent Calculation

     iteration #  1     ecut=    50.00 Ry     beta= 0.30
     Davidson diagonalization with overlap
     ethr =  1.00E-02,  avg # of iterations =  1.9

     total cpu time spent up to now is        2.2 secs

     total energy              =    -361.45300925 Ry
     estimated scf accuracy    <       0.67328736 Ry

     iteration #  2     ecut=    50.00 Ry     beta= 0.30
     Davidson diagonalization with overlap
     ethr =  1.87E-03,  avg # of iterations =  2.0

     total cpu time spent up to now is        3.2 secs

     total energy              =    -361.51931129 Ry
     estimated scf accuracy    <       0.11336087 Ry

     iteration #  3     ecut=    50.00 Ry     beta= 0.30
     Davidson diagonalization with overlap
     ethr =  3.15E-04,  avg # of iterations =  6.1

     total cpu time spent up to now is        4.7 secs

     total energy              =    -361.56980433 Ry
     estimated scf accuracy    <       0.07711358 Ry

     iteration #  4     ecut=    50.00 Ry     beta= 0.30
     Davidson diagonalization with overlap
     ethr =  2.14E-04,  avg # of iterations =  4.6

     total cpu time spent up to now is        6.0 secs

     total energy              =    -361.61481937 Ry
     estimated scf accuracy    <       0.02060639 Ry

     iteration #  5     ecut=    50.00 Ry     beta= 0.30
     Davidson diagonalization with overlap
     ethr =  5.72E-05,  avg # of iterations =  4.9

     total cpu time spent up to now is        7.2 secs

     total energy              =    -361.56264503 Ry
     estimated scf accuracy    <       0.09887910 Ry

     iteration #  6     ecut=    50.00 Ry     beta= 0.30
     Davidson diagonalization with overlap
     ethr =  5.72E-05,  avg # of iterations =  8.0

     total cpu time spent up to now is        9.2 secs

     total energy              =    -361.59438782 Ry
     estimated scf accuracy    <       0.02694718 Ry

     iteration #  7     ecut=    50.00 Ry     beta= 0.30
     Davidson diagonalization with overlap
     ethr =  5.72E-05,  avg # of iterations =  2.0

     total cpu time spent up to now is       10.0 secs

     total energy              =    -361.59952486 Ry
     estimated scf accuracy    <       0.00960426 Ry

     iteration #  8     ecut=    50.00 Ry     beta= 0.30
     Davidson diagonalization with overlap
     ethr =  2.67E-05,  avg # of iterations =  1.1

     total cpu time spent up to now is       10.7 secs

     total energy              =    -361.60017997 Ry
     estimated scf accuracy    <       0.01605368 Ry

     iteration #  9     ecut=    50.00 Ry     beta= 0.30
     Davidson diagonalization with overlap
     ethr =  2.67E-05,  avg # of iterations =  1.0

     total cpu time spent up to now is       11.5 secs

     total energy              =    -361.59020290 Ry
     estimated scf accuracy    <       0.01573500 Ry

     iteration # 10     ecut=    50.00 Ry     beta= 0.30
     Davidson diagonalization with overlap
     ethr =  2.67E-05,  avg # of iterations =  6.0

     total cpu time spent up to now is       13.0 secs

     total energy              =    -361.59929931 Ry
     estimated scf accuracy    <       0.00447319 Ry

     iteration # 11     ecut=    50.00 Ry     beta= 0.30
     Davidson diagonalization with overlap
     ethr =  1.24E-05,  avg # of iterations =  2.4

     total cpu time spent up to now is       13.8 secs

     total energy              =    -361.59687756 Ry
     estimated scf accuracy    <       0.00893967 Ry

     iteration # 12     ecut=    50.00 Ry     beta= 0.30
     Davidson diagonalization with overlap
     ethr =  1.24E-05,  avg # of iterations =  2.0

     total cpu time spent up to now is       14.7 secs

     total energy              =    -361.59685966 Ry
     estimated scf accuracy    <       0.00442026 Ry

     iteration # 13     ecut=    50.00 Ry     beta= 0.30
     Davidson diagonalization with overlap
     ethr =  1.23E-05,  avg # of iterations =  1.1

     total cpu time spent up to now is       15.4 secs

     total energy              =    -361.59726065 Ry
     estimated scf accuracy    <       0.00331846 Ry

     iteration # 14     ecut=    50.00 Ry     beta= 0.30
     Davidson diagonalization with overlap
     ethr =  9.22E-06,  avg # of iterations =  1.0

     total cpu time spent up to now is       16.1 secs

     total energy              =    -361.59653135 Ry
     estimated scf accuracy    <       0.00387360 Ry

     iteration # 15     ecut=    50.00 Ry     beta= 0.30
     Davidson diagonalization with overlap
     ethr =  9.22E-06,  avg # of iterations =  1.0

     total cpu time spent up to now is       16.9 secs

     total energy              =    -361.59631510 Ry
     estimated scf accuracy    <       0.00247299 Ry

     iteration # 16     ecut=    50.00 Ry     beta= 0.30
     Davidson diagonalization with overlap
     ethr =  6.87E-06,  avg # of iterations =  1.1

     total cpu time spent up to now is       17.7 secs

     total energy              =    -361.59555230 Ry
     estimated scf accuracy    <       0.00136143 Ry

     iteration # 17     ecut=    50.00 Ry     beta= 0.30
     Davidson diagonalization with overlap
     ethr =  3.78E-06,  avg # of iterations =  5.8

     total cpu time spent up to now is       19.1 secs

     total energy              =    -361.59619677 Ry
     estimated scf accuracy    <       0.00040992 Ry

     iteration # 18     ecut=    50.00 Ry     beta= 0.30
     Davidson diagonalization with overlap
     ethr =  1.14E-06,  avg # of iterations =  2.0

     total cpu time spent up to now is       19.9 secs

     total energy              =    -361.59622389 Ry
     estimated scf accuracy    <       0.00018194 Ry

     iteration # 19     ecut=    50.00 Ry     beta= 0.30
     Davidson diagonalization with overlap
     ethr =  5.05E-07,  avg # of iterations =  1.9

     total cpu time spent up to now is       20.7 secs

     total energy              =    -361.59617715 Ry
     estimated scf accuracy    <       0.00016905 Ry

     iteration # 20     ecut=    50.00 Ry     beta= 0.30
     Davidson diagonalization with overlap
     ethr =  4.70E-07,  avg # of iterations =  2.8

     total cpu time spent up to now is       21.6 secs

     total energy              =    -361.59620548 Ry
     estimated scf accuracy    <       0.00003332 Ry

     iteration # 21     ecut=    50.00 Ry     beta= 0.30
     Davidson diagonalization with overlap
     ethr =  9.25E-08,  avg # of iterations =  4.0

     total cpu time spent up to now is       22.7 secs

     total energy              =    -361.59620598 Ry
     estimated scf accuracy    <       0.00001372 Ry

     iteration # 22     ecut=    50.00 Ry     beta= 0.30
     Davidson diagonalization with overlap
     ethr =  3.81E-08,  avg # of iterations =  8.2

     total cpu time spent up to now is       24.7 secs

     total energy              =    -361.59625567 Ry
     estimated scf accuracy    <       0.00008467 Ry

     iteration # 23     ecut=    50.00 Ry     beta= 0.30
     Davidson diagonalization with overlap
     ethr =  3.81E-08,  avg # of iterations =  2.1

     total cpu time spent up to now is       25.6 secs

     total energy              =    -361.59620761 Ry
     estimated scf accuracy    <       0.00012487 Ry

     iteration # 24     ecut=    50.00 Ry     beta= 0.30
     Davidson diagonalization with overlap
     ethr =  3.81E-08,  avg # of iterations =  5.3

     total cpu time spent up to now is       27.0 secs

     total energy              =    -361.59622479 Ry
     estimated scf accuracy    <       0.00001498 Ry

     iteration # 25     ecut=    50.00 Ry     beta= 0.30
     Davidson diagonalization with overlap
     ethr =  3.81E-08,  avg # of iterations =  2.0

     total cpu time spent up to now is       27.8 secs

     total energy              =    -361.59621665 Ry
     estimated scf accuracy    <       0.00003075 Ry

     iteration # 26     ecut=    50.00 Ry     beta= 0.30
     Davidson diagonalization with overlap
     ethr =  3.81E-08,  avg # of iterations =  2.0

     total cpu time spent up to now is       28.6 secs

     total energy              =    -361.59621445 Ry
     estimated scf accuracy    <       0.00001626 Ry

     iteration # 27     ecut=    50.00 Ry     beta= 0.30
     Davidson diagonalization with overlap
     ethr =  3.81E-08,  avg # of iterations =  1.5

     total cpu time spent up to now is       29.4 secs

     total energy              =    -361.59622581 Ry
     estimated scf accuracy    <       0.00000922 Ry

     iteration # 28     ecut=    50.00 Ry     beta= 0.30
     Davidson diagonalization with overlap
     ethr =  2.56E-08,  avg # of iterations =  4.2

     total cpu time spent up to now is       30.5 secs

     total energy              =    -361.59622521 Ry
     estimated scf accuracy    <       0.00004701 Ry

     iteration # 29     ecut=    50.00 Ry     beta= 0.30
     Davidson diagonalization with overlap
     ethr =  2.56E-08,  avg # of iterations =  1.0

     total cpu time spent up to now is       31.3 secs

     total energy              =    -361.59620632 Ry
     estimated scf accuracy    <       0.00004210 Ry

     iteration # 30     ecut=    50.00 Ry     beta= 0.30
     Davidson diagonalization with overlap
     ethr =  2.56E-08,  avg # of iterations =  6.0

     total cpu time spent up to now is       32.8 secs

     total energy              =    -361.59621433 Ry
     estimated scf accuracy    <       0.00000021 Ry

     iteration # 31     ecut=    50.00 Ry     beta= 0.30
     Davidson diagonalization with overlap
     ethr =  5.75E-10,  avg # of iterations =  7.2

     total cpu time spent up to now is       34.5 secs

     total energy              =    -361.59621373 Ry
     estimated scf accuracy    <       0.00000169 Ry

     iteration # 32     ecut=    50.00 Ry     beta= 0.30
     Davidson diagonalization with overlap
     ethr =  5.75E-10,  avg # of iterations =  8.1

     total cpu time spent up to now is       36.4 secs

     total energy              =    -361.59621418 Ry
     estimated scf accuracy    <       0.00000011 Ry

     iteration # 33     ecut=    50.00 Ry     beta= 0.30
     Davidson diagonalization with overlap
     ethr =  3.01E-10,  avg # of iterations =  9.1

     total cpu time spent up to now is       38.5 secs

     total energy              =    -361.59621407 Ry
     estimated scf accuracy    <       0.00000176 Ry

     iteration # 34     ecut=    50.00 Ry     beta= 0.30
     Davidson diagonalization with overlap
     ethr =  3.01E-10,  avg # of iterations =  7.4

     total cpu time spent up to now is       40.3 secs

     total energy              =    -361.59621439 Ry
     estimated scf accuracy    <       0.00000022 Ry

     iteration # 35     ecut=    50.00 Ry     beta= 0.30
     Davidson diagonalization with overlap
     ethr =  3.01E-10,  avg # of iterations =  4.8

     total cpu time spent up to now is       41.6 secs

     total energy              =    -361.59621395 Ry
     estimated scf accuracy    <       0.00000087 Ry

     iteration # 36     ecut=    50.00 Ry     beta= 0.30
     Davidson diagonalization with overlap
     ethr =  3.01E-10,  avg # of iterations =  8.2

     total cpu time spent up to now is       43.6 secs

     total energy              =    -361.59621419 Ry
     estimated scf accuracy    <       0.00000005 Ry

     iteration # 37     ecut=    50.00 Ry     beta= 0.30
     Davidson diagonalization with overlap
     ethr =  1.42E-10,  avg # of iterations =  1.5

     total cpu time spent up to now is       44.4 secs

     total energy              =    -361.59621416 Ry
     estimated scf accuracy    <       0.00000005 Ry

     iteration # 38     ecut=    50.00 Ry     beta= 0.30
     Davidson diagonalization with overlap
     ethr =  1.42E-10,  avg # of iterations =  2.3

     total cpu time spent up to now is       45.3 secs

     End of self-consistent calculation

          k = 0.0000 0.0000 0.0000 (  1715 PWs)   bands (ev):

   -10.0178  -9.2082   2.3663   2.7003   2.7003   2.7737   2.8998   2.8998
     4.3066   4.3066   4.5376   4.5376   4.9072   8.3262   8.3262   8.8429
     9.1255   9.1255

          k = 0.0000 0.0000 0.0983 (  1738 PWs)   bands (ev):

    -9.9672  -9.2664   2.3391   2.7086   2.7086   2.7108   2.8812   2.8812
     4.3261   4.3261   4.5266   4.5266   5.1547   8.2945   8.3798   8.3798
     9.0722   9.0722

          k = 0.0000 0.0000 0.1966 (  1750 PWs)   bands (ev):

    -9.8266  -9.4224   2.3275   2.5604   2.7358   2.7358   2.8348   2.8348
     4.3767   4.3767   4.4929   4.4929   5.7814   7.4522   8.5265   8.5265
     8.9265   8.9265

          k = 0.0000 0.0000-0.2950 (  1762 PWs)   bands (ev):

    -9.6283  -9.6283   2.4069   2.4069   2.7805   2.7805   2.7805   2.7805
     4.4388   4.4388   4.4388   4.4388   6.5917   6.5917   8.7267   8.7267
     8.7267   8.7267

          k = 0.0000 0.1925 0.0000 (  1711 PWs)   bands (ev):

    -9.8260  -9.1096   2.4485   2.6936   2.8054   2.8131   2.9309   3.0477
     4.2172   4.3012   4.5487   4.6396   4.8566   7.2951   7.9302   7.9888
     8.6579   8.8851

          k = 0.0000 0.1925 0.0983 (  1723 PWs)   bands (ev):

    -9.7804  -9.1601   2.4067   2.5517   2.8170   2.8574   2.9310   3.0261
     4.2506   4.3203   4.5347   4.5867   5.1676   7.3462   7.8163   7.9956
     8.5554   8.8222

          k = 0.0000 0.1925 0.1966 (  1732 PWs)   bands (ev):

    -9.6541  -9.2960   2.3205   2.3971   2.8519   2.8660   2.9176   2.9718
     4.3320   4.3703   4.4942   4.5174   5.8433   7.2342   7.6511   8.1730
     8.2668   8.6498

          k = 0.0000 0.1925-0.2950 (  1732 PWs)   bands (ev):

    -9.4774  -9.4774   2.3085   2.3085   2.8866   2.8866   2.9071   2.9071
     4.4294   4.4294   4.4348   4.4348   6.6063   6.6063   7.9147   7.9147
     8.4127   8.4127

          k = 0.0000 0.3849 0.0000 (  1725 PWs)   bands (ev):

    -9.3953  -8.9315   2.2070   2.6316   2.9815   3.1963   3.3995   3.4210
     4.1253   4.3953   4.5758   4.6792   4.9926   5.6151   6.6912   7.1017
     8.0525   8.3580

          k = 0.0000 0.3849 0.0983 (  1716 PWs)   bands (ev):

    -9.3638  -8.9619   2.1779   2.5082   3.0041   3.1770   3.3520   3.3646
     4.1840   4.4062   4.5611   4.6747   5.2302   5.7238   6.6367   7.1930
     8.0333   8.2780

          k = 0.0000 0.3849 0.1966 (  1716 PWs)   bands (ev):

    -9.2779  -9.0456   2.1283   2.2833   3.0688   3.1627   3.2568   3.2753
     4.3123   4.4359   4.5238   4.5871   5.6121   5.9526   6.7297   7.4345
     7.8251   8.0576

          k = 0.0000 0.3849-0.2950 (  1720 PWs)   bands (ev):

    -9.1612  -9.1612   2.1436   2.1436   3.1660   3.1660   3.1900   3.1900
     4.4566   4.4566   4.4781   4.4781   5.8638   5.8638   7.3036   7.3036
     7.7511   7.7511

          k = 0.0000-0.5774 0.0000 (  1706 PWs)   bands (ev):

    -9.1253  -8.8812   2.3249   2.3914   3.0418   3.4489   3.5252   3.6169
     4.3163   4.5237   4.6083   4.7089   5.0417   5.1202   5.9369   6.6273
     7.5356   8.0630

          k = 0.0000-0.5774 0.0983 (  1708 PWs)   bands (ev):

    -9.1070  -8.8954   2.2704   2.3128   3.0719   3.4165   3.4969   3.5670
     4.3907   4.5267   4.5960   4.7059   5.0333   5.0795   6.1947   6.7379
     7.5902   7.9743

          k = 0.0000-0.5774 0.1966 (  1702 PWs)   bands (ev):

    -9.0583  -8.9359   2.1611   2.1701   3.1592   3.3859   3.4411   3.4417
     4.5197   4.5353   4.5718   4.6840   5.0175   5.0312   6.7644   7.0229
     7.5989   7.7294

          k = 0.0000-0.5774-0.2950 (  1708 PWs)   bands (ev):

    -8.9951  -8.9951   2.1059   2.1059   3.2911   3.2911   3.3969   3.3969
     4.5502   4.5502   4.6232   4.6232   5.0123   5.0123   7.3184   7.3184
     7.3854   7.3854

          k = 0.1667 0.2887 0.0000 (  1719 PWs)   bands (ev):

    -9.5129  -8.9715   2.3692   2.6282   2.9787   2.9853   3.2411   3.3302
     4.1369   4.3217   4.5640   4.7316   4.9330   6.3046   6.7220   7.2459
     8.2908   8.3186

          k = 0.1667 0.2887 0.0983 (  1722 PWs)   bands (ev):

    -9.4769  -9.0079   2.3331   2.5293   2.9513   2.9737   3.2081   3.3038
     4.1865   4.3564   4.5492   4.6789   5.2495   6.4037   6.7103   7.2415
     8.2339   8.2356

          k = 0.1667 0.2887 0.1966 (  1724 PWs)   bands (ev):

    -9.3783  -9.1073   2.2600   2.3371   2.9464   2.9602   3.1739   3.2408
     4.3064   4.4067   4.5116   4.5817   5.8400   6.5709   6.7423   7.3618
     7.9658   8.0074

          k = 0.1667 0.2887-0.2950 (  1724 PWs)   bands (ev):

    -9.2431  -9.2431   2.2372   2.2372   2.9563   2.9563   3.1834   3.1834
     4.4405   4.4405   4.4699   4.4699   6.2856   6.2856   7.3096   7.3096
     7.7366   7.7366

          k = 0.1667 0.4811 0.0000 (  1703 PWs)   bands (ev):

    -9.1369  -8.8764   2.4393   2.6669   3.0115   3.2909   3.5823   3.6188
     4.2058   4.3383   4.6280   4.7882   4.9637   5.5364   5.8678   6.2694
     7.4844   7.7597

          k = 0.1667 0.4811 0.0983 (  1713 PWs)   bands (ev):

    -9.1177  -8.8918   2.3991   2.5811   3.0040   3.2530   3.5230   3.5577
     4.2390   4.4307   4.6241   4.8689   4.9165   5.5809   5.9819   6.4084
     7.4651   7.7295

          k = 0.1667 0.4811 0.1966 (  1712 PWs)   bands (ev):

    -9.0662  -8.9355   2.3172   2.4043   3.0250   3.1804   3.4485   3.4715
     4.3512   4.4783   4.6307   4.7803   5.1042   5.4936   6.3547   6.7892
     7.2825   7.6802

          k = 0.1667 0.4811-0.2950 (  1706 PWs)   bands (ev):

    -8.9989  -8.9989   2.2970   2.2970   3.0964   3.0964   3.4283   3.4283
     4.4492   4.4492   4.6793   4.6793   5.3167   5.3167   6.7574   6.7574
     7.4296   7.4296

          k = 0.3333 0.5774 0.0000 (  1716 PWs)   bands (ev):

    -8.9290  -8.9290   2.5873   3.1524   3.1524   3.1949   3.8258   3.8258
     4.1557   4.2863   4.2863   4.3292   5.1151   5.3649   5.3649   6.8788
     6.8788   6.9560

          k = 0.3333 0.5774 0.0983 (  1701 PWs)   bands (ev):

    -8.9264  -8.9264   2.6139   3.0216   3.0216   3.1266   3.7571   3.7571
     4.1760   4.3204   4.4750   4.4750   5.2433   5.3118   5.3118   6.8247
     7.0190   7.0190

          k = 0.3333 0.5774 0.1966 (  1716 PWs)   bands (ev):

    -8.9213  -8.9213   2.6920   2.7990   2.7990   2.9750   3.7058   3.7058
     4.2165   4.2952   4.7573   4.7573   5.1836   5.1836   5.5796   6.4789
     7.2971   7.2971

          k = 0.3333 0.5774-0.2950 (  1728 PWs)   bands (ev):

    -8.9188  -8.9188   2.7025   2.7025   2.8172   2.8172   3.6920   3.6920
     4.2586   4.2586   4.9468   4.9468   5.0477   5.0477   6.0263   6.0263
     7.4366   7.4366

     highest occupied level (ev):     9.1255

!    total energy              =    -361.59621416 Ry
     estimated scf accuracy    <          4.9E-09 Ry

     The total energy is the sum of the following terms:
     one-electron contribution =    -138.61609596 Ry
     hartree contribution      =     112.73284297 Ry
     xc contribution           =    -109.85049843 Ry
     ewald contribution        =    -225.86246275 Ry

     convergence has been achieved in  38 iterations

     Forces acting on atoms (cartesian axes, Ry/au):

     atom    1 type  1   force =     0.00000000    0.00000000    0.02765294
     atom    2 type  1   force =     0.00000000   -0.00000000    0.02765294
     atom    3 type  2   force =     0.00000000   -0.00000000   -0.02765294
     atom    4 type  2   force =     0.00000000    0.00000000   -0.02765294
     The non-local contrib.  to forces
     atom    1 type  1   force =     0.00000000    0.00000000    0.14105816
     atom    2 type  1   force =     0.00000000    0.00000000    0.14105816
     atom    3 type  2   force =     0.00000000    0.00000000    0.11784605
     atom    4 type  2   force =    -0.00000000   -0.00000000    0.11784605
     The ionic contribution  to forces
     atom    1 type  1   force =    -0.00000000    0.00000000    1.17306220
     atom    2 type  1   force =     0.00000000   -0.00000000    1.17306220
     atom    3 type  2   force =    -0.00000000    0.00000000   -1.17306220
     atom    4 type  2   force =     0.00000000   -0.00000000   -1.17306220
     The local contribution  to forces
     atom    1 type  1   force =    -0.00000002    0.00000001   -1.27515530
     atom    2 type  1   force =     0.00000006   -0.00000003   -1.27515530
     atom    3 type  2   force =    -0.00000001    0.00000000    1.02841778
     atom    4 type  2   force =     0.00000002   -0.00000001    1.02841778
     The core correction contribution to forces
     atom    1 type  1   force =    -0.00000000    0.00000000   -0.01130196
     atom    2 type  1   force =     0.00000001   -0.00000000   -0.01130196
     atom    3 type  2   force =     0.00000000   -0.00000000   -0.00085370
     atom    4 type  2   force =    -0.00000000    0.00000000   -0.00085370
     The Hubbard contrib.    to forces
     atom    1 type  1   force =     0.00000000    0.00000000    0.00000000
     atom    2 type  1   force =     0.00000000    0.00000000    0.00000000
     atom    3 type  2   force =     0.00000000    0.00000000    0.00000000
     atom    4 type  2   force =     0.00000000    0.00000000    0.00000000
     The SCF correction term to forces
     atom    1 type  1   force =    -0.00000000    0.00000000   -0.00001464
     atom    2 type  1   force =     0.00000000   -0.00000000   -0.00001464
     atom    3 type  2   force =    -0.00000000    0.00000000   -0.00000535
     atom    4 type  2   force =     0.00000000   -0.00000000   -0.00000535

     Total force =     0.055306     Total SCF correction =     0.000022


     Computing stress (Cartesian axis) and pressure

          total   stress  (Ry/bohr**3)                   (kbar)     P=      253.59
   0.00208872  -0.00000000   0.00000000          307.26       -0.00        0.00
  -0.00000000   0.00208872   0.00000000           -0.00      307.26        0.00
   0.00000000   0.00000000   0.00099414            0.00        0.00      146.24


     Writing all to output data dir ./ZnO_ANN.save/

     init_run     :      1.71s CPU      1.11s WALL (       1 calls)
     electrons    :    116.69s CPU     43.84s WALL (       1 calls)
     forces       :      0.61s CPU      0.27s WALL (       1 calls)
     stress       :      2.20s CPU      1.11s WALL (       1 calls)

     Called by init_run:
     wfcinit      :      0.98s CPU      0.37s WALL (       1 calls)
     potinit      :      0.21s CPU      0.21s WALL (       1 calls)
     hinit0       :      0.42s CPU      0.43s WALL (       1 calls)

     Called by electrons:
     c_bands      :     95.15s CPU     35.40s WALL (      38 calls)
     sum_band     :     15.96s CPU      6.23s WALL (      38 calls)
     v_of_rho     :      1.21s CPU      0.52s WALL (      39 calls)
     newd         :      4.07s CPU      1.58s WALL (      39 calls)
     mix_rho      :      0.21s CPU      0.09s WALL (      38 calls)

     Called by c_bands:
     init_us_2    :      1.41s CPU      0.49s WALL (    2212 calls)
     init_us_2:cp :      1.38s CPU      0.49s WALL (    2212 calls)
     cegterg      :     92.00s CPU     34.19s WALL (    1064 calls)

     Called by *egterg:
     cdiaghg      :     14.55s CPU      4.78s WALL (    5088 calls)
     h_psi        :     64.33s CPU     26.05s WALL (    5116 calls)
     s_psi        :      1.40s CPU      0.42s WALL (    5116 calls)
     g_psi        :      0.43s CPU      0.11s WALL (    4024 calls)

     Called by h_psi:
     h_psi:calbec :      2.06s CPU      0.76s WALL (    5116 calls)
     vloc_psi     :     60.40s CPU     24.68s WALL (    5116 calls)
     add_vuspsi   :      1.36s CPU      0.45s WALL (    5116 calls)

     General routines
     calbec       :      2.65s CPU      0.96s WALL (    6320 calls)
     fft          :      0.85s CPU      0.49s WALL (     530 calls)
     ffts         :      0.15s CPU      0.12s WALL (      77 calls)
     fftw         :     61.84s CPU     25.30s WALL (  146108 calls)
     interpolate  :      0.17s CPU      0.13s WALL (      39 calls)

     Parallel routines

     PWSCF        :   2m 1.75s CPU     46.78s WALL


   This run was terminated on:  15:59:34  13Jun2025            

=------------------------------------------------------------------------------=
   JOB DONE.
=------------------------------------------------------------------------------=
Note: The following floating-point exceptions are signalling: IEEE_INVALID_FLAG
