Authorization required, but no authorization protocol specified

Authorization required, but no authorization protocol specified

Authorization required, but no authorization protocol specified

Authorization required, but no authorization protocol specified

Authorization required, but no authorization protocol specified

Authorization required, but no authorization protocol specified

Authorization required, but no authorization protocol specified

Authorization required, but no authorization protocol specified

Authorization required, but no authorization protocol specified

Authorization required, but no authorization protocol specified


     Program PWSCF v.7.2 starts on 13Jun2025 at 17:57:50 

     This program is part of the open-source Quantum ESPRESSO suite
     for quantum simulation of materials; please cite
         "P. Giannozzi et al., J. Phys.:Condens. Matter 21 395502 (2009);
         "P. Giannozzi et al., J. Phys.:Condens. Matter 29 465901 (2017);
         "P. Giannozzi et al., J. Chem. Phys. 152 154105 (2020);
          URL http://www.quantum-espresso.org", 
     in publications or presentations arising from this work. More details at
     http://www.quantum-espresso.org/quote

     Parallel version (MPI), running on     8 processors

     MPI processes distributed on     1 nodes
     120731 MiB available memory on the printing compute node when the environment starts

     Reading input from /home/jvc/QEspresso7.2/ZnO_database_python/SCFs.in/scf-6.36-1.55.in

     Current dimensions of program PWSCF are:
     Max number of different atomic species (ntypx) = 10
     Max number of k-points (npk) =  40000
     Max angular momentum in pseudopotentials (lmaxx) =  4
     file Zn.upf: wavefunction(s)  3D renormalized

     R & G space division:  proc/nbgrp/npool/nimage =       8
     Subspace diagonalization in iterative solution of the eigenvalue problem:
     a serial algorithm will be used


     Parallelization info
     --------------------
     sticks:   dense  smooth     PW     G-vecs:    dense   smooth      PW
     Min         139      69     20                 5831     2063     344
     Max         141      70     21                 5834     2068     351
     Sum        1123     559    163                46665    16539    2779

     Using Slab Decomposition



     bravais-lattice index     =            4
     lattice parameter (alat)  =       6.3642  a.u.
     unit-cell volume          =     345.9636 (a.u.)^3
     number of atoms/cell      =            4
     number of atomic types    =            2
     number of electrons       =        36.00
     number of Kohn-Sham states=           18
     kinetic-energy cutoff     =      50.0000  Ry
     charge density cutoff     =     400.0000  Ry
     scf convergence threshold =      1.0E-08
     mixing beta               =       0.3000
     number of iterations used =            8  plain     mixing
     Exchange-correlation= PBE
                           (   1   4   3   4   0   0   0)

     celldm(1)=   6.364186  celldm(2)=   0.000000  celldm(3)=   1.549784
     celldm(4)=   0.000000  celldm(5)=   0.000000  celldm(6)=   0.000000

     crystal axes: (cart. coord. in units of alat)
               a(1) = (   1.000000   0.000000   0.000000 )  
               a(2) = (  -0.500000   0.866025   0.000000 )  
               a(3) = (   0.000000   0.000000   1.549784 )  

     reciprocal axes: (cart. coord. in units 2 pi/alat)
               b(1) = (  1.000000  0.577350 -0.000000 )  
               b(2) = (  0.000000  1.154701  0.000000 )  
               b(3) = (  0.000000 -0.000000  0.645251 )  


     PseudoPot. # 1 for Zn read from file:
     /home/jvc/QEspresso7.2/ZnO_database/pseudos/Zn.upf
     MD5 check sum: 7f56cabf9682ed8c977c2f7d0c5985c5
     Pseudo is Ultrasoft + core correction, Zval = 12.0
     Generated using &quot;atomic&quot; code by A. Dal Corso  v.6.2.2
     Using radial grid of 1201 points,  6 beta functions with: 
                l(1) =   0
                l(2) =   0
                l(3) =   1
                l(4) =   1
                l(5) =   2
                l(6) =   2
     Q(r) pseudized with 0 coefficients 


     PseudoPot. # 2 for O  read from file:
     /home/jvc/QEspresso7.2/ZnO_database/pseudos/O.upf
     MD5 check sum: 91400c9766925bcf19f520983a725ff0
     Pseudo is Ultrasoft + core correction, Zval =  6.0
     Generated using &quot;atomic&quot; code by A. Dal Corso  v.6.3MaX
     Using radial grid of 1095 points,  4 beta functions with: 
                l(1) =   0
                l(2) =   0
                l(3) =   1
                l(4) =   1
     Q(r) pseudized with 0 coefficients 


     atomic species   valence    mass     pseudopotential
        Zn            12.00    63.38000     Zn( 1.00)
        O              6.00    15.99900     O ( 1.00)

     12 Sym. Ops. (no inversion) found ( 6 have fractional translation)



   Cartesian axes

     site n.     atom                  positions (alat units)
         1           Zn  tau(   1) = (   0.5000000   0.2886751   0.7758739  )
         2           Zn  tau(   2) = (  -0.0000000   0.5773503   0.0009819  )
         3           O   tau(   3) = (   0.5000000   0.2886751   1.3633085  )
         4           O   tau(   4) = (  -0.0000000   0.5773503   0.5884164  )

     number of k points=    28
                       cart. coord. in units 2pi/alat
        k(    1) = (   0.0000000   0.0000000   0.0000000), wk =   0.0092593
        k(    2) = (   0.0000000   0.0000000   0.1075419), wk =   0.0185185
        k(    3) = (   0.0000000   0.0000000   0.2150837), wk =   0.0185185
        k(    4) = (   0.0000000   0.0000000  -0.3226256), wk =   0.0092593
        k(    5) = (   0.0000000   0.1924501   0.0000000), wk =   0.0555556
        k(    6) = (   0.0000000   0.1924501   0.1075419), wk =   0.1111111
        k(    7) = (   0.0000000   0.1924501   0.2150837), wk =   0.1111111
        k(    8) = (   0.0000000   0.1924501  -0.3226256), wk =   0.0555556
        k(    9) = (   0.0000000   0.3849002   0.0000000), wk =   0.0555556
        k(   10) = (   0.0000000   0.3849002   0.1075419), wk =   0.1111111
        k(   11) = (   0.0000000   0.3849002   0.2150837), wk =   0.1111111
        k(   12) = (   0.0000000   0.3849002  -0.3226256), wk =   0.0555556
        k(   13) = (   0.0000000  -0.5773503   0.0000000), wk =   0.0277778
        k(   14) = (   0.0000000  -0.5773503   0.1075419), wk =   0.0555556
        k(   15) = (   0.0000000  -0.5773503   0.2150837), wk =   0.0555556
        k(   16) = (   0.0000000  -0.5773503  -0.3226256), wk =   0.0277778
        k(   17) = (   0.1666667   0.2886751   0.0000000), wk =   0.0555556
        k(   18) = (   0.1666667   0.2886751   0.1075419), wk =   0.1111111
        k(   19) = (   0.1666667   0.2886751   0.2150837), wk =   0.1111111
        k(   20) = (   0.1666667   0.2886751  -0.3226256), wk =   0.0555556
        k(   21) = (   0.1666667   0.4811252   0.0000000), wk =   0.1111111
        k(   22) = (   0.1666667   0.4811252   0.1075419), wk =   0.2222222
        k(   23) = (   0.1666667   0.4811252   0.2150837), wk =   0.2222222
        k(   24) = (   0.1666667   0.4811252  -0.3226256), wk =   0.1111111
        k(   25) = (   0.3333333   0.5773503   0.0000000), wk =   0.0185185
        k(   26) = (   0.3333333   0.5773503   0.1075419), wk =   0.0370370
        k(   27) = (   0.3333333   0.5773503   0.2150837), wk =   0.0370370
        k(   28) = (   0.3333333   0.5773503  -0.3226256), wk =   0.0185185

     Dense  grid:    46665 G-vectors     FFT dimensions: (  45,  45,  64)

     Smooth grid:    16539 G-vectors     FFT dimensions: (  30,  30,  48)

     Estimated max dynamical RAM per process >      27.05 MB

     Estimated total dynamical RAM >     216.41 MB

     Check: negative core charge=   -0.000002

     Initial potential from superposition of free atoms

     starting charge      35.9925, renormalised to      36.0000
     Starting wfcs are   26 randomized atomic wfcs

     total cpu time spent up to now is        1.6 secs

     Self-consistent Calculation

     iteration #  1     ecut=    50.00 Ry     beta= 0.30
     Davidson diagonalization with overlap
     ethr =  1.00E-02,  avg # of iterations =  1.8

     total cpu time spent up to now is        2.4 secs

     total energy              =    -361.46727046 Ry
     estimated scf accuracy    <       0.71400667 Ry

     iteration #  2     ecut=    50.00 Ry     beta= 0.30
     Davidson diagonalization with overlap
     ethr =  1.98E-03,  avg # of iterations =  2.1

     total cpu time spent up to now is        3.5 secs

     total energy              =    -361.57422781 Ry
     estimated scf accuracy    <       0.08656393 Ry

     iteration #  3     ecut=    50.00 Ry     beta= 0.30
     Davidson diagonalization with overlap
     ethr =  2.40E-04,  avg # of iterations =  6.3

     total cpu time spent up to now is        5.1 secs

     total energy              =    -361.60009790 Ry
     estimated scf accuracy    <       0.06830718 Ry

     iteration #  4     ecut=    50.00 Ry     beta= 0.30
     Davidson diagonalization with overlap
     ethr =  1.90E-04,  avg # of iterations =  8.5

     total cpu time spent up to now is        7.2 secs

     total energy              =    -361.65451401 Ry
     estimated scf accuracy    <       0.31719526 Ry

     iteration #  5     ecut=    50.00 Ry     beta= 0.30
     Davidson diagonalization with overlap
     ethr =  1.90E-04,  avg # of iterations =  2.0

     total cpu time spent up to now is        8.1 secs

     total energy              =    -361.54338005 Ry
     estimated scf accuracy    <       0.19467377 Ry

     iteration #  6     ecut=    50.00 Ry     beta= 0.30
     Davidson diagonalization with overlap
     ethr =  1.90E-04,  avg # of iterations =  7.0

     total cpu time spent up to now is        9.8 secs

     total energy              =    -361.64272038 Ry
     estimated scf accuracy    <       0.08839292 Ry

     iteration #  7     ecut=    50.00 Ry     beta= 0.30
     Davidson diagonalization with overlap
     ethr =  1.90E-04,  avg # of iterations =  1.0

     total cpu time spent up to now is       10.6 secs

     total energy              =    -361.63830433 Ry
     estimated scf accuracy    <       0.06126229 Ry

     iteration #  8     ecut=    50.00 Ry     beta= 0.30
     Davidson diagonalization with overlap
     ethr =  1.70E-04,  avg # of iterations =  1.0

     total cpu time spent up to now is       11.4 secs

     total energy              =    -361.64202180 Ry
     estimated scf accuracy    <       0.03901623 Ry

     iteration #  9     ecut=    50.00 Ry     beta= 0.30
     Davidson diagonalization with overlap
     ethr =  1.08E-04,  avg # of iterations =  1.0

     total cpu time spent up to now is       12.3 secs

     total energy              =    -361.64276093 Ry
     estimated scf accuracy    <       0.04297652 Ry

     iteration # 10     ecut=    50.00 Ry     beta= 0.30
     Davidson diagonalization with overlap
     ethr =  1.08E-04,  avg # of iterations =  1.0

     total cpu time spent up to now is       13.1 secs

     total energy              =    -361.64289411 Ry
     estimated scf accuracy    <       0.04311019 Ry

     iteration # 11     ecut=    50.00 Ry     beta= 0.30
     Davidson diagonalization with overlap
     ethr =  1.08E-04,  avg # of iterations =  1.0

     total cpu time spent up to now is       13.9 secs

     total energy              =    -361.61014481 Ry
     estimated scf accuracy    <       0.04278853 Ry

     iteration # 12     ecut=    50.00 Ry     beta= 0.30
     Davidson diagonalization with overlap
     ethr =  1.08E-04,  avg # of iterations =  7.3

     total cpu time spent up to now is       15.7 secs

     total energy              =    -361.63792344 Ry
     estimated scf accuracy    <       0.06655468 Ry

     iteration # 13     ecut=    50.00 Ry     beta= 0.30
     Davidson diagonalization with overlap
     ethr =  1.08E-04,  avg # of iterations =  1.0

     total cpu time spent up to now is       16.5 secs

     total energy              =    -361.63775999 Ry
     estimated scf accuracy    <       0.04178414 Ry

     iteration # 14     ecut=    50.00 Ry     beta= 0.30
     Davidson diagonalization with overlap
     ethr =  1.08E-04,  avg # of iterations =  1.0

     total cpu time spent up to now is       17.4 secs

     total energy              =    -361.63534765 Ry
     estimated scf accuracy    <       0.03696433 Ry

     iteration # 15     ecut=    50.00 Ry     beta= 0.30
     Davidson diagonalization with overlap
     ethr =  1.03E-04,  avg # of iterations =  1.0

     total cpu time spent up to now is       18.2 secs

     total energy              =    -361.63922525 Ry
     estimated scf accuracy    <       0.02826298 Ry

     iteration # 16     ecut=    50.00 Ry     beta= 0.30
     Davidson diagonalization with overlap
     ethr =  7.85E-05,  avg # of iterations =  1.0

     total cpu time spent up to now is       19.0 secs

     total energy              =    -361.63912751 Ry
     estimated scf accuracy    <       0.03362109 Ry

     iteration # 17     ecut=    50.00 Ry     beta= 0.30
     Davidson diagonalization with overlap
     ethr =  7.85E-05,  avg # of iterations =  1.0

     total cpu time spent up to now is       19.8 secs

     total energy              =    -361.63038826 Ry
     estimated scf accuracy    <       0.03100497 Ry

     iteration # 18     ecut=    50.00 Ry     beta= 0.30
     Davidson diagonalization with overlap
     ethr =  7.85E-05,  avg # of iterations =  1.6

     total cpu time spent up to now is       20.6 secs

     total energy              =    -361.63219935 Ry
     estimated scf accuracy    <       0.01164746 Ry

     iteration # 19     ecut=    50.00 Ry     beta= 0.30
     Davidson diagonalization with overlap
     ethr =  3.24E-05,  avg # of iterations =  1.9

     total cpu time spent up to now is       21.5 secs

     total energy              =    -361.62878066 Ry
     estimated scf accuracy    <       0.00999992 Ry

     iteration # 20     ecut=    50.00 Ry     beta= 0.30
     Davidson diagonalization with overlap
     ethr =  2.78E-05,  avg # of iterations =  4.4

     total cpu time spent up to now is       22.8 secs

     total energy              =    -361.63270042 Ry
     estimated scf accuracy    <       0.00037827 Ry

     iteration # 21     ecut=    50.00 Ry     beta= 0.30
     Davidson diagonalization with overlap
     ethr =  1.05E-06,  avg # of iterations =  5.5

     total cpu time spent up to now is       24.1 secs

     total energy              =    -361.63256648 Ry
     estimated scf accuracy    <       0.00134239 Ry

     iteration # 22     ecut=    50.00 Ry     beta= 0.30
     Davidson diagonalization with overlap
     ethr =  1.05E-06,  avg # of iterations =  2.0

     total cpu time spent up to now is       25.0 secs

     total energy              =    -361.63223462 Ry
     estimated scf accuracy    <       0.00061545 Ry

     iteration # 23     ecut=    50.00 Ry     beta= 0.30
     Davidson diagonalization with overlap
     ethr =  1.05E-06,  avg # of iterations =  7.6

     total cpu time spent up to now is       26.9 secs

     total energy              =    -361.63241670 Ry
     estimated scf accuracy    <       0.00045995 Ry

     iteration # 24     ecut=    50.00 Ry     beta= 0.30
     Davidson diagonalization with overlap
     ethr =  1.05E-06,  avg # of iterations =  4.4

     total cpu time spent up to now is       28.2 secs

     total energy              =    -361.63270057 Ry
     estimated scf accuracy    <       0.00011966 Ry

     iteration # 25     ecut=    50.00 Ry     beta= 0.30
     Davidson diagonalization with overlap
     ethr =  3.32E-07,  avg # of iterations =  4.9

     total cpu time spent up to now is       29.5 secs

     total energy              =    -361.63284964 Ry
     estimated scf accuracy    <       0.00051922 Ry

     iteration # 26     ecut=    50.00 Ry     beta= 0.30
     Davidson diagonalization with overlap
     ethr =  3.32E-07,  avg # of iterations =  4.3

     total cpu time spent up to now is       30.6 secs

     total energy              =    -361.63258267 Ry
     estimated scf accuracy    <       0.00106191 Ry

     iteration # 27     ecut=    50.00 Ry     beta= 0.30
     Davidson diagonalization with overlap
     ethr =  3.32E-07,  avg # of iterations =  4.4

     total cpu time spent up to now is       31.8 secs

     total energy              =    -361.63245617 Ry
     estimated scf accuracy    <       0.00030244 Ry

     iteration # 28     ecut=    50.00 Ry     beta= 0.30
     Davidson diagonalization with overlap
     ethr =  3.32E-07,  avg # of iterations =  7.7

     total cpu time spent up to now is       33.6 secs

     total energy              =    -361.63254572 Ry
     estimated scf accuracy    <       0.00008923 Ry

     iteration # 29     ecut=    50.00 Ry     beta= 0.30
     Davidson diagonalization with overlap
     ethr =  2.48E-07,  avg # of iterations =  4.6

     total cpu time spent up to now is       34.9 secs

     total energy              =    -361.63257905 Ry
     estimated scf accuracy    <       0.00002862 Ry

     iteration # 30     ecut=    50.00 Ry     beta= 0.30
     Davidson diagonalization with overlap
     ethr =  7.95E-08,  avg # of iterations =  1.8

     total cpu time spent up to now is       35.8 secs

     total energy              =    -361.63257360 Ry
     estimated scf accuracy    <       0.00001304 Ry

     iteration # 31     ecut=    50.00 Ry     beta= 0.30
     Davidson diagonalization with overlap
     ethr =  3.62E-08,  avg # of iterations =  5.0

     total cpu time spent up to now is       37.2 secs

     total energy              =    -361.63258045 Ry
     estimated scf accuracy    <       0.00000234 Ry

     iteration # 32     ecut=    50.00 Ry     beta= 0.30
     Davidson diagonalization with overlap
     ethr =  6.50E-09,  avg # of iterations =  2.6

     total cpu time spent up to now is       38.1 secs

     total energy              =    -361.63258067 Ry
     estimated scf accuracy    <       0.00000188 Ry

     iteration # 33     ecut=    50.00 Ry     beta= 0.30
     Davidson diagonalization with overlap
     ethr =  5.23E-09,  avg # of iterations =  1.0

     total cpu time spent up to now is       38.9 secs

     total energy              =    -361.63258031 Ry
     estimated scf accuracy    <       0.00000179 Ry

     iteration # 34     ecut=    50.00 Ry     beta= 0.30
     Davidson diagonalization with overlap
     ethr =  4.97E-09,  avg # of iterations =  1.1

     total cpu time spent up to now is       39.7 secs

     total energy              =    -361.63258081 Ry
     estimated scf accuracy    <       0.00000097 Ry

     iteration # 35     ecut=    50.00 Ry     beta= 0.30
     Davidson diagonalization with overlap
     ethr =  2.70E-09,  avg # of iterations =  1.5

     total cpu time spent up to now is       40.6 secs

     total energy              =    -361.63257978 Ry
     estimated scf accuracy    <       0.00000189 Ry

     iteration # 36     ecut=    50.00 Ry     beta= 0.30
     Davidson diagonalization with overlap
     ethr =  2.70E-09,  avg # of iterations =  4.7

     total cpu time spent up to now is       41.9 secs

     total energy              =    -361.63258038 Ry
     estimated scf accuracy    <       0.00000016 Ry

     iteration # 37     ecut=    50.00 Ry     beta= 0.30
     Davidson diagonalization with overlap
     ethr =  4.43E-10,  avg # of iterations =  2.8

     total cpu time spent up to now is       42.8 secs

     total energy              =    -361.63258031 Ry
     estimated scf accuracy    <       0.00000022 Ry

     iteration # 38     ecut=    50.00 Ry     beta= 0.30
     Davidson diagonalization with overlap
     ethr =  4.43E-10,  avg # of iterations =  2.0

     total cpu time spent up to now is       43.7 secs

     total energy              =    -361.63258032 Ry
     estimated scf accuracy    <       0.00000008 Ry

     iteration # 39     ecut=    50.00 Ry     beta= 0.30
     Davidson diagonalization with overlap
     ethr =  2.27E-10,  avg # of iterations =  1.2

     total cpu time spent up to now is       44.5 secs

     total energy              =    -361.63258031 Ry
     estimated scf accuracy    <       0.00000009 Ry

     iteration # 40     ecut=    50.00 Ry     beta= 0.30
     Davidson diagonalization with overlap
     ethr =  2.27E-10,  avg # of iterations =  1.8

     total cpu time spent up to now is       45.4 secs

     total energy              =    -361.63258031 Ry
     estimated scf accuracy    <       0.00000005 Ry

     iteration # 41     ecut=    50.00 Ry     beta= 0.30
     Davidson diagonalization with overlap
     ethr =  1.44E-10,  avg # of iterations =  2.0

     total cpu time spent up to now is       46.3 secs

     total energy              =    -361.63258031 Ry
     estimated scf accuracy    <       0.00000003 Ry

     iteration # 42     ecut=    50.00 Ry     beta= 0.30
     Davidson diagonalization with overlap
     ethr =  8.90E-11,  avg # of iterations =  2.9

     total cpu time spent up to now is       47.2 secs

     total energy              =    -361.63258031 Ry
     estimated scf accuracy    <       0.00000001 Ry

     iteration # 43     ecut=    50.00 Ry     beta= 0.30
     Davidson diagonalization with overlap
     ethr =  3.08E-11,  avg # of iterations =  3.6

     total cpu time spent up to now is       48.2 secs

     End of self-consistent calculation

          k = 0.0000 0.0000 0.0000 (  2057 PWs)   bands (ev):

   -11.3249 -10.6555   0.8552   0.8552   0.8677   1.0461   1.0461   1.1873
     1.7971   1.7971   1.9973   1.9973   2.2107   5.3679   5.3679   6.1721
     6.1721   6.1816

          k = 0.0000 0.0000 0.1075 (  2056 PWs)   bands (ev):

   -11.2818 -10.7020   0.8216   0.8605   0.8605   0.9802   1.0248   1.0248
     1.8169   1.8169   1.9909   1.9909   2.5926   5.4237   5.4237   5.6096
     6.1203   6.1203

          k = 0.0000 0.0000 0.2151 (  2062 PWs)   bands (ev):

   -11.1627 -10.8279   0.7233   0.7427   0.8802   0.8802   0.9740   0.9740
     1.8661   1.8661   1.9674   1.9674   3.3150   4.8545   5.5749   5.5749
     5.9773   5.9773

          k = 0.0000 0.0000-0.3226 (  2062 PWs)   bands (ev):

   -10.9970 -10.9970   0.6666   0.6666   0.9197   0.9197   0.9197   0.9197
     1.9232   1.9232   1.9232   1.9232   4.0924   4.0924   5.7781   5.7781
     5.7781   5.7781

          k = 0.0000 0.1925 0.0000 (  2069 PWs)   bands (ev):

   -11.2043 -10.6128   0.7441   0.9205   0.9389   1.0416   1.1508   1.3506
     1.7520   1.7981   2.0092   2.1305   2.2006   4.5400   5.0516   5.0825
     6.0012   6.0156

          k = 0.0000 0.1925 0.1075 (  2059 PWs)   bands (ev):

   -11.1655 -10.6530   0.7121   0.9035   0.9289   0.9848   1.1272   1.1663
     1.7832   1.8166   1.9998   2.0410   2.6698   4.5975   4.9349   5.1194
     5.9445   5.9538

          k = 0.0000 0.1925 0.2151 (  2051 PWs)   bands (ev):

   -11.0587 -10.7626   0.6386   0.7168   0.9527   0.9565   1.0461   1.0695
     1.8521   1.8638   1.9699   1.9936   3.3563   4.4483   4.9493   5.3018
     5.7011   5.7831

          k = 0.0000 0.1925-0.3226 (  2054 PWs)   bands (ev):

   -10.9113 -10.9113   0.6111   0.6111   0.9833   0.9833   1.0057   1.0057
     1.9210   1.9210   1.9295   1.9295   3.9741   3.9741   5.3106   5.3106
     5.5454   5.5454

          k = 0.0000 0.3849 0.0000 (  2060 PWs)   bands (ev):

   -10.9321 -10.5483   0.6485   0.9587   1.0221   1.2018   1.4058   1.5316
     1.7727   1.8653   2.0275   2.1781   2.5049   3.2489   4.0275   4.4088
     5.4830   5.6726

          k = 0.0000 0.3849 0.1075 (  2064 PWs)   bands (ev):

   -10.9052 -10.5725   0.6133   0.8754   1.0409   1.1724   1.3715   1.3848
     1.7912   1.8751   2.0138   2.1241   2.7435   3.4082   4.0142   4.5028
     5.5286   5.5935

          k = 0.0000 0.3849 0.2151 (  2070 PWs)   bands (ev):

   -10.8324 -10.6399   0.5459   0.6744   1.0964   1.1405   1.2331   1.2853
     1.8734   1.9018   1.9802   2.0540   3.0129   3.4446   4.4040   4.7494
     5.3749   5.4545

          k = 0.0000 0.3849-0.3226 (  2068 PWs)   bands (ev):

   -10.7348 -10.7348   0.5431   0.5431   1.1601   1.1601   1.1834   1.1834
     1.9396   1.9396   1.9689   1.9689   3.2449   3.2449   5.0420   5.0420
     5.0688   5.0688

          k = 0.0000-0.5774 0.0000 (  2072 PWs)   bands (ev):

   -10.7570 -10.5496   0.6937   0.9901   1.0535   1.3908   1.3986   1.5635
     1.8449   1.9475   2.0369   2.0903   2.6152   2.9722   3.5884   4.0572
     5.0551   5.4869

          k = 0.0000-0.5774 0.1075 (  2062 PWs)   bands (ev):

   -10.7409 -10.5610   0.6494   0.8674   1.0792   1.3634   1.3678   1.5198
     1.9070   1.9500   2.0209   2.0905   2.5729   2.8993   3.8966   4.1698
     5.1699   5.3997

          k = 0.0000-0.5774 0.2151 (  2076 PWs)   bands (ev):

   -10.6982 -10.5941   0.5617   0.6514   1.1541   1.3226   1.3277   1.4066
     1.9573   1.9923   1.9988   2.0842   2.5666   2.7601   4.4569   4.5169
     5.1584   5.2812

          k = 0.0000-0.5774-0.3226 (  2068 PWs)   bands (ev):

   -10.6438 -10.6438   0.5370   0.5370   1.2707   1.2707   1.3089   1.3089
     1.9709   1.9709   2.0581   2.0581   2.6382   2.6382   4.8181   4.8181
     5.0640   5.0640

          k = 0.1667 0.2887 0.0000 (  2059 PWs)   bands (ev):

   -11.0067 -10.5598   0.7304   0.8867   1.0321   1.1137   1.3451   1.5515
     1.7145   1.8220   2.0218   2.1702   2.4340   3.8316   3.9596   4.5719
     5.6245   5.6619

          k = 0.1667 0.2887 0.1075 (  2059 PWs)   bands (ev):

   -10.9761 -10.5888   0.6898   0.8524   1.0215   1.0852   1.3138   1.3312
     1.7560   1.8551   2.0101   2.1099   2.7912   3.9373   3.9936   4.5676
     5.5411   5.6825

          k = 0.1667 0.2887 0.2151 (  2064 PWs)   bands (ev):

   -10.8927 -10.6688   0.6082   0.7014   1.0205   1.0596   1.1689   1.2386
     1.8488   1.8922   1.9801   2.0432   3.2356   3.7938   4.4829   4.7067
     5.3159   5.5564

          k = 0.1667 0.2887-0.3226 (  2058 PWs)   bands (ev):

   -10.7799 -10.7799   0.5884   0.5884   1.0451   1.0451   1.1642   1.1642
     1.9262   1.9262   1.9640   1.9640   3.5505   3.5505   4.9657   4.9657
     5.1467   5.1467

          k = 0.1667 0.4811 0.0000 (  2071 PWs)   bands (ev):

   -10.7632 -10.5458   0.7787   0.9915   1.1491   1.2588   1.5267   1.6000
     1.8084   1.8506   2.0450   2.2053   2.5331   3.1048   3.5431   3.8542
     5.0421   5.2116

          k = 0.1667 0.4811 0.1075 (  2063 PWs)   bands (ev):

   -10.7464 -10.5579   0.7463   0.9432   1.0816   1.2485   1.4491   1.5250
     1.8110   1.9107   2.0406   2.1999   2.5661   3.1209   3.6320   4.0887
     5.0471   5.2172

          k = 0.1667 0.4811 0.2151 (  2069 PWs)   bands (ev):

   -10.7020 -10.5929   0.6646   0.7607   1.0853   1.2232   1.3522   1.3933
     1.8771   1.9325   2.0530   2.1572   2.6859   3.0074   3.9492   4.6040
     4.8100   5.3243

          k = 0.1667 0.4811-0.3226 (  2070 PWs)   bands (ev):

   -10.6452 -10.6452   0.6417   0.6417   1.1663   1.1663   1.3204   1.3204
     1.9210   1.9210   2.0983   2.0983   2.8444   2.8444   4.3597   4.3597
     5.1517   5.1517

          k = 0.3333 0.5774 0.0000 (  2091 PWs)   bands (ev):

   -10.6118 -10.6118   0.8308   1.1369   1.1369   1.6469   1.6816   1.6816
     1.7717   1.8751   1.9774   1.9774   2.6164   2.8554   2.8554   4.4516
     4.4516   4.7401

          k = 0.3333 0.5774 0.1075 (  2070 PWs)   bands (ev):

   -10.6090 -10.6090   0.8592   1.0544   1.0544   1.5168   1.5850   1.5850
     1.7804   1.8685   2.0842   2.0842   2.8081   2.8081   2.8196   4.6072
     4.6513   4.6513

          k = 0.3333 0.5774 0.2151 (  2070 PWs)   bands (ev):

   -10.6035 -10.6035   0.8854   0.8854   0.9446   1.2888   1.5015   1.5015
     1.7998   1.8505   2.2042   2.2042   2.7365   2.7365   3.2583   4.2510
     5.0220   5.0220

          k = 0.3333 0.5774-0.3226 (  2058 PWs)   bands (ev):

   -10.6007 -10.6007   0.8041   0.8041   1.0890   1.0890   1.4784   1.4784
     1.8253   1.8253   2.2484   2.2484   2.7074   2.7074   3.7680   3.7680
     5.1992   5.1992

     highest occupied level (ev):     6.1816

!    total energy              =    -361.63258031 Ry
     estimated scf accuracy    <          5.1E-09 Ry

     The total energy is the sum of the following terms:
     one-electron contribution =    -160.28394304 Ry
     hartree contribution      =     120.39161610 Ry
     xc contribution           =    -109.45390873 Ry
     ewald contribution        =    -212.28634464 Ry

     convergence has been achieved in  43 iterations

     Forces acting on atoms (cartesian axes, Ry/au):

     atom    1 type  1   force =     0.00000000   -0.00000000   -0.01076236
     atom    2 type  1   force =     0.00000000    0.00000000   -0.01076236
     atom    3 type  2   force =     0.00000000    0.00000000    0.01076236
     atom    4 type  2   force =     0.00000000    0.00000000    0.01076236
     The non-local contrib.  to forces
     atom    1 type  1   force =     0.00000000   -0.00000000   -0.11955492
     atom    2 type  1   force =     0.00000000    0.00000000   -0.11955492
     atom    3 type  2   force =     0.00000000   -0.00000000   -0.09266955
     atom    4 type  2   force =     0.00000000    0.00000000   -0.09266955
     The ionic contribution  to forces
     atom    1 type  1   force =    -0.00000000    0.00000000   -0.75340589
     atom    2 type  1   force =     0.00000000   -0.00000000   -0.75340589
     atom    3 type  2   force =    -0.00000000    0.00000000    0.75340589
     atom    4 type  2   force =     0.00000000   -0.00000000    0.75340589
     The local contribution  to forces
     atom    1 type  1   force =    -0.00000002    0.00000001    0.85364741
     atom    2 type  1   force =     0.00000007   -0.00000004    0.85364741
     atom    3 type  2   force =    -0.00000001    0.00000000   -0.65069435
     atom    4 type  2   force =     0.00000002   -0.00000001   -0.65069435
     The core correction contribution to forces
     atom    1 type  1   force =    -0.00000000    0.00000000    0.00854755
     atom    2 type  1   force =     0.00000001   -0.00000001    0.00854755
     atom    3 type  2   force =     0.00000000   -0.00000000    0.00071695
     atom    4 type  2   force =    -0.00000000    0.00000000    0.00071695
     The Hubbard contrib.    to forces
     atom    1 type  1   force =     0.00000000    0.00000000    0.00000000
     atom    2 type  1   force =     0.00000000    0.00000000    0.00000000
     atom    3 type  2   force =     0.00000000    0.00000000    0.00000000
     atom    4 type  2   force =     0.00000000    0.00000000    0.00000000
     The SCF correction term to forces
     atom    1 type  1   force =     0.00000000   -0.00000000    0.00000244
     atom    2 type  1   force =    -0.00000000    0.00000000    0.00000244
     atom    3 type  2   force =    -0.00000000    0.00000000    0.00000237
     atom    4 type  2   force =     0.00000000   -0.00000000    0.00000237

     Total force =     0.021525     Total SCF correction =     0.000005


     Computing stress (Cartesian axis) and pressure

          total   stress  (Ry/bohr**3)                   (kbar)     P=      -55.90
  -0.00054882   0.00000000   0.00000000          -80.73        0.00        0.00
   0.00000000  -0.00054882   0.00000000            0.00      -80.73        0.00
   0.00000000   0.00000000  -0.00004246            0.00        0.00       -6.25


     Writing all to output data dir ./ZnO_ANN.save/

     init_run     :      1.88s CPU      1.25s WALL (       1 calls)
     electrons    :    124.10s CPU     46.67s WALL (       1 calls)
     forces       :      0.73s CPU      0.35s WALL (       1 calls)
     stress       :      2.47s CPU      1.22s WALL (       1 calls)

     Called by init_run:
     wfcinit      :      1.04s CPU      0.40s WALL (       1 calls)
     potinit      :      0.27s CPU      0.28s WALL (       1 calls)
     hinit0       :      0.44s CPU      0.45s WALL (       1 calls)

     Called by electrons:
     c_bands      :     96.57s CPU     35.86s WALL (      43 calls)
     sum_band     :     20.20s CPU      7.83s WALL (      43 calls)
     v_of_rho     :      1.69s CPU      0.73s WALL (      44 calls)
     newd         :      5.23s CPU      2.10s WALL (      44 calls)
     mix_rho      :      0.29s CPU      0.12s WALL (      43 calls)

     Called by c_bands:
     init_us_2    :      1.86s CPU      0.66s WALL (    2492 calls)
     init_us_2:cp :      1.83s CPU      0.64s WALL (    2492 calls)
     cegterg      :     92.38s CPU     34.25s WALL (    1204 calls)

     Called by *egterg:
     cdiaghg      :     13.88s CPU      4.49s WALL (    4909 calls)
     h_psi        :     65.03s CPU     26.41s WALL (    4937 calls)
     s_psi        :      1.51s CPU      0.43s WALL (    4937 calls)
     g_psi        :      0.47s CPU      0.12s WALL (    3705 calls)

     Called by h_psi:
     h_psi:calbec :      2.20s CPU      0.79s WALL (    4937 calls)
     vloc_psi     :     60.80s CPU     24.98s WALL (    4937 calls)
     add_vuspsi   :      1.48s CPU      0.47s WALL (    4937 calls)

     General routines
     calbec       :      2.98s CPU      1.05s WALL (    6281 calls)
     fft          :      1.07s CPU      0.54s WALL (     595 calls)
     ffts         :      0.20s CPU      0.15s WALL (      87 calls)
     fftw         :     62.35s CPU     25.68s WALL (  143556 calls)
     interpolate  :      0.24s CPU      0.18s WALL (      44 calls)

     Parallel routines

     PWSCF        :   2m 9.73s CPU     49.97s WALL


   This run was terminated on:  17:58:40  13Jun2025            

=------------------------------------------------------------------------------=
   JOB DONE.
=------------------------------------------------------------------------------=
Note: The following floating-point exceptions are signalling: IEEE_INVALID_FLAG
