Authorization required, but no authorization protocol specified

Authorization required, but no authorization protocol specified

Authorization required, but no authorization protocol specified

Authorization required, but no authorization protocol specified

Authorization required, but no authorization protocol specified

Authorization required, but no authorization protocol specified

Authorization required, but no authorization protocol specified

Authorization required, but no authorization protocol specified

Authorization required, but no authorization protocol specified

Authorization required, but no authorization protocol specified


     Program PWSCF v.7.2 starts on 13Jun2025 at 17:22:44 

     This program is part of the open-source Quantum ESPRESSO suite
     for quantum simulation of materials; please cite
         "P. Giannozzi et al., J. Phys.:Condens. Matter 21 395502 (2009);
         "P. Giannozzi et al., J. Phys.:Condens. Matter 29 465901 (2017);
         "P. Giannozzi et al., J. Chem. Phys. 152 154105 (2020);
          URL http://www.quantum-espresso.org", 
     in publications or presentations arising from this work. More details at
     http://www.quantum-espresso.org/quote

     Parallel version (MPI), running on     8 processors

     MPI processes distributed on     1 nodes
     120718 MiB available memory on the printing compute node when the environment starts

     Reading input from /home/jvc/QEspresso7.2/ZnO_database_python/SCFs.in/scf-6.24-1.47.in

     Current dimensions of program PWSCF are:
     Max number of different atomic species (ntypx) = 10
     Max number of k-points (npk) =  40000
     Max angular momentum in pseudopotentials (lmaxx) =  4
     file Zn.upf: wavefunction(s)  3D renormalized

     R & G space division:  proc/nbgrp/npool/nimage =       8
     Subspace diagonalization in iterative solution of the eigenvalue problem:
     a serial algorithm will be used


     Parallelization info
     --------------------
     sticks:   dense  smooth     PW     G-vecs:    dense   smooth      PW
     Min         133      66     20                 5217     1836     314
     Max         134      68     21                 5224     1839     319
     Sum        1069     535    163                41771    14699    2525

     Using Slab Decomposition



     bravais-lattice index     =            4
     lattice parameter (alat)  =       6.2406  a.u.
     unit-cell volume          =     309.2096 (a.u.)^3
     number of atoms/cell      =            4
     number of atomic types    =            2
     number of electrons       =        36.00
     number of Kohn-Sham states=           18
     kinetic-energy cutoff     =      50.0000  Ry
     charge density cutoff     =     400.0000  Ry
     scf convergence threshold =      1.0E-08
     mixing beta               =       0.3000
     number of iterations used =            8  plain     mixing
     Exchange-correlation= PBE
                           (   1   4   3   4   0   0   0)

     celldm(1)=   6.240610  celldm(2)=   0.000000  celldm(3)=   1.469066
     celldm(4)=   0.000000  celldm(5)=   0.000000  celldm(6)=   0.000000

     crystal axes: (cart. coord. in units of alat)
               a(1) = (   1.000000   0.000000   0.000000 )  
               a(2) = (  -0.500000   0.866025   0.000000 )  
               a(3) = (   0.000000   0.000000   1.469066 )  

     reciprocal axes: (cart. coord. in units 2 pi/alat)
               b(1) = (  1.000000  0.577350 -0.000000 )  
               b(2) = (  0.000000  1.154701  0.000000 )  
               b(3) = (  0.000000 -0.000000  0.680705 )  


     PseudoPot. # 1 for Zn read from file:
     /home/jvc/QEspresso7.2/ZnO_database/pseudos/Zn.upf
     MD5 check sum: 7f56cabf9682ed8c977c2f7d0c5985c5
     Pseudo is Ultrasoft + core correction, Zval = 12.0
     Generated using &quot;atomic&quot; code by A. Dal Corso  v.6.2.2
     Using radial grid of 1201 points,  6 beta functions with: 
                l(1) =   0
                l(2) =   0
                l(3) =   1
                l(4) =   1
                l(5) =   2
                l(6) =   2
     Q(r) pseudized with 0 coefficients 


     PseudoPot. # 2 for O  read from file:
     /home/jvc/QEspresso7.2/ZnO_database/pseudos/O.upf
     MD5 check sum: 91400c9766925bcf19f520983a725ff0
     Pseudo is Ultrasoft + core correction, Zval =  6.0
     Generated using &quot;atomic&quot; code by A. Dal Corso  v.6.3MaX
     Using radial grid of 1095 points,  4 beta functions with: 
                l(1) =   0
                l(2) =   0
                l(3) =   1
                l(4) =   1
     Q(r) pseudized with 0 coefficients 


     atomic species   valence    mass     pseudopotential
        Zn            12.00    63.38000     Zn( 1.00)
        O              6.00    15.99900     O ( 1.00)

     12 Sym. Ops. (no inversion) found ( 6 have fractional translation)



   Cartesian axes

     site n.     atom                  positions (alat units)
         1           Zn  tau(   1) = (   0.5000000   0.2886751   0.7354638  )
         2           Zn  tau(   2) = (  -0.0000000   0.5773503   0.0009308  )
         3           O   tau(   3) = (   0.5000000   0.2886751   1.2923028  )
         4           O   tau(   4) = (  -0.0000000   0.5773503   0.5577698  )

     number of k points=    28
                       cart. coord. in units 2pi/alat
        k(    1) = (   0.0000000   0.0000000   0.0000000), wk =   0.0092593
        k(    2) = (   0.0000000   0.0000000   0.1134508), wk =   0.0185185
        k(    3) = (   0.0000000   0.0000000   0.2269015), wk =   0.0185185
        k(    4) = (   0.0000000   0.0000000  -0.3403523), wk =   0.0092593
        k(    5) = (   0.0000000   0.1924501   0.0000000), wk =   0.0555556
        k(    6) = (   0.0000000   0.1924501   0.1134508), wk =   0.1111111
        k(    7) = (   0.0000000   0.1924501   0.2269015), wk =   0.1111111
        k(    8) = (   0.0000000   0.1924501  -0.3403523), wk =   0.0555556
        k(    9) = (   0.0000000   0.3849002   0.0000000), wk =   0.0555556
        k(   10) = (   0.0000000   0.3849002   0.1134508), wk =   0.1111111
        k(   11) = (   0.0000000   0.3849002   0.2269015), wk =   0.1111111
        k(   12) = (   0.0000000   0.3849002  -0.3403523), wk =   0.0555556
        k(   13) = (   0.0000000  -0.5773503   0.0000000), wk =   0.0277778
        k(   14) = (   0.0000000  -0.5773503   0.1134508), wk =   0.0555556
        k(   15) = (   0.0000000  -0.5773503   0.2269015), wk =   0.0555556
        k(   16) = (   0.0000000  -0.5773503  -0.3403523), wk =   0.0277778
        k(   17) = (   0.1666667   0.2886751   0.0000000), wk =   0.0555556
        k(   18) = (   0.1666667   0.2886751   0.1134508), wk =   0.1111111
        k(   19) = (   0.1666667   0.2886751   0.2269015), wk =   0.1111111
        k(   20) = (   0.1666667   0.2886751  -0.3403523), wk =   0.0555556
        k(   21) = (   0.1666667   0.4811252   0.0000000), wk =   0.1111111
        k(   22) = (   0.1666667   0.4811252   0.1134508), wk =   0.2222222
        k(   23) = (   0.1666667   0.4811252   0.2269015), wk =   0.2222222
        k(   24) = (   0.1666667   0.4811252  -0.3403523), wk =   0.1111111
        k(   25) = (   0.3333333   0.5773503   0.0000000), wk =   0.0185185
        k(   26) = (   0.3333333   0.5773503   0.1134508), wk =   0.0370370
        k(   27) = (   0.3333333   0.5773503   0.2269015), wk =   0.0370370
        k(   28) = (   0.3333333   0.5773503  -0.3403523), wk =   0.0185185

     Dense  grid:    41771 G-vectors     FFT dimensions: (  40,  40,  60)

     Smooth grid:    14699 G-vectors     FFT dimensions: (  30,  30,  48)

     Estimated max dynamical RAM per process >      24.41 MB

     Estimated total dynamical RAM >     195.32 MB

     Check: negative core charge=   -0.000002

     Initial potential from superposition of free atoms

     starting charge      35.9925, renormalised to      36.0000
     Starting wfcs are   26 randomized atomic wfcs

     total cpu time spent up to now is        1.6 secs

     Self-consistent Calculation

     iteration #  1     ecut=    50.00 Ry     beta= 0.30
     Davidson diagonalization with overlap
     ethr =  1.00E-02,  avg # of iterations =  2.0

     total cpu time spent up to now is        2.4 secs

     total energy              =    -361.45641475 Ry
     estimated scf accuracy    <       0.69449789 Ry

     iteration #  2     ecut=    50.00 Ry     beta= 0.30
     Davidson diagonalization with overlap
     ethr =  1.93E-03,  avg # of iterations =  2.0

     total cpu time spent up to now is        3.4 secs

     total energy              =    -361.54264216 Ry
     estimated scf accuracy    <       0.10151889 Ry

     iteration #  3     ecut=    50.00 Ry     beta= 0.30
     Davidson diagonalization with overlap
     ethr =  2.82E-04,  avg # of iterations =  6.0

     total cpu time spent up to now is        5.0 secs

     total energy              =    -361.58039627 Ry
     estimated scf accuracy    <       0.06783133 Ry

     iteration #  4     ecut=    50.00 Ry     beta= 0.30
     Davidson diagonalization with overlap
     ethr =  1.88E-04,  avg # of iterations =  7.0

     total cpu time spent up to now is        6.7 secs

     total energy              =    -361.62849773 Ry
     estimated scf accuracy    <       0.13263735 Ry

     iteration #  5     ecut=    50.00 Ry     beta= 0.30
     Davidson diagonalization with overlap
     ethr =  1.88E-04,  avg # of iterations =  1.0

     total cpu time spent up to now is        7.5 secs

     total energy              =    -361.57391475 Ry
     estimated scf accuracy    <       0.09173395 Ry

     iteration #  6     ecut=    50.00 Ry     beta= 0.30
     Davidson diagonalization with overlap
     ethr =  1.88E-04,  avg # of iterations =  5.4

     total cpu time spent up to now is        8.9 secs

     total energy              =    -361.61390210 Ry
     estimated scf accuracy    <       0.02537833 Ry

     iteration #  7     ecut=    50.00 Ry     beta= 0.30
     Davidson diagonalization with overlap
     ethr =  7.05E-05,  avg # of iterations =  1.1

     total cpu time spent up to now is        9.7 secs

     total energy              =    -361.61308216 Ry
     estimated scf accuracy    <       0.01703777 Ry

     iteration #  8     ecut=    50.00 Ry     beta= 0.30
     Davidson diagonalization with overlap
     ethr =  4.73E-05,  avg # of iterations =  1.0

     total cpu time spent up to now is       10.5 secs

     total energy              =    -361.61340877 Ry
     estimated scf accuracy    <       0.01215003 Ry

     iteration #  9     ecut=    50.00 Ry     beta= 0.30
     Davidson diagonalization with overlap
     ethr =  3.38E-05,  avg # of iterations =  1.0

     total cpu time spent up to now is       11.3 secs

     total energy              =    -361.61339940 Ry
     estimated scf accuracy    <       0.01177819 Ry

     iteration # 10     ecut=    50.00 Ry     beta= 0.30
     Davidson diagonalization with overlap
     ethr =  3.27E-05,  avg # of iterations =  1.0

     total cpu time spent up to now is       12.0 secs

     total energy              =    -361.61193962 Ry
     estimated scf accuracy    <       0.01103691 Ry

     iteration # 11     ecut=    50.00 Ry     beta= 0.30
     Davidson diagonalization with overlap
     ethr =  3.07E-05,  avg # of iterations =  1.0

     total cpu time spent up to now is       12.8 secs

     total energy              =    -361.60738522 Ry
     estimated scf accuracy    <       0.00760913 Ry

     iteration # 12     ecut=    50.00 Ry     beta= 0.30
     Davidson diagonalization with overlap
     ethr =  2.11E-05,  avg # of iterations =  5.2

     total cpu time spent up to now is       14.2 secs

     total energy              =    -361.61125730 Ry
     estimated scf accuracy    <       0.00218131 Ry

     iteration # 13     ecut=    50.00 Ry     beta= 0.30
     Davidson diagonalization with overlap
     ethr =  6.06E-06,  avg # of iterations =  2.1

     total cpu time spent up to now is       15.1 secs

     total energy              =    -361.61065277 Ry
     estimated scf accuracy    <       0.00247534 Ry

     iteration # 14     ecut=    50.00 Ry     beta= 0.30
     Davidson diagonalization with overlap
     ethr =  6.06E-06,  avg # of iterations =  1.8

     total cpu time spent up to now is       15.9 secs

     total energy              =    -361.61024541 Ry
     estimated scf accuracy    <       0.00097714 Ry

     iteration # 15     ecut=    50.00 Ry     beta= 0.30
     Davidson diagonalization with overlap
     ethr =  2.71E-06,  avg # of iterations =  5.1

     total cpu time spent up to now is       17.2 secs

     total energy              =    -361.61108897 Ry
     estimated scf accuracy    <       0.00025481 Ry

     iteration # 16     ecut=    50.00 Ry     beta= 0.30
     Davidson diagonalization with overlap
     ethr =  7.08E-07,  avg # of iterations =  5.7

     total cpu time spent up to now is       18.6 secs

     total energy              =    -361.61122614 Ry
     estimated scf accuracy    <       0.00154660 Ry

     iteration # 17     ecut=    50.00 Ry     beta= 0.30
     Davidson diagonalization with overlap
     ethr =  7.08E-07,  avg # of iterations =  1.2

     total cpu time spent up to now is       19.4 secs

     total energy              =    -361.61097859 Ry
     estimated scf accuracy    <       0.00153374 Ry

     iteration # 18     ecut=    50.00 Ry     beta= 0.30
     Davidson diagonalization with overlap
     ethr =  7.08E-07,  avg # of iterations =  1.9

     total cpu time spent up to now is       20.2 secs

     total energy              =    -361.61085176 Ry
     estimated scf accuracy    <       0.00106468 Ry

     iteration # 19     ecut=    50.00 Ry     beta= 0.30
     Davidson diagonalization with overlap
     ethr =  7.08E-07,  avg # of iterations =  2.1

     total cpu time spent up to now is       21.2 secs

     total energy              =    -361.61076156 Ry
     estimated scf accuracy    <       0.00054140 Ry

     iteration # 20     ecut=    50.00 Ry     beta= 0.30
     Davidson diagonalization with overlap
     ethr =  7.08E-07,  avg # of iterations =  2.6

     total cpu time spent up to now is       22.1 secs

     total energy              =    -361.61078876 Ry
     estimated scf accuracy    <       0.00025278 Ry

     iteration # 21     ecut=    50.00 Ry     beta= 0.30
     Davidson diagonalization with overlap
     ethr =  7.02E-07,  avg # of iterations =  1.8

     total cpu time spent up to now is       22.9 secs

     total energy              =    -361.61068409 Ry
     estimated scf accuracy    <       0.00017693 Ry

     iteration # 22     ecut=    50.00 Ry     beta= 0.30
     Davidson diagonalization with overlap
     ethr =  4.91E-07,  avg # of iterations =  6.2

     total cpu time spent up to now is       24.5 secs

     total energy              =    -361.61077231 Ry
     estimated scf accuracy    <       0.00017591 Ry

     iteration # 23     ecut=    50.00 Ry     beta= 0.30
     Davidson diagonalization with overlap
     ethr =  4.89E-07,  avg # of iterations =  2.0

     total cpu time spent up to now is       25.3 secs

     total energy              =    -361.61079651 Ry
     estimated scf accuracy    <       0.00004065 Ry

     iteration # 24     ecut=    50.00 Ry     beta= 0.30
     Davidson diagonalization with overlap
     ethr =  1.13E-07,  avg # of iterations =  2.8

     total cpu time spent up to now is       26.3 secs

     total energy              =    -361.61079091 Ry
     estimated scf accuracy    <       0.00004148 Ry

     iteration # 25     ecut=    50.00 Ry     beta= 0.30
     Davidson diagonalization with overlap
     ethr =  1.13E-07,  avg # of iterations =  2.1

     total cpu time spent up to now is       27.2 secs

     total energy              =    -361.61078753 Ry
     estimated scf accuracy    <       0.00001285 Ry

     iteration # 26     ecut=    50.00 Ry     beta= 0.30
     Davidson diagonalization with overlap
     ethr =  3.57E-08,  avg # of iterations =  6.5

     total cpu time spent up to now is       28.8 secs

     total energy              =    -361.61080132 Ry
     estimated scf accuracy    <       0.00001618 Ry

     iteration # 27     ecut=    50.00 Ry     beta= 0.30
     Davidson diagonalization with overlap
     ethr =  3.57E-08,  avg # of iterations =  1.1

     total cpu time spent up to now is       29.6 secs

     total energy              =    -361.61079838 Ry
     estimated scf accuracy    <       0.00001272 Ry

     iteration # 28     ecut=    50.00 Ry     beta= 0.30
     Davidson diagonalization with overlap
     ethr =  3.53E-08,  avg # of iterations =  1.0

     total cpu time spent up to now is       30.3 secs

     total energy              =    -361.61079811 Ry
     estimated scf accuracy    <       0.00000579 Ry

     iteration # 29     ecut=    50.00 Ry     beta= 0.30
     Davidson diagonalization with overlap
     ethr =  1.61E-08,  avg # of iterations =  2.1

     total cpu time spent up to now is       31.2 secs

     total energy              =    -361.61079669 Ry
     estimated scf accuracy    <       0.00000353 Ry

     iteration # 30     ecut=    50.00 Ry     beta= 0.30
     Davidson diagonalization with overlap
     ethr =  9.81E-09,  avg # of iterations =  5.9

     total cpu time spent up to now is       32.6 secs

     total energy              =    -361.61079868 Ry
     estimated scf accuracy    <       0.00000074 Ry

     iteration # 31     ecut=    50.00 Ry     beta= 0.30
     Davidson diagonalization with overlap
     ethr =  2.05E-09,  avg # of iterations =  2.8

     total cpu time spent up to now is       33.5 secs

     total energy              =    -361.61079840 Ry
     estimated scf accuracy    <       0.00000066 Ry

     iteration # 32     ecut=    50.00 Ry     beta= 0.30
     Davidson diagonalization with overlap
     ethr =  1.83E-09,  avg # of iterations =  3.1

     total cpu time spent up to now is       34.5 secs

     total energy              =    -361.61079852 Ry
     estimated scf accuracy    <       0.00000004 Ry

     iteration # 33     ecut=    50.00 Ry     beta= 0.30
     Davidson diagonalization with overlap
     ethr =  1.03E-10,  avg # of iterations =  6.9

     total cpu time spent up to now is       36.1 secs

     total energy              =    -361.61079859 Ry
     estimated scf accuracy    <       0.00000001 Ry

     iteration # 34     ecut=    50.00 Ry     beta= 0.30
     Davidson diagonalization with overlap
     ethr =  3.36E-11,  avg # of iterations =  3.4

     total cpu time spent up to now is       37.1 secs

     total energy              =    -361.61079858 Ry
     estimated scf accuracy    <       0.00000003 Ry

     iteration # 35     ecut=    50.00 Ry     beta= 0.30
     Davidson diagonalization with overlap
     ethr =  3.36E-11,  avg # of iterations =  2.0

     total cpu time spent up to now is       38.0 secs

     total energy              =    -361.61079859 Ry
     estimated scf accuracy    <       0.00000001 Ry

     iteration # 36     ecut=    50.00 Ry     beta= 0.30
     Davidson diagonalization with overlap
     ethr =  2.97E-11,  avg # of iterations =  1.0

     total cpu time spent up to now is       38.8 secs

     total energy              =    -361.61079858 Ry
     estimated scf accuracy    <       0.00000002 Ry

     iteration # 37     ecut=    50.00 Ry     beta= 0.30
     Davidson diagonalization with overlap
     ethr =  2.97E-11,  avg # of iterations =  1.4

     total cpu time spent up to now is       39.6 secs

     total energy              =    -361.61079858 Ry
     estimated scf accuracy    <       0.00000001 Ry

     iteration # 38     ecut=    50.00 Ry     beta= 0.30
     Davidson diagonalization with overlap
     ethr =  2.85E-11,  avg # of iterations =  1.9

     total cpu time spent up to now is       40.4 secs

     End of self-consistent calculation

          k = 0.0000 0.0000 0.0000 (  1827 PWs)   bands (ev):

   -10.5767  -9.6409   2.0045   2.0127   2.0127   2.1097   2.2765   2.2765
     3.2262   3.2262   3.5226   3.5226   3.7461   6.6947   6.6947   7.7828
     7.7828   7.8616

          k = 0.0000 0.0000 0.1135 (  1821 PWs)   bands (ev):

   -10.5162  -9.7053   1.9001   1.9210   2.0160   2.0160   2.2422   2.2422
     3.2591   3.2591   3.5183   3.5183   4.1633   6.7712   6.7712   7.3227
     7.7146   7.7146

          k = 0.0000 0.0000 0.2269 (  1808 PWs)   bands (ev):

   -10.3489  -9.8803   1.6497   1.7394   2.0350   2.0350   2.1629   2.1629
     3.3398   3.3398   3.4920   3.4920   4.9818   6.5915   6.9783   6.9783
     7.5241   7.5241

          k = 0.0000 0.0000-0.3404 (  1796 PWs)   bands (ev):

   -10.1166 -10.1166   1.6053   1.6053   2.0846   2.0846   2.0846   2.0846
     3.4290   3.4290   3.4290   3.4290   5.8239   5.8239   7.2554   7.2554
     7.2554   7.2554

          k = 0.0000 0.1925 0.0000 (  1828 PWs)   bands (ev):

   -10.4328  -9.6042   1.8260   2.0817   2.1127   2.1552   2.3953   2.4263
     3.1712   3.2319   3.5310   3.5432   3.8174   5.8773   6.3257   6.7111
     7.6205   7.6495

          k = 0.0000 0.1925 0.1135 (  1833 PWs)   bands (ev):

   -10.3777  -9.6595   1.7665   1.9384   2.0887   2.1059   2.3182   2.3570
     3.2195   3.2619   3.5332   3.5549   4.2323   5.9758   6.4190   6.5275
     7.5398   7.6265

          k = 0.0000 0.1925 0.2269 (  1827 PWs)   bands (ev):

   -10.2266  -9.8111   1.6132   1.6480   2.0924   2.1176   2.2125   2.2689
     3.3247   3.3374   3.4959   3.5208   4.9972   6.0609   6.3896   6.6687
     7.3153   7.3717

          k = 0.0000 0.1925-0.3404 (  1820 PWs)   bands (ev):

   -10.0190 -10.0190   1.5357   1.5357   2.1312   2.1312   2.1790   2.1790
     3.4258   3.4258   3.4375   3.4375   5.6303   5.6303   6.8720   6.8720
     6.9982   6.9982

          k = 0.0000 0.3849 0.0000 (  1852 PWs)   bands (ev):

   -10.1016  -9.5617   1.6584   2.0653   2.1853   2.3080   2.6987   2.7591
     3.2109   3.3251   3.5501   3.5729   3.9608   4.6894   5.5665   5.5731
     7.0482   7.2539

          k = 0.0000 0.3849 0.1135 (  1853 PWs)   bands (ev):

   -10.0622  -9.5938   1.5955   1.8956   2.2060   2.2740   2.5667   2.6450
     3.2386   3.3409   3.5523   3.6296   4.1902   4.9051   5.5169   5.7008
     7.1521   7.1529

          k = 0.0000 0.3849 0.2269 (  1837 PWs)   bands (ev):

    -9.9566  -9.6850   1.4641   1.5786   2.2492   2.2705   2.3846   2.5177
     3.3563   3.3845   3.5038   3.5869   4.5073   4.9960   5.9525   6.0428
     6.8716   7.1473

          k = 0.0000 0.3849-0.3404 (  1850 PWs)   bands (ev):

    -9.8172  -9.8172   1.4192   1.4192   2.2841   2.2841   2.3789   2.3789
     3.4431   3.4431   3.4845   3.4845   4.7722   4.7722   6.4711   6.4711
     6.7077   6.7077

          k = 0.0000-0.5774 0.0000 (  1848 PWs)   bands (ev):

    -9.8809  -9.5887   1.7039   1.9765   2.2160   2.4487   2.6347   2.9034
     3.2907   3.4365   3.5840   3.6301   4.1761   4.3804   4.9552   5.1306
     6.5942   7.0511

          k = 0.0000-0.5774 0.1135 (  1858 PWs)   bands (ev):

    -9.8562  -9.6025   1.6242   1.8039   2.2458   2.4125   2.5758   2.8339
     3.3764   3.4408   3.5532   3.6296   4.1141   4.3313   5.3008   5.3453
     6.7601   6.9410

          k = 0.0000-0.5774 0.2269 (  1850 PWs)   bands (ev):

    -9.7919  -9.6446   1.4597   1.5134   2.3355   2.3876   2.4735   2.6662
     3.4529   3.4998   3.5056   3.6186   4.0995   4.2415   5.7080   6.0963
     6.6337   6.9515

          k = 0.0000-0.5774-0.3404 (  1844 PWs)   bands (ev):

    -9.7127  -9.7127   1.3828   1.3828   2.4058   2.4058   2.4821   2.4821
     3.4734   3.4734   3.5798   3.5798   4.1569   4.1569   6.1923   6.1923
     6.7350   6.7350

          k = 0.1667 0.2887 0.0000 (  1857 PWs)   bands (ev):

   -10.1934  -9.5655   1.7562   1.9896   2.2115   2.2629   2.6127   2.7386
     3.1274   3.2664   3.5381   3.5655   3.9713   5.1622   5.3411   6.0056
     7.2151   7.2444

          k = 0.1667 0.2887 0.1135 (  1854 PWs)   bands (ev):

   -10.1492  -9.6045   1.6898   1.8861   2.1845   2.2178   2.4959   2.5634
     3.1880   3.3193   3.5499   3.6104   4.2942   5.3583   5.4025   5.9264
     7.1089   7.3206

          k = 0.1667 0.2887 0.2269 (  1845 PWs)   bands (ev):

   -10.0293  -9.7137   1.5446   1.6107   2.1640   2.2017   2.3437   2.4516
     3.3188   3.3762   3.5092   3.5721   4.7753   5.3483   5.9854   6.0330
     6.8199   7.2493

          k = 0.1667 0.2887-0.3404 (  1842 PWs)   bands (ev):

    -9.8689  -9.8689   1.4763   1.4763   2.1865   2.1865   2.3476   2.3476
     3.4260   3.4260   3.4806   3.4806   5.1028   5.1028   6.4002   6.4002
     6.7718   6.7718

          k = 0.1667 0.4811 0.0000 (  1847 PWs)   bands (ev):

    -9.8893  -9.5829   1.8054   2.0567   2.2440   2.3795   2.7821   2.9416
     3.2617   3.2861   3.5878   3.7029   3.9159   4.4506   4.8548   5.2285
     6.5589   6.7743

          k = 0.1667 0.4811 0.1135 (  1852 PWs)   bands (ev):

    -9.8637  -9.5977   1.7312   1.9361   2.1870   2.3614   2.6631   2.8234
     3.2555   3.3954   3.5734   3.7372   3.9760   4.5870   4.8666   5.5211
     6.5902   6.7863

          k = 0.1667 0.4811 0.2269 (  1853 PWs)   bands (ev):

    -9.7971  -9.6427   1.5660   1.6438   2.2103   2.3281   2.5360   2.6372
     3.3426   3.4206   3.5860   3.7028   4.1592   4.5207   5.2297   6.1386
     6.3174   6.9797

          k = 0.1667 0.4811-0.3404 (  1860 PWs)   bands (ev):

    -9.7145  -9.7145   1.4958   1.4958   2.2830   2.2830   2.5167   2.5167
     3.4013   3.4013   3.6384   3.6384   4.3509   4.3509   5.7439   5.7439
     6.8118   6.8118

          k = 0.3333 0.5774 0.0000 (  1839 PWs)   bands (ev):

    -9.6885  -9.6885   1.9383   2.1778   2.1778   2.8673   2.9310   2.9310
     3.1833   3.3716   3.4133   3.4133   3.7587   4.3473   4.3473   5.8985
     5.8985   6.2910

          k = 0.3333 0.5774 0.1135 (  1839 PWs)   bands (ev):

    -9.6823  -9.6823   1.9663   2.0426   2.0426   2.6933   2.7909   2.7909
     3.2070   3.3607   3.5778   3.5778   4.0121   4.3016   4.3016   6.1320
     6.1556   6.1556

          k = 0.3333 0.5774 0.2269 (  1869 PWs)   bands (ev):

    -9.6698  -9.6698   1.7777   1.7777   2.0519   2.4232   2.6756   2.6756
     3.2443   3.3304   3.7591   3.7591   4.2337   4.2337   4.5359   5.7081
     6.6332   6.6332

          k = 0.3333 0.5774-0.3404 (  1854 PWs)   bands (ev):

    -9.6635  -9.6635   1.6551   1.6551   2.2031   2.2031   2.6437   2.6437
     3.2885   3.2885   3.8254   3.8254   4.2057   4.2057   5.1370   5.1370
     6.8618   6.8618

     highest occupied level (ev):     7.8616

!    total energy              =    -361.61079858 Ry
     estimated scf accuracy    <          3.1E-09 Ry

     The total energy is the sum of the following terms:
     one-electron contribution =    -148.31505522 Ry
     hartree contribution      =     116.29002684 Ry
     xc contribution           =    -109.69872379 Ry
     ewald contribution        =    -219.88704640 Ry

     convergence has been achieved in  38 iterations

     Forces acting on atoms (cartesian axes, Ry/au):

     atom    1 type  1   force =     0.00000000    0.00000000   -0.05612281
     atom    2 type  1   force =     0.00000000    0.00000000   -0.05612281
     atom    3 type  2   force =     0.00000000    0.00000000    0.05612281
     atom    4 type  2   force =     0.00000000   -0.00000000    0.05612281
     The non-local contrib.  to forces
     atom    1 type  1   force =     0.00000000    0.00000000   -0.28938126
     atom    2 type  1   force =     0.00000000    0.00000000   -0.28938126
     atom    3 type  2   force =     0.00000000    0.00000000   -0.20485630
     atom    4 type  2   force =     0.00000000   -0.00000000   -0.20485630
     The ionic contribution  to forces
     atom    1 type  1   force =    -0.00000000    0.00000000   -1.96155044
     atom    2 type  1   force =     0.00000000   -0.00000000   -1.96155044
     atom    3 type  2   force =    -0.00000000    0.00000000    1.96155044
     atom    4 type  2   force =     0.00000000   -0.00000000    1.96155044
     The local contribution  to forces
     atom    1 type  1   force =    -0.00000002    0.00000001    2.17152313
     atom    2 type  1   force =     0.00000006   -0.00000004    2.17152313
     atom    3 type  2   force =    -0.00000001    0.00000000   -1.70198182
     atom    4 type  2   force =     0.00000002   -0.00000001   -1.70198181
     The core correction contribution to forces
     atom    1 type  1   force =    -0.00000000    0.00000000    0.02327348
     atom    2 type  1   force =     0.00000001   -0.00000000    0.02327348
     atom    3 type  2   force =     0.00000000   -0.00000000    0.00141129
     atom    4 type  2   force =    -0.00000000    0.00000000    0.00141129
     The Hubbard contrib.    to forces
     atom    1 type  1   force =     0.00000000    0.00000000    0.00000000
     atom    2 type  1   force =     0.00000000    0.00000000    0.00000000
     atom    3 type  2   force =     0.00000000    0.00000000    0.00000000
     atom    4 type  2   force =     0.00000000    0.00000000    0.00000000
     The SCF correction term to forces
     atom    1 type  1   force =    -0.00000000    0.00000000    0.00001316
     atom    2 type  1   force =     0.00000000   -0.00000000    0.00001316
     atom    3 type  2   force =    -0.00000000    0.00000000    0.00000009
     atom    4 type  2   force =     0.00000000   -0.00000000    0.00000009

     Total force =     0.112246     Total SCF correction =     0.000019


     Computing stress (Cartesian axis) and pressure

          total   stress  (Ry/bohr**3)                   (kbar)     P=      119.85
   0.00018496   0.00000000  -0.00000000           27.21        0.00       -0.00
   0.00000000   0.00018496  -0.00000000            0.00       27.21       -0.00
   0.00000000   0.00000000   0.00207416            0.00        0.00      305.12


     Writing all to output data dir ./ZnO_ANN.save/

     init_run     :      1.85s CPU      1.26s WALL (       1 calls)
     electrons    :    101.54s CPU     38.82s WALL (       1 calls)
     forces       :      0.66s CPU      0.29s WALL (       1 calls)
     stress       :      2.19s CPU      1.09s WALL (       1 calls)

     Called by init_run:
     wfcinit      :      0.97s CPU      0.38s WALL (       1 calls)
     potinit      :      0.25s CPU      0.25s WALL (       1 calls)
     hinit0       :      0.50s CPU      0.51s WALL (       1 calls)

     Called by electrons:
     c_bands      :     79.42s CPU     30.02s WALL (      38 calls)
     sum_band     :     16.44s CPU      6.50s WALL (      38 calls)
     v_of_rho     :      1.26s CPU      0.55s WALL (      39 calls)
     newd         :      4.08s CPU      1.64s WALL (      39 calls)
     mix_rho      :      0.24s CPU      0.10s WALL (      38 calls)

     Called by c_bands:
     init_us_2    :      1.41s CPU      0.50s WALL (    2212 calls)
     init_us_2:cp :      1.38s CPU      0.49s WALL (    2212 calls)
     cegterg      :     76.09s CPU     28.74s WALL (    1064 calls)

     Called by *egterg:
     cdiaghg      :     11.45s CPU      3.76s WALL (    4150 calls)
     h_psi        :     54.23s CPU     22.34s WALL (    4178 calls)
     s_psi        :      1.18s CPU      0.35s WALL (    4178 calls)
     g_psi        :      0.34s CPU      0.09s WALL (    3086 calls)

     Called by h_psi:
     h_psi:calbec :      1.72s CPU      0.63s WALL (    4178 calls)
     vloc_psi     :     50.90s CPU     21.19s WALL (    4178 calls)
     add_vuspsi   :      1.17s CPU      0.38s WALL (    4178 calls)

     General routines
     calbec       :      2.36s CPU      0.85s WALL (    5382 calls)
     fft          :      0.98s CPU      0.57s WALL (     530 calls)
     ffts         :      0.19s CPU      0.15s WALL (      77 calls)
     fftw         :     53.11s CPU     22.12s WALL (  125550 calls)
     interpolate  :      0.21s CPU      0.17s WALL (      39 calls)

     Parallel routines

     PWSCF        :   1m46.79s CPU     41.92s WALL


   This run was terminated on:  17:23:26  13Jun2025            

=------------------------------------------------------------------------------=
   JOB DONE.
=------------------------------------------------------------------------------=
Note: The following floating-point exceptions are signalling: IEEE_INVALID_FLAG
