Authorization required, but no authorization protocol specified

Authorization required, but no authorization protocol specified

Authorization required, but no authorization protocol specified

Authorization required, but no authorization protocol specified

Authorization required, but no authorization protocol specified

Authorization required, but no authorization protocol specified

Authorization required, but no authorization protocol specified

Authorization required, but no authorization protocol specified

Authorization required, but no authorization protocol specified

Authorization required, but no authorization protocol specified


     Program PWSCF v.7.2 starts on 13Jun2025 at 18:26: 5 

     This program is part of the open-source Quantum ESPRESSO suite
     for quantum simulation of materials; please cite
         "P. Giannozzi et al., J. Phys.:Condens. Matter 21 395502 (2009);
         "P. Giannozzi et al., J. Phys.:Condens. Matter 29 465901 (2017);
         "P. Giannozzi et al., J. Chem. Phys. 152 154105 (2020);
          URL http://www.quantum-espresso.org", 
     in publications or presentations arising from this work. More details at
     http://www.quantum-espresso.org/quote

     Parallel version (MPI), running on     8 processors

     MPI processes distributed on     1 nodes
     120713 MiB available memory on the printing compute node when the environment starts

     Reading input from /home/jvc/QEspresso7.2/ZnO_database_python/SCFs.in/scf-6.43-1.76.in

     Current dimensions of program PWSCF are:
     Max number of different atomic species (ntypx) = 10
     Max number of k-points (npk) =  40000
     Max angular momentum in pseudopotentials (lmaxx) =  4
     file Zn.upf: wavefunction(s)  3D renormalized

     R & G space division:  proc/nbgrp/npool/nimage =       8
     Subspace diagonalization in iterative solution of the eigenvalue problem:
     a serial algorithm will be used


     Parallelization info
     --------------------
     sticks:   dense  smooth     PW     G-vecs:    dense   smooth      PW
     Min         143      70     20                 6827     2412     390
     Max         145      72     21                 6830     2414     399
     Sum        1147     571    163                54629    19305    3143

     Using Slab Decomposition



     bravais-lattice index     =            4
     lattice parameter (alat)  =       6.4260  a.u.
     unit-cell volume          =     404.3654 (a.u.)^3
     number of atoms/cell      =            4
     number of atomic types    =            2
     number of electrons       =        36.00
     number of Kohn-Sham states=           18
     kinetic-energy cutoff     =      50.0000  Ry
     charge density cutoff     =     400.0000  Ry
     scf convergence threshold =      1.0E-08
     mixing beta               =       0.3000
     number of iterations used =            8  plain     mixing
     Exchange-correlation= PBE
                           (   1   4   3   4   0   0   0)

     celldm(1)=   6.425974  celldm(2)=   0.000000  celldm(3)=   1.759651
     celldm(4)=   0.000000  celldm(5)=   0.000000  celldm(6)=   0.000000

     crystal axes: (cart. coord. in units of alat)
               a(1) = (   1.000000   0.000000   0.000000 )  
               a(2) = (  -0.500000   0.866025   0.000000 )  
               a(3) = (   0.000000   0.000000   1.759651 )  

     reciprocal axes: (cart. coord. in units 2 pi/alat)
               b(1) = (  1.000000  0.577350 -0.000000 )  
               b(2) = (  0.000000  1.154701  0.000000 )  
               b(3) = (  0.000000 -0.000000  0.568295 )  


     PseudoPot. # 1 for Zn read from file:
     /home/jvc/QEspresso7.2/ZnO_database/pseudos/Zn.upf
     MD5 check sum: 7f56cabf9682ed8c977c2f7d0c5985c5
     Pseudo is Ultrasoft + core correction, Zval = 12.0
     Generated using &quot;atomic&quot; code by A. Dal Corso  v.6.2.2
     Using radial grid of 1201 points,  6 beta functions with: 
                l(1) =   0
                l(2) =   0
                l(3) =   1
                l(4) =   1
                l(5) =   2
                l(6) =   2
     Q(r) pseudized with 0 coefficients 


     PseudoPot. # 2 for O  read from file:
     /home/jvc/QEspresso7.2/ZnO_database/pseudos/O.upf
     MD5 check sum: 91400c9766925bcf19f520983a725ff0
     Pseudo is Ultrasoft + core correction, Zval =  6.0
     Generated using &quot;atomic&quot; code by A. Dal Corso  v.6.3MaX
     Using radial grid of 1095 points,  4 beta functions with: 
                l(1) =   0
                l(2) =   0
                l(3) =   1
                l(4) =   1
     Q(r) pseudized with 0 coefficients 


     atomic species   valence    mass     pseudopotential
        Zn            12.00    63.38000     Zn( 1.00)
        O              6.00    15.99900     O ( 1.00)

     12 Sym. Ops. (no inversion) found ( 6 have fractional translation)



   Cartesian axes

     site n.     atom                  positions (alat units)
         1           Zn  tau(   1) = (   0.5000000   0.2886751   0.8809402  )
         2           Zn  tau(   2) = (  -0.0000000   0.5773503   0.0011149  )
         3           O   tau(   3) = (   0.5000000   0.2886751   1.5479231  )
         4           O   tau(   4) = (  -0.0000000   0.5773503   0.6680978  )

     number of k points=    28
                       cart. coord. in units 2pi/alat
        k(    1) = (   0.0000000   0.0000000   0.0000000), wk =   0.0092593
        k(    2) = (   0.0000000   0.0000000   0.0947158), wk =   0.0185185
        k(    3) = (   0.0000000   0.0000000   0.1894315), wk =   0.0185185
        k(    4) = (   0.0000000   0.0000000  -0.2841473), wk =   0.0092593
        k(    5) = (   0.0000000   0.1924501   0.0000000), wk =   0.0555556
        k(    6) = (   0.0000000   0.1924501   0.0947158), wk =   0.1111111
        k(    7) = (   0.0000000   0.1924501   0.1894315), wk =   0.1111111
        k(    8) = (   0.0000000   0.1924501  -0.2841473), wk =   0.0555556
        k(    9) = (   0.0000000   0.3849002   0.0000000), wk =   0.0555556
        k(   10) = (   0.0000000   0.3849002   0.0947158), wk =   0.1111111
        k(   11) = (   0.0000000   0.3849002   0.1894315), wk =   0.1111111
        k(   12) = (   0.0000000   0.3849002  -0.2841473), wk =   0.0555556
        k(   13) = (   0.0000000  -0.5773503   0.0000000), wk =   0.0277778
        k(   14) = (   0.0000000  -0.5773503   0.0947158), wk =   0.0555556
        k(   15) = (   0.0000000  -0.5773503   0.1894315), wk =   0.0555556
        k(   16) = (   0.0000000  -0.5773503  -0.2841473), wk =   0.0277778
        k(   17) = (   0.1666667   0.2886751   0.0000000), wk =   0.0555556
        k(   18) = (   0.1666667   0.2886751   0.0947158), wk =   0.1111111
        k(   19) = (   0.1666667   0.2886751   0.1894315), wk =   0.1111111
        k(   20) = (   0.1666667   0.2886751  -0.2841473), wk =   0.0555556
        k(   21) = (   0.1666667   0.4811252   0.0000000), wk =   0.1111111
        k(   22) = (   0.1666667   0.4811252   0.0947158), wk =   0.2222222
        k(   23) = (   0.1666667   0.4811252   0.1894315), wk =   0.2222222
        k(   24) = (   0.1666667   0.4811252  -0.2841473), wk =   0.1111111
        k(   25) = (   0.3333333   0.5773503   0.0000000), wk =   0.0185185
        k(   26) = (   0.3333333   0.5773503   0.0947158), wk =   0.0370370
        k(   27) = (   0.3333333   0.5773503   0.1894315), wk =   0.0370370
        k(   28) = (   0.3333333   0.5773503  -0.2841473), wk =   0.0185185

     Dense  grid:    54629 G-vectors     FFT dimensions: (  45,  45,  72)

     Smooth grid:    19305 G-vectors     FFT dimensions: (  30,  30,  54)

     Estimated max dynamical RAM per process >      31.06 MB

     Estimated total dynamical RAM >     248.46 MB

     Check: negative core charge=   -0.000002

     Initial potential from superposition of free atoms

     starting charge      35.9925, renormalised to      36.0000
     Starting wfcs are   26 randomized atomic wfcs

     total cpu time spent up to now is        1.7 secs

     Self-consistent Calculation

     iteration #  1     ecut=    50.00 Ry     beta= 0.30
     Davidson diagonalization with overlap
     ethr =  1.00E-02,  avg # of iterations =  1.4

     total cpu time spent up to now is        2.7 secs

     total energy              =    -361.39312880 Ry
     estimated scf accuracy    <       0.79923286 Ry

     iteration #  2     ecut=    50.00 Ry     beta= 0.30
     Davidson diagonalization with overlap
     ethr =  2.22E-03,  avg # of iterations =  2.2

     total cpu time spent up to now is        3.8 secs

     total energy              =    -361.51745479 Ry
     estimated scf accuracy    <       0.08748460 Ry

     iteration #  3     ecut=    50.00 Ry     beta= 0.30
     Davidson diagonalization with overlap
     ethr =  2.43E-04,  avg # of iterations =  6.4

     total cpu time spent up to now is        5.6 secs

     total energy              =    -361.52607576 Ry
     estimated scf accuracy    <       0.11263857 Ry

     iteration #  4     ecut=    50.00 Ry     beta= 0.30
     Davidson diagonalization with overlap
     ethr =  2.43E-04,  avg # of iterations =  9.2

     total cpu time spent up to now is        8.0 secs

     total energy              =    -361.61137113 Ry
     estimated scf accuracy    <       0.44551336 Ry

     iteration #  5     ecut=    50.00 Ry     beta= 0.30
     Davidson diagonalization with overlap
     ethr =  2.43E-04,  avg # of iterations =  2.0

     total cpu time spent up to now is        9.0 secs

     total energy              =    -361.42476556 Ry
     estimated scf accuracy    <       0.28111462 Ry

     iteration #  6     ecut=    50.00 Ry     beta= 0.30
     Davidson diagonalization with overlap
     ethr =  2.43E-04,  avg # of iterations =  8.6

     total cpu time spent up to now is       11.0 secs

     total energy              =    -361.58213855 Ry
     estimated scf accuracy    <       0.40624400 Ry

     iteration #  7     ecut=    50.00 Ry     beta= 0.30
     Davidson diagonalization with overlap
     ethr =  2.43E-04,  avg # of iterations =  2.4

     total cpu time spent up to now is       12.1 secs

     total energy              =    -361.58710747 Ry
     estimated scf accuracy    <       0.20465750 Ry

     iteration #  8     ecut=    50.00 Ry     beta= 0.30
     Davidson diagonalization with overlap
     ethr =  2.43E-04,  avg # of iterations =  1.9

     total cpu time spent up to now is       13.1 secs

     total energy              =    -361.59171753 Ry
     estimated scf accuracy    <       0.16095028 Ry

     iteration #  9     ecut=    50.00 Ry     beta= 0.30
     Davidson diagonalization with overlap
     ethr =  2.43E-04,  avg # of iterations =  1.8

     total cpu time spent up to now is       14.1 secs

     total energy              =    -361.59197972 Ry
     estimated scf accuracy    <       0.13121349 Ry

     iteration # 10     ecut=    50.00 Ry     beta= 0.30
     Davidson diagonalization with overlap
     ethr =  2.43E-04,  avg # of iterations =  1.2

     total cpu time spent up to now is       15.1 secs

     total energy              =    -361.59325842 Ry
     estimated scf accuracy    <       0.10787674 Ry

     iteration # 11     ecut=    50.00 Ry     beta= 0.30
     Davidson diagonalization with overlap
     ethr =  2.43E-04,  avg # of iterations =  1.0

     total cpu time spent up to now is       16.0 secs

     total energy              =    -361.58949170 Ry
     estimated scf accuracy    <       0.09688389 Ry

     iteration # 12     ecut=    50.00 Ry     beta= 0.30
     Davidson diagonalization with overlap
     ethr =  2.43E-04,  avg # of iterations =  1.0

     total cpu time spent up to now is       16.9 secs

     total energy              =    -361.59073877 Ry
     estimated scf accuracy    <       0.07912596 Ry

     iteration # 13     ecut=    50.00 Ry     beta= 0.30
     Davidson diagonalization with overlap
     ethr =  2.20E-04,  avg # of iterations =  1.1

     total cpu time spent up to now is       17.9 secs

     total energy              =    -361.59865669 Ry
     estimated scf accuracy    <       0.07523398 Ry

     iteration # 14     ecut=    50.00 Ry     beta= 0.30
     Davidson diagonalization with overlap
     ethr =  2.09E-04,  avg # of iterations =  1.0

     total cpu time spent up to now is       18.8 secs

     total energy              =    -361.59903261 Ry
     estimated scf accuracy    <       0.08645443 Ry

     iteration # 15     ecut=    50.00 Ry     beta= 0.30
     Davidson diagonalization with overlap
     ethr =  2.09E-04,  avg # of iterations =  1.0

     total cpu time spent up to now is       19.7 secs

     total energy              =    -361.60632962 Ry
     estimated scf accuracy    <       0.08399492 Ry

     iteration # 16     ecut=    50.00 Ry     beta= 0.30
     Davidson diagonalization with overlap
     ethr =  2.09E-04,  avg # of iterations =  1.0

     total cpu time spent up to now is       20.6 secs

     total energy              =    -361.57362620 Ry
     estimated scf accuracy    <       0.09848049 Ry

     iteration # 17     ecut=    50.00 Ry     beta= 0.30
     Davidson diagonalization with overlap
     ethr =  2.09E-04,  avg # of iterations =  2.3

     total cpu time spent up to now is       21.7 secs

     total energy              =    -361.55893807 Ry
     estimated scf accuracy    <       0.03685393 Ry

     iteration # 18     ecut=    50.00 Ry     beta= 0.30
     Davidson diagonalization with overlap
     ethr =  1.02E-04,  avg # of iterations =  6.5

     total cpu time spent up to now is       23.4 secs

     total energy              =    -361.58427129 Ry
     estimated scf accuracy    <       0.03034216 Ry

     iteration # 19     ecut=    50.00 Ry     beta= 0.30
     Davidson diagonalization with overlap
     ethr =  8.43E-05,  avg # of iterations =  1.0

     total cpu time spent up to now is       24.4 secs

     total energy              =    -361.58272668 Ry
     estimated scf accuracy    <       0.01592716 Ry

     iteration # 20     ecut=    50.00 Ry     beta= 0.30
     Davidson diagonalization with overlap
     ethr =  4.42E-05,  avg # of iterations =  2.0

     total cpu time spent up to now is       25.4 secs

     total energy              =    -361.58371348 Ry
     estimated scf accuracy    <       0.00679234 Ry

     iteration # 21     ecut=    50.00 Ry     beta= 0.30
     Davidson diagonalization with overlap
     ethr =  1.89E-05,  avg # of iterations =  2.1

     total cpu time spent up to now is       26.4 secs

     total energy              =    -361.58427287 Ry
     estimated scf accuracy    <       0.00424442 Ry

     iteration # 22     ecut=    50.00 Ry     beta= 0.30
     Davidson diagonalization with overlap
     ethr =  1.18E-05,  avg # of iterations =  1.8

     total cpu time spent up to now is       27.4 secs

     total energy              =    -361.58321549 Ry
     estimated scf accuracy    <       0.00344853 Ry

     iteration # 23     ecut=    50.00 Ry     beta= 0.30
     Davidson diagonalization with overlap
     ethr =  9.58E-06,  avg # of iterations =  4.7

     total cpu time spent up to now is       28.6 secs

     total energy              =    -361.58385159 Ry
     estimated scf accuracy    <       0.00022319 Ry

     iteration # 24     ecut=    50.00 Ry     beta= 0.30
     Davidson diagonalization with overlap
     c_bands:  2 eigenvalues not converged
     ethr =  6.20E-07,  avg # of iterations =  8.1

     total cpu time spent up to now is       30.4 secs

     total energy              =    -361.58427313 Ry
     estimated scf accuracy    <       0.00013567 Ry

     iteration # 25     ecut=    50.00 Ry     beta= 0.30
     Davidson diagonalization with overlap
     c_bands:  1 eigenvalues not converged
     ethr =  3.77E-07,  avg # of iterations =  2.0

     total cpu time spent up to now is       31.4 secs

     total energy              =    -361.58443208 Ry
     estimated scf accuracy    <       0.00004779 Ry

     iteration # 26     ecut=    50.00 Ry     beta= 0.30
     Davidson diagonalization with overlap
     ethr =  1.33E-07,  avg # of iterations =  1.4

     total cpu time spent up to now is       32.4 secs

     total energy              =    -361.58441455 Ry
     estimated scf accuracy    <       0.00006086 Ry

     iteration # 27     ecut=    50.00 Ry     beta= 0.30
     Davidson diagonalization with overlap
     ethr =  1.33E-07,  avg # of iterations =  2.6

     total cpu time spent up to now is       33.4 secs

     total energy              =    -361.58440183 Ry
     estimated scf accuracy    <       0.00002226 Ry

     iteration # 28     ecut=    50.00 Ry     beta= 0.30
     Davidson diagonalization with overlap
     ethr =  6.18E-08,  avg # of iterations =  8.4

     total cpu time spent up to now is       35.6 secs

     total energy              =    -361.58454964 Ry
     estimated scf accuracy    <       0.00013882 Ry

     iteration # 29     ecut=    50.00 Ry     beta= 0.30
     Davidson diagonalization with overlap
     ethr =  6.18E-08,  avg # of iterations =  7.7

     total cpu time spent up to now is       37.6 secs

     total energy              =    -361.58440525 Ry
     estimated scf accuracy    <       0.00069387 Ry

     iteration # 30     ecut=    50.00 Ry     beta= 0.30
     Davidson diagonalization with overlap
     ethr =  6.18E-08,  avg # of iterations =  7.9

     total cpu time spent up to now is       39.7 secs

     total energy              =    -361.58442990 Ry
     estimated scf accuracy    <       0.00011896 Ry

     iteration # 31     ecut=    50.00 Ry     beta= 0.30
     Davidson diagonalization with overlap
     ethr =  6.18E-08,  avg # of iterations =  2.5

     total cpu time spent up to now is       40.7 secs

     total energy              =    -361.58442834 Ry
     estimated scf accuracy    <       0.00007777 Ry

     iteration # 32     ecut=    50.00 Ry     beta= 0.30
     Davidson diagonalization with overlap
     ethr =  6.18E-08,  avg # of iterations =  1.7

     total cpu time spent up to now is       41.7 secs

     total energy              =    -361.58440659 Ry
     estimated scf accuracy    <       0.00006432 Ry

     iteration # 33     ecut=    50.00 Ry     beta= 0.30
     Davidson diagonalization with overlap
     ethr =  6.18E-08,  avg # of iterations =  6.4

     total cpu time spent up to now is       43.3 secs

     total energy              =    -361.58442445 Ry
     estimated scf accuracy    <       0.00000060 Ry

     iteration # 34     ecut=    50.00 Ry     beta= 0.30
     Davidson diagonalization with overlap
     ethr =  1.67E-09,  avg # of iterations =  6.6

     total cpu time spent up to now is       44.9 secs

     total energy              =    -361.58442430 Ry
     estimated scf accuracy    <       0.00000310 Ry

     iteration # 35     ecut=    50.00 Ry     beta= 0.30
     Davidson diagonalization with overlap
     ethr =  1.67E-09,  avg # of iterations =  2.0

     total cpu time spent up to now is       45.9 secs

     total energy              =    -361.58442308 Ry
     estimated scf accuracy    <       0.00000198 Ry

     iteration # 36     ecut=    50.00 Ry     beta= 0.30
     Davidson diagonalization with overlap
     c_bands:  1 eigenvalues not converged
     ethr =  1.67E-09,  avg # of iterations =  9.2

     total cpu time spent up to now is       48.2 secs

     total energy              =    -361.58442367 Ry
     estimated scf accuracy    <       0.00000196 Ry

     iteration # 37     ecut=    50.00 Ry     beta= 0.30
     Davidson diagonalization with overlap
     ethr =  1.67E-09,  avg # of iterations =  5.7

     total cpu time spent up to now is       49.8 secs

     total energy              =    -361.58442414 Ry
     estimated scf accuracy    <       0.00000003 Ry

     iteration # 38     ecut=    50.00 Ry     beta= 0.30
     Davidson diagonalization with overlap
     ethr =  9.32E-11,  avg # of iterations =  7.9

     total cpu time spent up to now is       51.6 secs

     total energy              =    -361.58442410 Ry
     estimated scf accuracy    <       0.00000031 Ry

     iteration # 39     ecut=    50.00 Ry     beta= 0.30
     Davidson diagonalization with overlap
     ethr =  9.32E-11,  avg # of iterations =  5.8

     total cpu time spent up to now is       53.1 secs

     total energy              =    -361.58442407 Ry
     estimated scf accuracy    <       0.00000006 Ry

     iteration # 40     ecut=    50.00 Ry     beta= 0.30
     Davidson diagonalization with overlap
     ethr =  9.32E-11,  avg # of iterations =  9.5

     total cpu time spent up to now is       55.5 secs

     total energy              =    -361.58442412 Ry
     estimated scf accuracy    <       0.00000020 Ry

     iteration # 41     ecut=    50.00 Ry     beta= 0.30
     Davidson diagonalization with overlap
     ethr =  9.32E-11,  avg # of iterations =  2.0

     total cpu time spent up to now is       56.4 secs

     total energy              =    -361.58442407 Ry
     estimated scf accuracy    <       0.00000014 Ry

     iteration # 42     ecut=    50.00 Ry     beta= 0.30
     Davidson diagonalization with overlap
     ethr =  9.32E-11,  avg # of iterations =  6.1

     total cpu time spent up to now is       58.2 secs

     End of self-consistent calculation

          k = 0.0000 0.0000 0.0000 (  2419 PWs)   bands (ev):

   -12.3242 -11.9838  -0.7270  -0.7270  -0.6782  -0.6342  -0.6342  -0.2748
    -0.0593  -0.0593   0.0271   0.0271   0.5908   3.9059   3.9059   4.0568
     4.3155   4.3155

          k = 0.0000 0.0000 0.0947 (  2395 PWs)   bands (ev):

   -12.3022 -12.0075  -0.7223  -0.7223  -0.6845  -0.6417  -0.6417  -0.3976
    -0.0522  -0.0522   0.0229   0.0229   0.8429   3.4935   3.9335   3.9335
     4.2883   4.2883

          k = 0.0000 0.0000 0.1894 (  2426 PWs)   bands (ev):

   -12.2416 -12.0714  -0.7086  -0.7086  -0.6905  -0.6621  -0.6621  -0.5674
    -0.0344  -0.0344   0.0089   0.0089   1.3817   2.7507   4.0088   4.0088
     4.2136   4.2136

          k = 0.0000 0.0000-0.2841 (  2450 PWs)   bands (ev):

   -12.1573 -12.1573  -0.6870  -0.6870  -0.6870  -0.6870  -0.6638  -0.6638
    -0.0117  -0.0117  -0.0117  -0.0117   2.0368   2.0368   4.1114   4.1114
     4.1114   4.1114

          k = 0.0000 0.1925 0.0000 (  2433 PWs)   bands (ev):

   -12.2262 -11.9268  -0.7739  -0.6652  -0.6467  -0.5855  -0.5500  -0.2395
    -0.0955  -0.0600   0.0307   0.1074   0.7351   2.9641   3.2432   3.6566
     4.0075   4.1558

          k = 0.0000 0.1925 0.0947 (  2421 PWs)   bands (ev):

   -12.2066 -11.9474  -0.7764  -0.6587  -0.6580  -0.5888  -0.5592  -0.3353
    -0.0831  -0.0532   0.0253   0.0668   0.9828   2.8768   3.2234   3.6903
     3.9209   4.1226

          k = 0.0000 0.1925 0.1894 (  2407 PWs)   bands (ev):

   -12.1528 -12.0032  -0.7759  -0.6986  -0.6403  -0.5855  -0.5830  -0.4790
    -0.0526  -0.0353   0.0102   0.0242   1.4819   2.5311   3.3133   3.7250
     3.7822   4.0317

          k = 0.0000 0.1925-0.2841 (  2410 PWs)   bands (ev):

   -12.0785 -12.0785  -0.7512  -0.7512  -0.6130  -0.6130  -0.5561  -0.5561
    -0.0145  -0.0145  -0.0119  -0.0119   2.0306   2.0306   3.5018   3.5018
     3.9072   3.9072

          k = 0.0000 0.3849 0.0000 (  2418 PWs)   bands (ev):

   -12.0129 -11.8209  -0.7839  -0.6196  -0.5660  -0.3668  -0.3608  -0.1899
    -0.1075  -0.0127   0.0469   0.1819   1.1288   1.6270   2.2706   3.1561
     3.6560   3.8203

          k = 0.0000 0.3849 0.0947 (  2418 PWs)   bands (ev):

   -12.0000 -11.8337  -0.7879  -0.6418  -0.5540  -0.3815  -0.3659  -0.2324
    -0.0953  -0.0092   0.0422   0.1404   1.1980   1.6743   2.3291   3.2015
     3.6202   3.7763

          k = 0.0000 0.3849 0.1894 (  2413 PWs)   bands (ev):

   -11.9647 -11.8686  -0.7881  -0.7000  -0.5202  -0.4207  -0.3729  -0.3159
    -0.0505   0.0006   0.0301   0.0729   1.3370   1.6416   2.6319   3.3247
     3.4461   3.6560

          k = 0.0000 0.3849-0.2841 (  2416 PWs)   bands (ev):

   -11.9166 -11.9166  -0.7602  -0.7602  -0.4720  -0.4720  -0.3633  -0.3633
     0.0091   0.0091   0.0146   0.0146   1.4973   1.4973   3.0817   3.0817
     3.4910   3.4910

          k = 0.0000-0.5774 0.0000 (  2412 PWs)   bands (ev):

   -11.8861 -11.7835  -0.7380  -0.5490  -0.5349  -0.2740  -0.2711  -0.0993
     0.0458   0.0525   0.0696   0.1248   0.7932   1.2485   2.1882   2.8952
     3.3033   3.6439

          k = 0.0000-0.5774 0.0947 (  2432 PWs)   bands (ev):

   -11.8788 -11.7900  -0.7460  -0.5904  -0.5196  -0.2936  -0.2640  -0.1036
     0.0465   0.0503   0.0664   0.1231   0.7857   1.1833   2.3581   2.9471
     3.3363   3.5947

          k = 0.0000-0.5774 0.1894 (  2408 PWs)   bands (ev):

   -11.8593 -11.8080  -0.7555  -0.6736  -0.4756  -0.3453  -0.2403  -0.1428
     0.0493   0.0601   0.0695   0.1162   0.8100   1.0402   2.7427   3.0871
     3.3267   3.4600

          k = 0.0000-0.5774-0.2841 (  2400 PWs)   bands (ev):

   -11.8333 -11.8333  -0.7366  -0.7366  -0.4125  -0.4125  -0.1981  -0.1981
     0.0538   0.0538   0.0982   0.0982   0.9001   0.9001   3.1222   3.1222
     3.2748   3.2748

          k = 0.1667 0.2887 0.0000 (  2405 PWs)   bands (ev):

   -12.0698 -11.8455  -0.7264  -0.6584  -0.5495  -0.5212  -0.3920  -0.1959
    -0.1289  -0.0410   0.0410   0.1757   1.0520   2.1949   2.3607   3.1276
     3.7575   3.7992

          k = 0.1667 0.2887 0.0947 (  2399 PWs)   bands (ev):

   -12.0549 -11.8606  -0.7325  -0.6592  -0.5516  -0.5301  -0.4018  -0.2688
    -0.1086  -0.0306   0.0361   0.1313   1.2100   2.1412   2.4610   3.1512
     3.7109   3.7453

          k = 0.1667 0.2887 0.1894 (  2411 PWs)   bands (ev):

   -12.0139 -11.9018  -0.7389  -0.6777  -0.5511  -0.5449  -0.4245  -0.3840
    -0.0592  -0.0142   0.0229   0.0662   1.5045   1.9910   2.7511   3.2319
     3.5512   3.5869

          k = 0.1667 0.2887-0.2841 (  2416 PWs)   bands (ev):

   -11.9579 -11.9579  -0.7194  -0.7194  -0.5477  -0.5477  -0.4331  -0.4331
    -0.0045  -0.0045   0.0120   0.0120   1.7734   1.7734   3.1378   3.1378
     3.4376   3.4376

          k = 0.1667 0.4811 0.0000 (  2405 PWs)   bands (ev):

   -11.8899 -11.7820  -0.6967  -0.5159  -0.4494  -0.2967  -0.2415  -0.1922
    -0.0812  -0.0091   0.0933   0.2188   1.0264   1.3996   2.1801   2.4936
     3.2655   3.4062

          k = 0.1667 0.4811 0.0947 (  2410 PWs)   bands (ev):

   -11.8823 -11.7888  -0.6915  -0.5300  -0.4730  -0.3045  -0.2584  -0.2182
    -0.0704   0.0080   0.0943   0.2036   1.0179   1.3656   2.2950   2.5899
     3.2211   3.4172

          k = 0.1667 0.4811 0.1894 (  2415 PWs)   bands (ev):

   -11.8618 -11.8079  -0.6788  -0.5881  -0.4760  -0.3520  -0.2835  -0.2590
    -0.0257   0.0220   0.1013   0.1656   1.0473   1.2616   2.5320   2.8487
     3.0828   3.4013

          k = 0.1667 0.4811-0.2841 (  2418 PWs)   bands (ev):

   -11.8345 -11.8345  -0.6490  -0.6490  -0.4270  -0.4270  -0.2806  -0.2806
     0.0122   0.0122   0.1248   0.1248   1.1384   1.1384   2.7822   2.7822
     3.2319   3.2319

          k = 0.3333 0.5774 0.0000 (  2427 PWs)   bands (ev):

   -11.7957 -11.7957  -0.7020  -0.3520  -0.3520  -0.2799  -0.0946  -0.0946
    -0.0844  -0.0454   0.1655   0.1655   1.1788   1.1788   1.5827   2.8291
     2.8856   2.8856

          k = 0.3333 0.5774 0.0947 (  2412 PWs)   bands (ev):

   -11.7952 -11.7952  -0.6816  -0.3805  -0.3805  -0.3210  -0.1044  -0.1044
    -0.0813  -0.0478   0.1873   0.1873   1.1409   1.1409   1.6716   2.7445
     2.9857   2.9857

          k = 0.3333 0.5774 0.1894 (  2430 PWs)   bands (ev):

   -11.7943 -11.7943  -0.6219  -0.4364  -0.4364  -0.4193  -0.1181  -0.1181
    -0.0736  -0.0547   0.2234   0.2234   1.0754   1.0754   1.9048   2.5173
     3.1778   3.1778

          k = 0.3333 0.5774-0.2841 (  2430 PWs)   bands (ev):

   -11.7938 -11.7938  -0.5296  -0.5296  -0.4632  -0.4632  -0.1232  -0.1232
    -0.0639  -0.0639   0.2393   0.2393   1.0467   1.0467   2.2121   2.2121
     3.2713   3.2713

     highest occupied level (ev):     4.3155

!    total energy              =    -361.58442410 Ry
     estimated scf accuracy    <          1.2E-09 Ry

     The total energy is the sum of the following terms:
     one-electron contribution =    -177.79519079 Ry
     hartree contribution      =     126.78952724 Ry
     xc contribution           =    -109.17985115 Ry
     ewald contribution        =    -201.39890940 Ry

     convergence has been achieved in  42 iterations

     Forces acting on atoms (cartesian axes, Ry/au):

     atom    1 type  1   force =     0.00000000    0.00000000   -0.00558974
     atom    2 type  1   force =     0.00000000    0.00000000   -0.00558974
     atom    3 type  2   force =     0.00000000    0.00000000    0.00558974
     atom    4 type  2   force =     0.00000000    0.00000000    0.00558974
     The non-local contrib.  to forces
     atom    1 type  1   force =     0.00000000   -0.00000000    0.20781592
     atom    2 type  1   force =     0.00000000    0.00000000    0.20781592
     atom    3 type  2   force =     0.00000000    0.00000000    0.23214138
     atom    4 type  2   force =     0.00000000   -0.00000000    0.23214138
     The ionic contribution  to forces
     atom    1 type  1   force =    -0.00000000    0.00000000    1.61319574
     atom    2 type  1   force =     0.00000000   -0.00000000    1.61319574
     atom    3 type  2   force =    -0.00000000    0.00000000   -1.61319574
     atom    4 type  2   force =     0.00000000   -0.00000000   -1.61319574
     The local contribution  to forces
     atom    1 type  1   force =    -0.00000002    0.00000001   -1.81407060
     atom    2 type  1   force =     0.00000007   -0.00000004   -1.81407060
     atom    3 type  2   force =    -0.00000001    0.00000000    1.38874870
     atom    4 type  2   force =     0.00000002   -0.00000001    1.38874870
     The core correction contribution to forces
     atom    1 type  1   force =    -0.00000000    0.00000000   -0.01252986
     atom    2 type  1   force =     0.00000001   -0.00000001   -0.01252986
     atom    3 type  2   force =     0.00000000   -0.00000000   -0.00210202
     atom    4 type  2   force =    -0.00000000    0.00000000   -0.00210202
     The Hubbard contrib.    to forces
     atom    1 type  1   force =     0.00000000    0.00000000    0.00000000
     atom    2 type  1   force =     0.00000000    0.00000000    0.00000000
     atom    3 type  2   force =     0.00000000    0.00000000    0.00000000
     atom    4 type  2   force =     0.00000000    0.00000000    0.00000000
     The SCF correction term to forces
     atom    1 type  1   force =     0.00000000   -0.00000000   -0.00000230
     atom    2 type  1   force =    -0.00000000    0.00000000   -0.00000230
     atom    3 type  2   force =    -0.00000000    0.00000000   -0.00000395
     atom    4 type  2   force =     0.00000000   -0.00000000   -0.00000395

     Total force =     0.011179     Total SCF correction =     0.000006


     Computing stress (Cartesian axis) and pressure

          total   stress  (Ry/bohr**3)                   (kbar)     P=     -165.53
  -0.00097010   0.00000000   0.00000000         -142.71        0.00        0.00
   0.00000000  -0.00097010   0.00000000            0.00     -142.71        0.00
   0.00000000   0.00000000  -0.00143552            0.00        0.00     -211.17


     Writing all to output data dir ./ZnO_ANN.save/

     init_run     :      2.09s CPU      1.40s WALL (       1 calls)
     electrons    :    150.74s CPU     56.46s WALL (       1 calls)
     forces       :      0.77s CPU      0.36s WALL (       1 calls)
     stress       :      2.84s CPU      1.38s WALL (       1 calls)

     Called by init_run:
     wfcinit      :      1.16s CPU      0.45s WALL (       1 calls)
     potinit      :      0.27s CPU      0.27s WALL (       1 calls)
     hinit0       :      0.50s CPU      0.51s WALL (       1 calls)

     Called by electrons:
     c_bands      :    119.48s CPU     44.30s WALL (      42 calls)
     sum_band     :     22.91s CPU      8.83s WALL (      42 calls)
     v_of_rho     :      1.89s CPU      0.82s WALL (      43 calls)
     newd         :      5.99s CPU      2.36s WALL (      43 calls)
     mix_rho      :      0.34s CPU      0.14s WALL (      42 calls)

     Called by c_bands:
     init_us_2    :      2.19s CPU      0.76s WALL (    2436 calls)
     init_us_2:cp :      2.16s CPU      0.75s WALL (    2436 calls)
     cegterg      :    114.76s CPU     42.43s WALL (    1176 calls)

     Called by *egterg:
     cdiaghg      :     16.87s CPU      5.51s WALL (    5859 calls)
     h_psi        :     80.21s CPU     32.62s WALL (    5887 calls)
     s_psi        :      1.84s CPU      0.52s WALL (    5887 calls)
     g_psi        :      0.62s CPU      0.16s WALL (    4683 calls)

     Called by h_psi:
     h_psi:calbec :      2.54s CPU      0.89s WALL (    5887 calls)
     vloc_psi     :     75.14s CPU     30.92s WALL (    5887 calls)
     add_vuspsi   :      1.83s CPU      0.59s WALL (    5887 calls)

     General routines
     calbec       :      3.34s CPU      1.15s WALL (    7203 calls)
     fft          :      1.33s CPU      0.71s WALL (     582 calls)
     ffts         :      0.20s CPU      0.15s WALL (      85 calls)
     fftw         :     76.33s CPU     31.48s WALL (  151428 calls)
     interpolate  :      0.25s CPU      0.17s WALL (      43 calls)

     Parallel routines

     PWSCF        :   2m37.00s CPU   1m 0.09s WALL


   This run was terminated on:  18:27: 6  13Jun2025            

=------------------------------------------------------------------------------=
   JOB DONE.
=------------------------------------------------------------------------------=
Note: The following floating-point exceptions are signalling: IEEE_INVALID_FLAG
