Authorization required, but no authorization protocol specified

Authorization required, but no authorization protocol specified

Authorization required, but no authorization protocol specified

Authorization required, but no authorization protocol specified

Authorization required, but no authorization protocol specified

Authorization required, but no authorization protocol specified

Authorization required, but no authorization protocol specified

Authorization required, but no authorization protocol specified

Authorization required, but no authorization protocol specified

Authorization required, but no authorization protocol specified


     Program PWSCF v.7.2 starts on 13Jun2025 at 18:55:54 

     This program is part of the open-source Quantum ESPRESSO suite
     for quantum simulation of materials; please cite
         "P. Giannozzi et al., J. Phys.:Condens. Matter 21 395502 (2009);
         "P. Giannozzi et al., J. Phys.:Condens. Matter 29 465901 (2017);
         "P. Giannozzi et al., J. Chem. Phys. 152 154105 (2020);
          URL http://www.quantum-espresso.org", 
     in publications or presentations arising from this work. More details at
     http://www.quantum-espresso.org/quote

     Parallel version (MPI), running on     8 processors

     MPI processes distributed on     1 nodes
     120699 MiB available memory on the printing compute node when the environment starts

     Reading input from /home/jvc/QEspresso7.2/ZnO_database_python/SCFs.in/scf-6.55-1.68.in

     Current dimensions of program PWSCF are:
     Max number of different atomic species (ntypx) = 10
     Max number of k-points (npk) =  40000
     Max angular momentum in pseudopotentials (lmaxx) =  4
     file Zn.upf: wavefunction(s)  3D renormalized

     R & G space division:  proc/nbgrp/npool/nimage =       8
     Subspace diagonalization in iterative solution of the eigenvalue problem:
     a serial algorithm will be used


     Parallelization info
     --------------------
     sticks:   dense  smooth     PW     G-vecs:    dense   smooth      PW
     Min         147      72     22                 6891     2432     401
     Max         148      73     25                 6893     2441     402
     Sum        1177     583    187                55139    19507    3213

     Using Slab Decomposition



     bravais-lattice index     =            4
     lattice parameter (alat)  =       6.5496  a.u.
     unit-cell volume          =     408.5060 (a.u.)^3
     number of atoms/cell      =            4
     number of atomic types    =            2
     number of electrons       =        36.00
     number of Kohn-Sham states=           18
     kinetic-energy cutoff     =      50.0000  Ry
     charge density cutoff     =     400.0000  Ry
     scf convergence threshold =      1.0E-08
     mixing beta               =       0.3000
     number of iterations used =            8  plain     mixing
     Exchange-correlation= PBE
                           (   1   4   3   4   0   0   0)

     celldm(1)=   6.549551  celldm(2)=   0.000000  celldm(3)=   1.678933
     celldm(4)=   0.000000  celldm(5)=   0.000000  celldm(6)=   0.000000

     crystal axes: (cart. coord. in units of alat)
               a(1) = (   1.000000   0.000000   0.000000 )  
               a(2) = (  -0.500000   0.866025   0.000000 )  
               a(3) = (   0.000000   0.000000   1.678933 )  

     reciprocal axes: (cart. coord. in units 2 pi/alat)
               b(1) = (  1.000000  0.577350 -0.000000 )  
               b(2) = (  0.000000  1.154701  0.000000 )  
               b(3) = (  0.000000 -0.000000  0.595616 )  


     PseudoPot. # 1 for Zn read from file:
     /home/jvc/QEspresso7.2/ZnO_database/pseudos/Zn.upf
     MD5 check sum: 7f56cabf9682ed8c977c2f7d0c5985c5
     Pseudo is Ultrasoft + core correction, Zval = 12.0
     Generated using &quot;atomic&quot; code by A. Dal Corso  v.6.2.2
     Using radial grid of 1201 points,  6 beta functions with: 
                l(1) =   0
                l(2) =   0
                l(3) =   1
                l(4) =   1
                l(5) =   2
                l(6) =   2
     Q(r) pseudized with 0 coefficients 


     PseudoPot. # 2 for O  read from file:
     /home/jvc/QEspresso7.2/ZnO_database/pseudos/O.upf
     MD5 check sum: 91400c9766925bcf19f520983a725ff0
     Pseudo is Ultrasoft + core correction, Zval =  6.0
     Generated using &quot;atomic&quot; code by A. Dal Corso  v.6.3MaX
     Using radial grid of 1095 points,  4 beta functions with: 
                l(1) =   0
                l(2) =   0
                l(3) =   1
                l(4) =   1
     Q(r) pseudized with 0 coefficients 


     atomic species   valence    mass     pseudopotential
        Zn            12.00    63.38000     Zn( 1.00)
        O              6.00    15.99900     O ( 1.00)

     12 Sym. Ops. (no inversion) found ( 6 have fractional translation)



   Cartesian axes

     site n.     atom                  positions (alat units)
         1           Zn  tau(   1) = (   0.5000000   0.2886751   0.8405301  )
         2           Zn  tau(   2) = (  -0.0000000   0.5773503   0.0010637  )
         3           O   tau(   3) = (   0.5000000   0.2886751   1.4769175  )
         4           O   tau(   4) = (  -0.0000000   0.5773503   0.6374511  )

     number of k points=    28
                       cart. coord. in units 2pi/alat
        k(    1) = (   0.0000000   0.0000000   0.0000000), wk =   0.0092593
        k(    2) = (   0.0000000   0.0000000   0.0992694), wk =   0.0185185
        k(    3) = (   0.0000000   0.0000000   0.1985388), wk =   0.0185185
        k(    4) = (   0.0000000   0.0000000  -0.2978082), wk =   0.0092593
        k(    5) = (   0.0000000   0.1924501   0.0000000), wk =   0.0555556
        k(    6) = (   0.0000000   0.1924501   0.0992694), wk =   0.1111111
        k(    7) = (   0.0000000   0.1924501   0.1985388), wk =   0.1111111
        k(    8) = (   0.0000000   0.1924501  -0.2978082), wk =   0.0555556
        k(    9) = (   0.0000000   0.3849002   0.0000000), wk =   0.0555556
        k(   10) = (   0.0000000   0.3849002   0.0992694), wk =   0.1111111
        k(   11) = (   0.0000000   0.3849002   0.1985388), wk =   0.1111111
        k(   12) = (   0.0000000   0.3849002  -0.2978082), wk =   0.0555556
        k(   13) = (   0.0000000  -0.5773503   0.0000000), wk =   0.0277778
        k(   14) = (   0.0000000  -0.5773503   0.0992694), wk =   0.0555556
        k(   15) = (   0.0000000  -0.5773503   0.1985388), wk =   0.0555556
        k(   16) = (   0.0000000  -0.5773503  -0.2978082), wk =   0.0277778
        k(   17) = (   0.1666667   0.2886751   0.0000000), wk =   0.0555556
        k(   18) = (   0.1666667   0.2886751   0.0992694), wk =   0.1111111
        k(   19) = (   0.1666667   0.2886751   0.1985388), wk =   0.1111111
        k(   20) = (   0.1666667   0.2886751  -0.2978082), wk =   0.0555556
        k(   21) = (   0.1666667   0.4811252   0.0000000), wk =   0.1111111
        k(   22) = (   0.1666667   0.4811252   0.0992694), wk =   0.2222222
        k(   23) = (   0.1666667   0.4811252   0.1985388), wk =   0.2222222
        k(   24) = (   0.1666667   0.4811252  -0.2978082), wk =   0.1111111
        k(   25) = (   0.3333333   0.5773503   0.0000000), wk =   0.0185185
        k(   26) = (   0.3333333   0.5773503   0.0992694), wk =   0.0370370
        k(   27) = (   0.3333333   0.5773503   0.1985388), wk =   0.0370370
        k(   28) = (   0.3333333   0.5773503  -0.2978082), wk =   0.0185185

     Dense  grid:    55139 G-vectors     FFT dimensions: (  45,  45,  72)

     Smooth grid:    19507 G-vectors     FFT dimensions: (  30,  30,  50)

     Estimated max dynamical RAM per process >      31.31 MB

     Estimated total dynamical RAM >     250.47 MB

     Check: negative core charge=   -0.000002

     Initial potential from superposition of free atoms

     starting charge      35.9925, renormalised to      36.0000
     Starting wfcs are   26 randomized atomic wfcs

     total cpu time spent up to now is        1.7 secs

     Self-consistent Calculation

     iteration #  1     ecut=    50.00 Ry     beta= 0.30
     Davidson diagonalization with overlap
     ethr =  1.00E-02,  avg # of iterations =  1.3

     total cpu time spent up to now is        2.6 secs

     total energy              =    -361.39235061 Ry
     estimated scf accuracy    <       0.79948265 Ry

     iteration #  2     ecut=    50.00 Ry     beta= 0.30
     Davidson diagonalization with overlap
     ethr =  2.22E-03,  avg # of iterations =  2.3

     total cpu time spent up to now is        3.8 secs

     total energy              =    -361.51441726 Ry
     estimated scf accuracy    <       0.08920470 Ry

     iteration #  3     ecut=    50.00 Ry     beta= 0.30
     Davidson diagonalization with overlap
     ethr =  2.48E-04,  avg # of iterations =  5.6

     total cpu time spent up to now is        5.5 secs

     total energy              =    -361.51916963 Ry
     estimated scf accuracy    <       0.12316938 Ry

     iteration #  4     ecut=    50.00 Ry     beta= 0.30
     Davidson diagonalization with overlap
     ethr =  2.48E-04,  avg # of iterations =  9.3

     total cpu time spent up to now is        8.0 secs

     total energy              =    -361.62759027 Ry
     estimated scf accuracy    <       0.53319934 Ry

     iteration #  5     ecut=    50.00 Ry     beta= 0.30
     Davidson diagonalization with overlap
     ethr =  2.48E-04,  avg # of iterations =  2.0

     total cpu time spent up to now is        9.0 secs

     total energy              =    -361.41605078 Ry
     estimated scf accuracy    <       0.35554596 Ry

     iteration #  6     ecut=    50.00 Ry     beta= 0.30
     Davidson diagonalization with overlap
     ethr =  2.48E-04,  avg # of iterations =  7.4

     total cpu time spent up to now is       10.9 secs

     total energy              =    -361.58935027 Ry
     estimated scf accuracy    <       0.24715300 Ry

     iteration #  7     ecut=    50.00 Ry     beta= 0.30
     Davidson diagonalization with overlap
     ethr =  2.48E-04,  avg # of iterations =  2.0

     total cpu time spent up to now is       11.9 secs

     total energy              =    -361.58706574 Ry
     estimated scf accuracy    <       0.13538294 Ry

     iteration #  8     ecut=    50.00 Ry     beta= 0.30
     Davidson diagonalization with overlap
     ethr =  2.48E-04,  avg # of iterations =  2.0

     total cpu time spent up to now is       13.0 secs

     total energy              =    -361.58982651 Ry
     estimated scf accuracy    <       0.09364426 Ry

     iteration #  9     ecut=    50.00 Ry     beta= 0.30
     Davidson diagonalization with overlap
     ethr =  2.48E-04,  avg # of iterations =  1.0

     total cpu time spent up to now is       13.9 secs

     total energy              =    -361.59138404 Ry
     estimated scf accuracy    <       0.07878087 Ry

     iteration # 10     ecut=    50.00 Ry     beta= 0.30
     Davidson diagonalization with overlap
     ethr =  2.19E-04,  avg # of iterations =  1.1

     total cpu time spent up to now is       14.9 secs

     total energy              =    -361.58520587 Ry
     estimated scf accuracy    <       0.06497143 Ry

     iteration # 11     ecut=    50.00 Ry     beta= 0.30
     Davidson diagonalization with overlap
     ethr =  1.80E-04,  avg # of iterations =  1.2

     total cpu time spent up to now is       15.8 secs

     total energy              =    -361.58214596 Ry
     estimated scf accuracy    <       0.04256431 Ry

     iteration # 12     ecut=    50.00 Ry     beta= 0.30
     Davidson diagonalization with overlap
     ethr =  1.18E-04,  avg # of iterations =  1.6

     total cpu time spent up to now is       16.8 secs

     total energy              =    -361.57970588 Ry
     estimated scf accuracy    <       0.02888899 Ry

     iteration # 13     ecut=    50.00 Ry     beta= 0.30
     Davidson diagonalization with overlap
     ethr =  8.02E-05,  avg # of iterations =  3.6

     total cpu time spent up to now is       17.9 secs

     total energy              =    -361.57711491 Ry
     estimated scf accuracy    <       0.01324189 Ry

     iteration # 14     ecut=    50.00 Ry     beta= 0.30
     Davidson diagonalization with overlap
     ethr =  3.68E-05,  avg # of iterations =  5.3

     total cpu time spent up to now is       19.4 secs

     total energy              =    -361.58729165 Ry
     estimated scf accuracy    <       0.00186775 Ry

     iteration # 15     ecut=    50.00 Ry     beta= 0.30
     Davidson diagonalization with overlap
     ethr =  5.19E-06,  avg # of iterations =  8.4

     total cpu time spent up to now is       21.5 secs

     total energy              =    -361.58740361 Ry
     estimated scf accuracy    <       0.02521672 Ry

     iteration # 16     ecut=    50.00 Ry     beta= 0.30
     Davidson diagonalization with overlap
     ethr =  5.19E-06,  avg # of iterations =  1.7

     total cpu time spent up to now is       22.5 secs

     total energy              =    -361.57842646 Ry
     estimated scf accuracy    <       0.01973194 Ry

     iteration # 17     ecut=    50.00 Ry     beta= 0.30
     Davidson diagonalization with overlap
     ethr =  5.19E-06,  avg # of iterations =  9.9

     total cpu time spent up to now is       24.9 secs

     total energy              =    -361.58362189 Ry
     estimated scf accuracy    <       0.00172878 Ry

     iteration # 18     ecut=    50.00 Ry     beta= 0.30
     Davidson diagonalization with overlap
     ethr =  4.80E-06,  avg # of iterations =  5.1

     total cpu time spent up to now is       26.3 secs

     total energy              =    -361.58459547 Ry
     estimated scf accuracy    <       0.00015586 Ry

     iteration # 19     ecut=    50.00 Ry     beta= 0.30
     Davidson diagonalization with overlap
     c_bands:  1 eigenvalues not converged
     ethr =  4.33E-07,  avg # of iterations = 13.4

     total cpu time spent up to now is       29.5 secs

     total energy              =    -361.58669009 Ry
     estimated scf accuracy    <       0.01237186 Ry

     iteration # 20     ecut=    50.00 Ry     beta= 0.30
     Davidson diagonalization with overlap
     ethr =  4.33E-07,  avg # of iterations =  1.8

     total cpu time spent up to now is       30.5 secs

     total energy              =    -361.58517807 Ry
     estimated scf accuracy    <       0.01160437 Ry

     iteration # 21     ecut=    50.00 Ry     beta= 0.30
     Davidson diagonalization with overlap
     ethr =  4.33E-07,  avg # of iterations =  6.7

     total cpu time spent up to now is       32.2 secs

     total energy              =    -361.58510696 Ry
     estimated scf accuracy    <       0.00579201 Ry

     iteration # 22     ecut=    50.00 Ry     beta= 0.30
     Davidson diagonalization with overlap
     ethr =  4.33E-07,  avg # of iterations =  2.1

     total cpu time spent up to now is       33.3 secs

     total energy              =    -361.58352622 Ry
     estimated scf accuracy    <       0.00516154 Ry

     iteration # 23     ecut=    50.00 Ry     beta= 0.30
     Davidson diagonalization with overlap
     ethr =  4.33E-07,  avg # of iterations = 10.5

     total cpu time spent up to now is       35.8 secs

     total energy              =    -361.58403624 Ry
     estimated scf accuracy    <       0.00016892 Ry

     iteration # 24     ecut=    50.00 Ry     beta= 0.30
     Davidson diagonalization with overlap
     ethr =  4.33E-07,  avg # of iterations =  8.1

     total cpu time spent up to now is       37.9 secs

     total energy              =    -361.58400768 Ry
     estimated scf accuracy    <       0.00081336 Ry

     iteration # 25     ecut=    50.00 Ry     beta= 0.30
     Davidson diagonalization with overlap
     ethr =  4.33E-07,  avg # of iterations =  6.0

     total cpu time spent up to now is       39.6 secs

     total energy              =    -361.58414477 Ry
     estimated scf accuracy    <       0.00000093 Ry

     iteration # 26     ecut=    50.00 Ry     beta= 0.30
     Davidson diagonalization with overlap
     ethr =  2.58E-09,  avg # of iterations =  9.4

     total cpu time spent up to now is       41.5 secs

     total energy              =    -361.58414743 Ry
     estimated scf accuracy    <       0.00000008 Ry

     iteration # 27     ecut=    50.00 Ry     beta= 0.30
     Davidson diagonalization with overlap
     c_bands:  1 eigenvalues not converged
     ethr =  2.23E-10,  avg # of iterations = 13.0

     total cpu time spent up to now is       44.6 secs

     total energy              =    -361.58414471 Ry
     estimated scf accuracy    <       0.00000460 Ry

     iteration # 28     ecut=    50.00 Ry     beta= 0.30
     Davidson diagonalization with overlap
     c_bands:  1 eigenvalues not converged
     c_bands:  2 eigenvalues not converged
     ethr =  2.23E-10,  avg # of iterations = 14.6

     total cpu time spent up to now is       48.5 secs

     total energy              =    -361.58414861 Ry
     estimated scf accuracy    <       0.00001644 Ry

     iteration # 29     ecut=    50.00 Ry     beta= 0.30
     Davidson diagonalization with overlap
     ethr =  2.23E-10,  avg # of iterations = 10.4

     total cpu time spent up to now is       51.1 secs

     total energy              =    -361.58414857 Ry
     estimated scf accuracy    <       0.00000763 Ry

     iteration # 30     ecut=    50.00 Ry     beta= 0.30
     Davidson diagonalization with overlap
     ethr =  2.23E-10,  avg # of iterations =  3.5

     total cpu time spent up to now is       52.2 secs

     total energy              =    -361.58414889 Ry
     estimated scf accuracy    <       0.00000673 Ry

     iteration # 31     ecut=    50.00 Ry     beta= 0.30
     Davidson diagonalization with overlap
     ethr =  2.23E-10,  avg # of iterations =  1.1

     total cpu time spent up to now is       53.2 secs

     total energy              =    -361.58414868 Ry
     estimated scf accuracy    <       0.00000723 Ry

     iteration # 32     ecut=    50.00 Ry     beta= 0.30
     Davidson diagonalization with overlap
     ethr =  2.23E-10,  avg # of iterations =  1.4

     total cpu time spent up to now is       54.1 secs

     total energy              =    -361.58414590 Ry
     estimated scf accuracy    <       0.00000677 Ry

     iteration # 33     ecut=    50.00 Ry     beta= 0.30
     Davidson diagonalization with overlap
     ethr =  2.23E-10,  avg # of iterations = 13.6

     total cpu time spent up to now is       57.4 secs

     total energy              =    -361.58414720 Ry
     estimated scf accuracy    <       0.00000008 Ry

     iteration # 34     ecut=    50.00 Ry     beta= 0.30
     Davidson diagonalization with overlap
     ethr =  2.23E-10,  avg # of iterations =  4.3

     total cpu time spent up to now is       58.7 secs

     total energy              =    -361.58414722 Ry
     estimated scf accuracy    <       0.00000001 Ry

     iteration # 35     ecut=    50.00 Ry     beta= 0.30
     Davidson diagonalization with overlap
     ethr =  2.92E-11,  avg # of iterations =  6.2

     total cpu time spent up to now is       60.3 secs

     total energy              =    -361.58414721 Ry
     estimated scf accuracy    <       0.00000002 Ry

     iteration # 36     ecut=    50.00 Ry     beta= 0.30
     Davidson diagonalization with overlap
     ethr =  2.92E-11,  avg # of iterations = 11.3

     total cpu time spent up to now is       63.0 secs

     total energy              =    -361.58414724 Ry
     estimated scf accuracy    <       0.00000020 Ry

     iteration # 37     ecut=    50.00 Ry     beta= 0.30
     Davidson diagonalization with overlap
     ethr =  2.92E-11,  avg # of iterations =  4.8

     total cpu time spent up to now is       64.3 secs

     total energy              =    -361.58414727 Ry
     estimated scf accuracy    <       0.00000011 Ry

     iteration # 38     ecut=    50.00 Ry     beta= 0.30
     Davidson diagonalization with overlap
     ethr =  2.92E-11,  avg # of iterations =  4.6

     total cpu time spent up to now is       65.7 secs

     total energy              =    -361.58414724 Ry
     estimated scf accuracy    <       0.00000022 Ry

     iteration # 39     ecut=    50.00 Ry     beta= 0.30
     Davidson diagonalization with overlap
     ethr =  2.92E-11,  avg # of iterations =  5.0

     total cpu time spent up to now is       67.1 secs

     total energy              =    -361.58414719 Ry
     estimated scf accuracy    <       0.00000010 Ry

     iteration # 40     ecut=    50.00 Ry     beta= 0.30
     Davidson diagonalization with overlap
     ethr =  2.92E-11,  avg # of iterations = 10.1

     total cpu time spent up to now is       69.5 secs

     total energy              =    -361.58414722 Ry
     estimated scf accuracy    <       0.00000001 Ry

     iteration # 41     ecut=    50.00 Ry     beta= 0.30
     Davidson diagonalization with overlap
     ethr =  2.92E-11,  avg # of iterations =  1.1

     total cpu time spent up to now is       70.4 secs

     End of self-consistent calculation

          k = 0.0000 0.0000 0.0000 (  2467 PWs)   bands (ev):

   -12.3661 -11.9892  -0.7946  -0.7946  -0.7616  -0.6891  -0.6891  -0.2514
    -0.1775  -0.1775  -0.0753  -0.0753   0.4431   3.6829   3.6829   4.0466
     4.1602   4.1602

          k = 0.0000 0.0000 0.0993 (  2467 PWs)   bands (ev):

   -12.3417 -12.0153  -0.7897  -0.7897  -0.7713  -0.6987  -0.6987  -0.4269
    -0.1688  -0.1688  -0.0801  -0.0801   0.7489   3.4532   3.7153   3.7153
     4.1287   4.1287

          k = 0.0000 0.0000 0.1985 (  2449 PWs)   bands (ev):

   -12.2743 -12.0859  -0.7823  -0.7752  -0.7752  -0.7229  -0.7229  -0.6401
    -0.1462  -0.1462  -0.0946  -0.0946   1.3334   2.7162   3.8036   3.8036
     4.0423   4.0423

          k = 0.0000 0.0000-0.2978 (  2472 PWs)   bands (ev):

   -12.1810 -12.1810  -0.7536  -0.7536  -0.7516  -0.7516  -0.7516  -0.7516
    -0.1188  -0.1188  -0.1188  -0.1188   2.0051   2.0051   3.9234   3.9234
     3.9234   3.9234

          k = 0.0000 0.1925 0.0000 (  2445 PWs)   bands (ev):

   -12.2755 -11.9438  -0.8333  -0.7388  -0.7177  -0.6539  -0.6086  -0.2753
    -0.2091  -0.1775  -0.0706   0.0265   0.6081   2.8164   3.0950   3.4372
     3.9431   4.0162

          k = 0.0000 0.1925 0.0993 (  2440 PWs)   bands (ev):

   -12.2538 -11.9664  -0.8385  -0.7322  -0.7248  -0.6639  -0.6196  -0.3953
    -0.1942  -0.1692  -0.0763  -0.0298   0.8908   2.7509   3.0632   3.4766
     3.8642   3.9779

          k = 0.0000 0.1925 0.1985 (  2447 PWs)   bands (ev):

   -12.1940 -12.0281  -0.8433  -0.7585  -0.7129  -0.6748  -0.6481  -0.5688
    -0.1592  -0.1475  -0.0938  -0.0759   1.4130   2.4289   3.1724   3.5837
     3.6598   3.8730

          k = 0.0000 0.1925-0.2978 (  2436 PWs)   bands (ev):

   -12.1115 -12.1115  -0.8182  -0.8182  -0.6826  -0.6826  -0.6502  -0.6502
    -0.1194  -0.1194  -0.1168  -0.1168   1.9534   1.9534   3.4012   3.4012
     3.7289   3.7289

          k = 0.0000 0.3849 0.0000 (  2453 PWs)   bands (ev):

   -12.0770 -11.8633  -0.8372  -0.6727  -0.6515  -0.4588  -0.4308  -0.2922
    -0.2013  -0.1325  -0.0583   0.0825   1.0225   1.5503   2.1663   2.9476
     3.5680   3.7116

          k = 0.0000 0.3849 0.0993 (  2435 PWs)   bands (ev):

   -12.0624 -11.8774  -0.8447  -0.6968  -0.6384  -0.4667  -0.4474  -0.3381
    -0.1938  -0.1280  -0.0642   0.0402   1.0840   1.6068   2.2326   3.0004
     3.5554   3.6613

          k = 0.0000 0.3849 0.1985 (  2435 PWs)   bands (ev):

   -12.0229 -11.9160  -0.8530  -0.7616  -0.6018  -0.4915  -0.4808  -0.4314
    -0.1487  -0.1159  -0.0797  -0.0255   1.2175   1.5509   2.5830   3.1430
     3.4184   3.5238

          k = 0.0000 0.3849-0.2978 (  2440 PWs)   bands (ev):

   -11.9692 -11.9692  -0.8284  -0.8284  -0.5486  -0.5486  -0.4776  -0.4776
    -0.0985  -0.0985  -0.0884  -0.0884   1.3852   1.3852   3.0630   3.0630
     3.3346   3.3346

          k = 0.0000-0.5774 0.0000 (  2424 PWs)   bands (ev):

   -11.9561 -11.8410  -0.8050  -0.6247  -0.5756  -0.3813  -0.3361  -0.2269
    -0.0774  -0.0764  -0.0440   0.0076   0.7464   1.2339   2.0582   2.6942
     3.2136   3.5515

          k = 0.0000-0.5774 0.0993 (  2434 PWs)   bands (ev):

   -11.9478 -11.8481  -0.8160  -0.6307  -0.6079  -0.3769  -0.3578  -0.2324
    -0.0764  -0.0708  -0.0490   0.0071   0.7278   1.1562   2.2551   2.7545
     3.2680   3.4956

          k = 0.0000-0.5774 0.1985 (  2430 PWs)   bands (ev):

   -11.9256 -11.8680  -0.8312  -0.7363  -0.5600  -0.4156  -0.3601  -0.2735
    -0.0731  -0.0587  -0.0422   0.0023   0.7431   0.9920   2.6854   2.9160
     3.2923   3.3424

          k = 0.0000-0.5774-0.2978 (  2432 PWs)   bands (ev):

   -11.8962 -11.8962  -0.8122  -0.8122  -0.4905  -0.4905  -0.3247  -0.3247
    -0.0674  -0.0674  -0.0132  -0.0132   0.8376   0.8376   3.0934   3.0934
     3.1312   3.1312

          k = 0.1667 0.2887 0.0000 (  2459 PWs)   bands (ev):

   -12.1303 -11.8811  -0.7849  -0.7300  -0.6365  -0.5834  -0.4618  -0.2647
    -0.2385  -0.1600  -0.0627   0.0798   0.9409   2.0812   2.2348   2.9468
     3.6525   3.7098

          k = 0.1667 0.2887 0.0993 (  2444 PWs)   bands (ev):

   -12.1136 -11.8977  -0.7949  -0.7288  -0.6396  -0.5932  -0.4752  -0.3553
    -0.2155  -0.1459  -0.0686   0.0316   1.1036   2.0245   2.3558   2.9704
     3.5995   3.6787

          k = 0.1667 0.2887 0.1985 (  2439 PWs)   bands (ev):

   -12.0678 -11.9432  -0.8094  -0.7455  -0.6367  -0.6115  -0.5084  -0.4913
    -0.1616  -0.1272  -0.0839  -0.0331   1.3901   1.8669   2.6944   3.0690
     3.4576   3.5131

          k = 0.1667 0.2887-0.2978 (  2446 PWs)   bands (ev):

   -12.0055 -12.0055  -0.7922  -0.7922  -0.6227  -0.6227  -0.5344  -0.5344
    -0.1113  -0.1113  -0.0910  -0.0910   1.6483   1.6483   3.1058   3.1058
     3.2950   3.2950

          k = 0.1667 0.4811 0.0000 (  2430 PWs)   bands (ev):

   -11.9597 -11.8391  -0.7662  -0.6136  -0.4993  -0.3904  -0.3208  -0.2919
    -0.1813  -0.1279  -0.0251   0.1013   0.9496   1.3443   2.0556   2.3463
     3.1981   3.3038

          k = 0.1667 0.4811 0.0993 (  2435 PWs)   bands (ev):

   -11.9511 -11.8466  -0.7624  -0.6224  -0.5381  -0.3962  -0.3426  -0.3217
    -0.1740  -0.1079  -0.0241   0.0881   0.9322   1.3042   2.1704   2.4724
     3.1550   3.3285

          k = 0.1667 0.4811 0.1985 (  2435 PWs)   bands (ev):

   -11.9279 -11.8675  -0.7570  -0.6682  -0.5663  -0.4279  -0.3947  -0.3668
    -0.1320  -0.0937  -0.0147   0.0538   0.9553   1.1841   2.4075   2.7963
     2.9914   3.3532

          k = 0.1667 0.4811-0.2978 (  2436 PWs)   bands (ev):

   -11.8971 -11.8971  -0.7331  -0.7331  -0.5119  -0.5119  -0.3916  -0.3916
    -0.1005  -0.1005   0.0132   0.0132   1.0497   1.0497   2.6808   2.6808
     3.1933   3.1933

          k = 0.3333 0.5774 0.0000 (  2430 PWs)   bands (ev):

   -11.8643 -11.8643  -0.7714  -0.4697  -0.4697  -0.3059  -0.2076  -0.2076
    -0.1828  -0.1490   0.0412   0.0412   1.1405   1.1405   1.4325   2.7638
     2.7638   2.8209

          k = 0.3333 0.5774 0.0993 (  2439 PWs)   bands (ev):

   -11.8636 -11.8636  -0.7497  -0.5017  -0.5017  -0.3514  -0.2226  -0.2226
    -0.1836  -0.1519   0.0642   0.0642   1.0914   1.0914   1.5347   2.7278
     2.8891   2.8891

          k = 0.3333 0.5774 0.1985 (  2427 PWs)   bands (ev):

   -11.8621 -11.8621  -0.6853  -0.5653  -0.5653  -0.4616  -0.2421  -0.2421
    -0.1790  -0.1593   0.1008   0.1008   1.0113   1.0113   1.7986   2.4777
     3.1248   3.1248

          k = 0.3333 0.5774-0.2978 (  2436 PWs)   bands (ev):

   -11.8614 -11.8614  -0.5968  -0.5968  -0.5844  -0.5844  -0.2489  -0.2489
    -0.1697  -0.1697   0.1159   0.1159   0.9778   0.9778   2.1406   2.1406
     3.2379   3.2379

     highest occupied level (ev):     4.1602

!    total energy              =    -361.58414722 Ry
     estimated scf accuracy    <          7.6E-09 Ry

     The total energy is the sum of the following terms:
     one-electron contribution =    -178.43533352 Ry
     hartree contribution      =     126.97427347 Ry
     xc contribution           =    -109.15859871 Ry
     ewald contribution        =    -200.96448845 Ry

     convergence has been achieved in  41 iterations

     Forces acting on atoms (cartesian axes, Ry/au):

     atom    1 type  1   force =     0.00000000    0.00000000   -0.00195758
     atom    2 type  1   force =     0.00000000    0.00000000   -0.00195758
     atom    3 type  2   force =     0.00000000    0.00000000    0.00195758
     atom    4 type  2   force =     0.00000000    0.00000000    0.00195758
     The non-local contrib.  to forces
     atom    1 type  1   force =     0.00000000    0.00000000    0.09358375
     atom    2 type  1   force =     0.00000000    0.00000000    0.09358375
     atom    3 type  2   force =     0.00000000   -0.00000000    0.10929122
     atom    4 type  2   force =     0.00000000   -0.00000000    0.10929122
     The ionic contribution  to forces
     atom    1 type  1   force =    -0.00000000    0.00000000    0.75657745
     atom    2 type  1   force =     0.00000000   -0.00000000    0.75657745
     atom    3 type  2   force =    -0.00000000    0.00000000   -0.75657745
     atom    4 type  2   force =     0.00000000   -0.00000000   -0.75657745
     The local contribution  to forces
     atom    1 type  1   force =    -0.00000002    0.00000001   -0.84648270
     atom    2 type  1   force =     0.00000007   -0.00000004   -0.84648269
     atom    3 type  2   force =    -0.00000001    0.00000000    0.65023765
     atom    4 type  2   force =     0.00000002   -0.00000001    0.65023764
     The core correction contribution to forces
     atom    1 type  1   force =    -0.00000000    0.00000000   -0.00562794
     atom    2 type  1   force =     0.00000001   -0.00000001   -0.00562794
     atom    3 type  2   force =     0.00000000   -0.00000000   -0.00099501
     atom    4 type  2   force =    -0.00000000    0.00000000   -0.00099501
     The Hubbard contrib.    to forces
     atom    1 type  1   force =     0.00000000    0.00000000    0.00000000
     atom    2 type  1   force =     0.00000000    0.00000000    0.00000000
     atom    3 type  2   force =     0.00000000    0.00000000    0.00000000
     atom    4 type  2   force =     0.00000000    0.00000000    0.00000000
     The SCF correction term to forces
     atom    1 type  1   force =     0.00000000   -0.00000000   -0.00001144
     atom    2 type  1   force =    -0.00000000    0.00000000   -0.00001144
     atom    3 type  2   force =    -0.00000000    0.00000000   -0.00000213
     atom    4 type  2   force =     0.00000000   -0.00000000   -0.00000213

     Total force =     0.003915     Total SCF correction =     0.000016


     Computing stress (Cartesian axis) and pressure

          total   stress  (Ry/bohr**3)                   (kbar)     P=     -176.63
  -0.00113315   0.00000000   0.00000000         -166.69        0.00        0.00
   0.00000000  -0.00113315   0.00000000            0.00     -166.69        0.00
   0.00000000   0.00000000  -0.00133587            0.00        0.00     -196.51


     Writing all to output data dir ./ZnO_ANN.save/

     init_run     :      2.09s CPU      1.35s WALL (       1 calls)
     electrons    :    185.24s CPU     68.76s WALL (       1 calls)
     forces       :      0.76s CPU      0.39s WALL (       1 calls)
     stress       :      3.10s CPU      1.62s WALL (       1 calls)

     Called by init_run:
     wfcinit      :      1.22s CPU      0.46s WALL (       1 calls)
     potinit      :      0.26s CPU      0.27s WALL (       1 calls)
     hinit0       :      0.45s CPU      0.46s WALL (       1 calls)

     Called by electrons:
     c_bands      :    154.47s CPU     56.70s WALL (      41 calls)
     sum_band     :     22.64s CPU      8.74s WALL (      41 calls)
     v_of_rho     :      1.80s CPU      0.80s WALL (      42 calls)
     newd         :      5.85s CPU      2.37s WALL (      42 calls)
     mix_rho      :      0.33s CPU      0.13s WALL (      41 calls)

     Called by c_bands:
     init_us_2    :      2.12s CPU      0.75s WALL (    2380 calls)
     init_us_2:cp :      2.08s CPU      0.74s WALL (    2380 calls)
     cegterg      :    149.79s CPU     54.89s WALL (    1148 calls)

     Called by *egterg:
     cdiaghg      :     22.89s CPU      7.51s WALL (    7694 calls)
     h_psi        :    102.00s CPU     41.30s WALL (    7722 calls)
     s_psi        :      2.32s CPU      0.66s WALL (    7722 calls)
     g_psi        :      0.85s CPU      0.22s WALL (    6546 calls)

     Called by h_psi:
     h_psi:calbec :      3.51s CPU      1.26s WALL (    7722 calls)
     vloc_psi     :     95.29s CPU     39.02s WALL (    7722 calls)
     add_vuspsi   :      2.30s CPU      0.75s WALL (    7722 calls)

     General routines
     calbec       :      4.26s CPU      1.50s WALL (    9010 calls)
     fft          :      1.23s CPU      0.65s WALL (     569 calls)
     ffts         :      0.19s CPU      0.13s WALL (      83 calls)
     fftw         :     93.99s CPU     38.60s WALL (  183042 calls)
     interpolate  :      0.24s CPU      0.15s WALL (      42 calls)

     Parallel routines

     PWSCF        :   3m11.72s CPU   1m12.61s WALL


   This run was terminated on:  18:57: 7  13Jun2025            

=------------------------------------------------------------------------------=
   JOB DONE.
=------------------------------------------------------------------------------=
Note: The following floating-point exceptions are signalling: IEEE_INVALID_FLAG
