Authorization required, but no authorization protocol specified

Authorization required, but no authorization protocol specified

Authorization required, but no authorization protocol specified

Authorization required, but no authorization protocol specified

Authorization required, but no authorization protocol specified

Authorization required, but no authorization protocol specified

Authorization required, but no authorization protocol specified

Authorization required, but no authorization protocol specified

Authorization required, but no authorization protocol specified

Authorization required, but no authorization protocol specified


     Program PWSCF v.7.2 starts on 13Jun2025 at 18:29: 9 

     This program is part of the open-source Quantum ESPRESSO suite
     for quantum simulation of materials; please cite
         "P. Giannozzi et al., J. Phys.:Condens. Matter 21 395502 (2009);
         "P. Giannozzi et al., J. Phys.:Condens. Matter 29 465901 (2017);
         "P. Giannozzi et al., J. Chem. Phys. 152 154105 (2020);
          URL http://www.quantum-espresso.org", 
     in publications or presentations arising from this work. More details at
     http://www.quantum-espresso.org/quote

     Parallel version (MPI), running on     8 processors

     MPI processes distributed on     1 nodes
     120690 MiB available memory on the printing compute node when the environment starts

     Reading input from /home/jvc/QEspresso7.2/ZnO_database_python/SCFs.in/scf-6.49-1.50.in

     Current dimensions of program PWSCF are:
     Max number of different atomic species (ntypx) = 10
     Max number of k-points (npk) =  40000
     Max angular momentum in pseudopotentials (lmaxx) =  4
     file Zn.upf: wavefunction(s)  3D renormalized

     R & G space division:  proc/nbgrp/npool/nimage =       8
     Subspace diagonalization in iterative solution of the eigenvalue problem:
     a serial algorithm will be used


     Parallelization info
     --------------------
     sticks:   dense  smooth     PW     G-vecs:    dense   smooth      PW
     Min         144      72     21                 6000     2124     351
     Max         145      73     22                 6007     2129     355
     Sum        1159     583    169                48045    17017    2821

     Using Slab Decomposition



     bravais-lattice index     =            4
     lattice parameter (alat)  =       6.4878  a.u.
     unit-cell volume          =     355.0572 (a.u.)^3
     number of atoms/cell      =            4
     number of atomic types    =            2
     number of electrons       =        36.00
     number of Kohn-Sham states=           18
     kinetic-energy cutoff     =      50.0000  Ry
     charge density cutoff     =     400.0000  Ry
     scf convergence threshold =      1.0E-08
     mixing beta               =       0.3000
     number of iterations used =            8  plain     mixing
     Exchange-correlation= PBE
                           (   1   4   3   4   0   0   0)

     celldm(1)=   6.487762  celldm(2)=   0.000000  celldm(3)=   1.501353
     celldm(4)=   0.000000  celldm(5)=   0.000000  celldm(6)=   0.000000

     crystal axes: (cart. coord. in units of alat)
               a(1) = (   1.000000   0.000000   0.000000 )  
               a(2) = (  -0.500000   0.866025   0.000000 )  
               a(3) = (   0.000000   0.000000   1.501353 )  

     reciprocal axes: (cart. coord. in units 2 pi/alat)
               b(1) = (  1.000000  0.577350 -0.000000 )  
               b(2) = (  0.000000  1.154701  0.000000 )  
               b(3) = (  0.000000 -0.000000  0.666066 )  


     PseudoPot. # 1 for Zn read from file:
     /home/jvc/QEspresso7.2/ZnO_database/pseudos/Zn.upf
     MD5 check sum: 7f56cabf9682ed8c977c2f7d0c5985c5
     Pseudo is Ultrasoft + core correction, Zval = 12.0
     Generated using &quot;atomic&quot; code by A. Dal Corso  v.6.2.2
     Using radial grid of 1201 points,  6 beta functions with: 
                l(1) =   0
                l(2) =   0
                l(3) =   1
                l(4) =   1
                l(5) =   2
                l(6) =   2
     Q(r) pseudized with 0 coefficients 


     PseudoPot. # 2 for O  read from file:
     /home/jvc/QEspresso7.2/ZnO_database/pseudos/O.upf
     MD5 check sum: 91400c9766925bcf19f520983a725ff0
     Pseudo is Ultrasoft + core correction, Zval =  6.0
     Generated using &quot;atomic&quot; code by A. Dal Corso  v.6.3MaX
     Using radial grid of 1095 points,  4 beta functions with: 
                l(1) =   0
                l(2) =   0
                l(3) =   1
                l(4) =   1
     Q(r) pseudized with 0 coefficients 


     atomic species   valence    mass     pseudopotential
        Zn            12.00    63.38000     Zn( 1.00)
        O              6.00    15.99900     O ( 1.00)

     12 Sym. Ops. (no inversion) found ( 6 have fractional translation)



   Cartesian axes

     site n.     atom                  positions (alat units)
         1           Zn  tau(   1) = (   0.5000000   0.2886751   0.7516279  )
         2           Zn  tau(   2) = (  -0.0000000   0.5773503   0.0009512  )
         3           O   tau(   3) = (   0.5000000   0.2886751   1.3207051  )
         4           O   tau(   4) = (  -0.0000000   0.5773503   0.5700284  )

     number of k points=    28
                       cart. coord. in units 2pi/alat
        k(    1) = (   0.0000000   0.0000000   0.0000000), wk =   0.0092593
        k(    2) = (   0.0000000   0.0000000   0.1110110), wk =   0.0185185
        k(    3) = (   0.0000000   0.0000000   0.2220219), wk =   0.0185185
        k(    4) = (   0.0000000   0.0000000  -0.3330329), wk =   0.0092593
        k(    5) = (   0.0000000   0.1924501   0.0000000), wk =   0.0555556
        k(    6) = (   0.0000000   0.1924501   0.1110110), wk =   0.1111111
        k(    7) = (   0.0000000   0.1924501   0.2220219), wk =   0.1111111
        k(    8) = (   0.0000000   0.1924501  -0.3330329), wk =   0.0555556
        k(    9) = (   0.0000000   0.3849002   0.0000000), wk =   0.0555556
        k(   10) = (   0.0000000   0.3849002   0.1110110), wk =   0.1111111
        k(   11) = (   0.0000000   0.3849002   0.2220219), wk =   0.1111111
        k(   12) = (   0.0000000   0.3849002  -0.3330329), wk =   0.0555556
        k(   13) = (   0.0000000  -0.5773503   0.0000000), wk =   0.0277778
        k(   14) = (   0.0000000  -0.5773503   0.1110110), wk =   0.0555556
        k(   15) = (   0.0000000  -0.5773503   0.2220219), wk =   0.0555556
        k(   16) = (   0.0000000  -0.5773503  -0.3330329), wk =   0.0277778
        k(   17) = (   0.1666667   0.2886751   0.0000000), wk =   0.0555556
        k(   18) = (   0.1666667   0.2886751   0.1110110), wk =   0.1111111
        k(   19) = (   0.1666667   0.2886751   0.2220219), wk =   0.1111111
        k(   20) = (   0.1666667   0.2886751  -0.3330329), wk =   0.0555556
        k(   21) = (   0.1666667   0.4811252   0.0000000), wk =   0.1111111
        k(   22) = (   0.1666667   0.4811252   0.1110110), wk =   0.2222222
        k(   23) = (   0.1666667   0.4811252   0.2220219), wk =   0.2222222
        k(   24) = (   0.1666667   0.4811252  -0.3330329), wk =   0.1111111
        k(   25) = (   0.3333333   0.5773503   0.0000000), wk =   0.0185185
        k(   26) = (   0.3333333   0.5773503   0.1110110), wk =   0.0370370
        k(   27) = (   0.3333333   0.5773503   0.2220219), wk =   0.0370370
        k(   28) = (   0.3333333   0.5773503  -0.3330329), wk =   0.0185185

     Dense  grid:    48045 G-vectors     FFT dimensions: (  45,  45,  64)

     Smooth grid:    17017 G-vectors     FFT dimensions: (  30,  30,  48)

     Estimated max dynamical RAM per process >      27.72 MB

     Estimated total dynamical RAM >     221.75 MB

     Check: negative core charge=   -0.000002

     Initial potential from superposition of free atoms

     starting charge      35.9925, renormalised to      36.0000
     Starting wfcs are   26 randomized atomic wfcs

     total cpu time spent up to now is        1.6 secs

     Self-consistent Calculation

     iteration #  1     ecut=    50.00 Ry     beta= 0.30
     Davidson diagonalization with overlap
     ethr =  1.00E-02,  avg # of iterations =  1.8

     total cpu time spent up to now is        2.5 secs

     total energy              =    -361.45438175 Ry
     estimated scf accuracy    <       0.72856813 Ry

     iteration #  2     ecut=    50.00 Ry     beta= 0.30
     Davidson diagonalization with overlap
     ethr =  2.02E-03,  avg # of iterations =  2.1

     total cpu time spent up to now is        3.5 secs

     total energy              =    -361.56610968 Ry
     estimated scf accuracy    <       0.08503728 Ry

     iteration #  3     ecut=    50.00 Ry     beta= 0.30
     Davidson diagonalization with overlap
     ethr =  2.36E-04,  avg # of iterations =  6.4

     total cpu time spent up to now is        5.2 secs

     total energy              =    -361.59077615 Ry
     estimated scf accuracy    <       0.06965001 Ry

     iteration #  4     ecut=    50.00 Ry     beta= 0.30
     Davidson diagonalization with overlap
     ethr =  1.93E-04,  avg # of iterations =  8.2

     total cpu time spent up to now is        7.2 secs

     total energy              =    -361.63426910 Ry
     estimated scf accuracy    <       0.26197377 Ry

     iteration #  5     ecut=    50.00 Ry     beta= 0.30
     Davidson diagonalization with overlap
     ethr =  1.93E-04,  avg # of iterations =  2.0

     total cpu time spent up to now is        8.1 secs

     total energy              =    -361.51462146 Ry
     estimated scf accuracy    <       0.14883757 Ry

     iteration #  6     ecut=    50.00 Ry     beta= 0.30
     Davidson diagonalization with overlap
     ethr =  1.93E-04,  avg # of iterations =  9.3

     total cpu time spent up to now is       10.2 secs

     total energy              =    -361.55126298 Ry
     estimated scf accuracy    <       0.85351560 Ry

     iteration #  7     ecut=    50.00 Ry     beta= 0.30
     Davidson diagonalization with overlap
     ethr =  1.93E-04,  avg # of iterations =  6.3

     total cpu time spent up to now is       11.9 secs

     total energy              =    -361.62295835 Ry
     estimated scf accuracy    <       0.06243845 Ry

     iteration #  8     ecut=    50.00 Ry     beta= 0.30
     Davidson diagonalization with overlap
     ethr =  1.73E-04,  avg # of iterations =  1.4

     total cpu time spent up to now is       12.8 secs

     total energy              =    -361.62277184 Ry
     estimated scf accuracy    <       0.03508310 Ry

     iteration #  9     ecut=    50.00 Ry     beta= 0.30
     Davidson diagonalization with overlap
     ethr =  9.75E-05,  avg # of iterations =  1.6

     total cpu time spent up to now is       13.6 secs

     total energy              =    -361.61227191 Ry
     estimated scf accuracy    <       0.02735920 Ry

     iteration # 10     ecut=    50.00 Ry     beta= 0.30
     Davidson diagonalization with overlap
     ethr =  7.60E-05,  avg # of iterations =  4.7

     total cpu time spent up to now is       14.9 secs

     total energy              =    -361.62463539 Ry
     estimated scf accuracy    <       0.00197497 Ry

     iteration # 11     ecut=    50.00 Ry     beta= 0.30
     Davidson diagonalization with overlap
     ethr =  5.49E-06,  avg # of iterations =  4.8

     total cpu time spent up to now is       16.1 secs

     total energy              =    -361.62542699 Ry
     estimated scf accuracy    <       0.00442513 Ry

     iteration # 12     ecut=    50.00 Ry     beta= 0.30
     Davidson diagonalization with overlap
     ethr =  5.49E-06,  avg # of iterations =  1.1

     total cpu time spent up to now is       16.9 secs

     total energy              =    -361.62450305 Ry
     estimated scf accuracy    <       0.00445807 Ry

     iteration # 13     ecut=    50.00 Ry     beta= 0.30
     Davidson diagonalization with overlap
     ethr =  5.49E-06,  avg # of iterations =  1.0

     total cpu time spent up to now is       17.7 secs

     total energy              =    -361.62433935 Ry
     estimated scf accuracy    <       0.00265457 Ry

     iteration # 14     ecut=    50.00 Ry     beta= 0.30
     Davidson diagonalization with overlap
     ethr =  5.49E-06,  avg # of iterations =  1.1

     total cpu time spent up to now is       18.6 secs

     total energy              =    -361.62383937 Ry
     estimated scf accuracy    <       0.00185158 Ry

     iteration # 15     ecut=    50.00 Ry     beta= 0.30
     Davidson diagonalization with overlap
     ethr =  5.14E-06,  avg # of iterations =  2.0

     total cpu time spent up to now is       19.4 secs

     total energy              =    -361.62382052 Ry
     estimated scf accuracy    <       0.00066739 Ry

     iteration # 16     ecut=    50.00 Ry     beta= 0.30
     Davidson diagonalization with overlap
     ethr =  1.85E-06,  avg # of iterations =  5.4

     total cpu time spent up to now is       20.8 secs

     total energy              =    -361.62422596 Ry
     estimated scf accuracy    <       0.00002413 Ry

     iteration # 17     ecut=    50.00 Ry     beta= 0.30
     Davidson diagonalization with overlap
     ethr =  6.70E-08,  avg # of iterations =  7.5

     total cpu time spent up to now is       22.5 secs

     total energy              =    -361.62424260 Ry
     estimated scf accuracy    <       0.00014029 Ry

     iteration # 18     ecut=    50.00 Ry     beta= 0.30
     Davidson diagonalization with overlap
     ethr =  6.70E-08,  avg # of iterations =  1.0

     total cpu time spent up to now is       23.3 secs

     total energy              =    -361.62423807 Ry
     estimated scf accuracy    <       0.00011810 Ry

     iteration # 19     ecut=    50.00 Ry     beta= 0.30
     Davidson diagonalization with overlap
     ethr =  6.70E-08,  avg # of iterations =  1.0

     total cpu time spent up to now is       24.1 secs

     total energy              =    -361.62417622 Ry
     estimated scf accuracy    <       0.00010032 Ry

     iteration # 20     ecut=    50.00 Ry     beta= 0.30
     Davidson diagonalization with overlap
     ethr =  6.70E-08,  avg # of iterations =  8.8

     total cpu time spent up to now is       26.2 secs

     total energy              =    -361.62422371 Ry
     estimated scf accuracy    <       0.00004537 Ry

     iteration # 21     ecut=    50.00 Ry     beta= 0.30
     Davidson diagonalization with overlap
     ethr =  6.70E-08,  avg # of iterations =  1.1

     total cpu time spent up to now is       27.0 secs

     total energy              =    -361.62422621 Ry
     estimated scf accuracy    <       0.00003504 Ry

     iteration # 22     ecut=    50.00 Ry     beta= 0.30
     Davidson diagonalization with overlap
     ethr =  6.70E-08,  avg # of iterations =  1.0

     total cpu time spent up to now is       27.9 secs

     total energy              =    -361.62422159 Ry
     estimated scf accuracy    <       0.00003929 Ry

     iteration # 23     ecut=    50.00 Ry     beta= 0.30
     Davidson diagonalization with overlap
     ethr =  6.70E-08,  avg # of iterations =  1.0

     total cpu time spent up to now is       28.7 secs

     total energy              =    -361.62421365 Ry
     estimated scf accuracy    <       0.00003007 Ry

     iteration # 24     ecut=    50.00 Ry     beta= 0.30
     Davidson diagonalization with overlap
     ethr =  6.70E-08,  avg # of iterations =  2.2

     total cpu time spent up to now is       29.6 secs

     total energy              =    -361.62421536 Ry
     estimated scf accuracy    <       0.00000835 Ry

     iteration # 25     ecut=    50.00 Ry     beta= 0.30
     Davidson diagonalization with overlap
     ethr =  2.32E-08,  avg # of iterations =  2.5

     total cpu time spent up to now is       30.6 secs

     total energy              =    -361.62421466 Ry
     estimated scf accuracy    <       0.00000465 Ry

     iteration # 26     ecut=    50.00 Ry     beta= 0.30
     Davidson diagonalization with overlap
     ethr =  1.29E-08,  avg # of iterations =  4.9

     total cpu time spent up to now is       31.9 secs

     total energy              =    -361.62421679 Ry
     estimated scf accuracy    <       0.00000026 Ry

     iteration # 27     ecut=    50.00 Ry     beta= 0.30
     Davidson diagonalization with overlap
     ethr =  7.23E-10,  avg # of iterations =  4.2

     total cpu time spent up to now is       33.1 secs

     total energy              =    -361.62421697 Ry
     estimated scf accuracy    <       0.00000005 Ry

     iteration # 28     ecut=    50.00 Ry     beta= 0.30
     Davidson diagonalization with overlap
     ethr =  1.52E-10,  avg # of iterations =  6.7

     total cpu time spent up to now is       34.6 secs

     total energy              =    -361.62421690 Ry
     estimated scf accuracy    <       0.00000043 Ry

     iteration # 29     ecut=    50.00 Ry     beta= 0.30
     Davidson diagonalization with overlap
     ethr =  1.52E-10,  avg # of iterations =  4.4

     total cpu time spent up to now is       35.8 secs

     total energy              =    -361.62421680 Ry
     estimated scf accuracy    <       0.00000017 Ry

     iteration # 30     ecut=    50.00 Ry     beta= 0.30
     Davidson diagonalization with overlap
     ethr =  1.52E-10,  avg # of iterations =  8.9

     total cpu time spent up to now is       37.9 secs

     total energy              =    -361.62421688 Ry
     estimated scf accuracy    <       0.00000019 Ry

     iteration # 31     ecut=    50.00 Ry     beta= 0.30
     Davidson diagonalization with overlap
     ethr =  1.52E-10,  avg # of iterations =  3.6

     total cpu time spent up to now is       39.0 secs

     total energy              =    -361.62421689 Ry
     estimated scf accuracy    <       0.00000006 Ry

     iteration # 32     ecut=    50.00 Ry     beta= 0.30
     Davidson diagonalization with overlap
     ethr =  1.52E-10,  avg # of iterations =  1.2

     total cpu time spent up to now is       39.8 secs

     total energy              =    -361.62421688 Ry
     estimated scf accuracy    <       0.00000006 Ry

     iteration # 33     ecut=    50.00 Ry     beta= 0.30
     Davidson diagonalization with overlap
     ethr =  1.52E-10,  avg # of iterations =  2.1

     total cpu time spent up to now is       40.8 secs

     End of self-consistent calculation

          k = 0.0000 0.0000 0.0000 (  2127 PWs)   bands (ev):

   -11.5065 -10.8327   0.5963   0.6057   0.6057   0.8040   0.8040   1.0717
     1.4556   1.4556   1.6615   1.6615   1.8412   4.9508   4.9508   5.7999
     5.7999   5.8527

          k = 0.0000 0.0000 0.1110 (  2140 PWs)   bands (ev):

   -11.4626 -10.8790   0.5482   0.6097   0.6097   0.7799   0.7799   0.7885
     1.4773   1.4773   1.6565   1.6565   2.2902   5.0105   5.0105   5.2749
     5.7461   5.7461

          k = 0.0000 0.0000 0.2220 (  2140 PWs)   bands (ev):

   -11.3418 -11.0047   0.4476   0.4975   0.6272   0.6272   0.7239   0.7239
     1.5308   1.5308   1.6353   1.6353   3.0421   4.5430   5.1717   5.1717
     5.5967   5.5967

          k = 0.0000 0.0000-0.3330 (  2146 PWs)   bands (ev):

   -11.1745 -11.1745   0.3974   0.3974   0.6663   0.6663   0.6663   0.6663
     1.5906   1.5906   1.5906   1.5906   3.8091   3.8091   5.3871   5.3871
     5.3871   5.3871

          k = 0.0000 0.1925 0.0000 (  2105 PWs)   bands (ev):

   -11.3961 -10.8008   0.5024   0.6633   0.6758   0.7968   0.9012   1.1909
     1.4177   1.4591   1.6750   1.7828   1.8714   4.1732   4.6458   4.7236
     5.6624   5.6759

          k = 0.0000 0.1925 0.1110 (  2126 PWs)   bands (ev):

   -11.3566 -10.8407   0.4664   0.6521   0.6703   0.7371   0.8745   0.9346
     1.4505   1.4786   1.6663   1.7019   2.3793   4.2391   4.5710   4.7181
     5.5980   5.6385

          k = 0.0000 0.1925 0.2220 (  2133 PWs)   bands (ev):

   -11.2482 -10.9500   0.3841   0.4732   0.6835   0.6958   0.7834   0.8118
     1.5211   1.5288   1.6378   1.6605   3.0643   4.0924   4.6178   4.9121
     5.4141   5.4196

          k = 0.0000 0.1925-0.3330 (  2136 PWs)   bands (ev):

   -11.0994 -11.0994   0.3548   0.3548   0.7155   0.7155   0.7448   0.7448
     1.5884   1.5884   1.5988   1.5988   3.6462   3.6462   5.0145   5.0145
     5.1697   5.1697

          k = 0.0000 0.3849 0.0000 (  2104 PWs)   bands (ev):

   -11.1457 -10.7589   0.4268   0.7302   0.7485   0.9157   1.1382   1.2447
     1.4699   1.5247   1.6939   1.8324   2.2147   2.9805   3.7171   4.0306
     5.1642   5.3577

          k = 0.0000 0.3849 0.1110 (  2113 PWs)   bands (ev):

   -11.1181 -10.7828   0.3876   0.6476   0.7666   0.8827   1.0982   1.1022
     1.4733   1.5349   1.6795   1.7809   2.4341   3.1483   3.7146   4.1307
     5.2352   5.2754

          k = 0.0000 0.3849 0.2220 (  2122 PWs)   bands (ev):

   -11.0438 -10.8498   0.3099   0.4363   0.8210   0.8476   0.9412   1.0123
     1.5493   1.5632   1.6448   1.7172   2.6873   3.1329   4.1711   4.3917
     5.0478   5.2035

          k = 0.0000 0.3849-0.3330 (  2100 PWs)   bands (ev):

   -10.9449 -10.9449   0.3001   0.3001   0.8672   0.8672   0.9081   0.9081
     1.6029   1.6029   1.6393   1.6393   2.9187   2.9187   4.7276   4.7276
     4.8165   4.8165

          k = 0.0000-0.5774 0.0000 (  2120 PWs)   bands (ev):

   -10.9823 -10.7719   0.4564   0.7735   0.8152   1.0822   1.0867   1.2843
     1.5103   1.6022   1.7016   1.7411   2.3142   2.7628   3.3100   3.6970
     4.7520   5.1928

          k = 0.0000-0.5774 0.1110 (  2118 PWs)   bands (ev):

   -10.9654 -10.7830   0.4105   0.6673   0.7987   1.0542   1.0612   1.2404
     1.5741   1.6047   1.6821   1.7419   2.2697   2.6726   3.6382   3.8165
     4.8912   5.1024

          k = 0.0000-0.5774 0.2220 (  2120 PWs)   bands (ev):

   -10.9213 -10.8156   0.3186   0.4214   0.8726   1.0162   1.0185   1.1258
     1.6126   1.6496   1.6615   1.7368   2.2749   2.5081   4.1192   4.2827
     4.8518   5.0393

          k = 0.0000-0.5774-0.3330 (  2128 PWs)   bands (ev):

   -10.8656 -10.8656   0.2937   0.2937   0.9888   0.9888   0.9998   0.9998
     1.6266   1.6266   1.7140   1.7140   2.3657   2.3657   4.4973   4.4973
     4.8374   4.8374

          k = 0.1667 0.2887 0.0000 (  2121 PWs)   bands (ev):

   -11.2145 -10.7646   0.4966   0.6379   0.7647   0.8545   1.0803   1.3201
     1.3860   1.4878   1.6887   1.8172   2.1403   3.5292   3.6043   4.2245
     5.3105   5.3354

          k = 0.1667 0.2887 0.1110 (  2119 PWs)   bands (ev):

   -11.1833 -10.7932   0.4525   0.6101   0.7509   0.8228   1.0462   1.0676
     1.4285   1.5206   1.6770   1.7654   2.4924   3.5866   3.7154   4.2108
     5.2240   5.3829

          k = 0.1667 0.2887 0.2220 (  2117 PWs)   bands (ev):

   -11.0984 -10.8728   0.3616   0.4575   0.7471   0.7931   0.8856   0.9648
     1.5204   1.5570   1.6475   1.7064   2.9067   3.4439   4.2486   4.3542
     4.9892   5.3003

          k = 0.1667 0.2887-0.3330 (  2112 PWs)   bands (ev):

   -10.9843 -10.9843   0.3372   0.3372   0.7747   0.7747   0.8830   0.8830
     1.5916   1.5916   1.6336   1.6336   3.2041   3.2041   4.6474   4.6474
     4.8979   4.8979

          k = 0.1667 0.4811 0.0000 (  2110 PWs)   bands (ev):

   -10.9877 -10.7682   0.5351   0.7190   0.9222   0.9595   1.2435   1.3187
     1.4841   1.5195   1.7065   1.8440   2.2654   2.8108   3.2551   3.5663
     4.7440   4.9305

          k = 0.1667 0.4811 0.1110 (  2123 PWs)   bands (ev):

   -10.9703 -10.7800   0.4997   0.6869   0.8180   0.9602   1.1550   1.2517
     1.4848   1.5734   1.7001   1.8388   2.2891   2.8321   3.3263   3.8309
     4.7807   4.9260

          k = 0.1667 0.4811 0.2220 (  2117 PWs)   bands (ev):

   -10.9246 -10.8144   0.4087   0.5051   0.8081   0.9378   1.0533   1.1119
     1.5434   1.5913   1.7128   1.8043   2.3977   2.7139   3.6426   4.3796
     4.5306   5.0780

          k = 0.1667 0.4811-0.3330 (  2122 PWs)   bands (ev):

   -10.8667 -10.8667   0.3804   0.3804   0.8904   0.8904   1.0226   1.0226
     1.5805   1.5805   1.7547   1.7547   2.5505   2.5505   4.0695   4.0695
     4.9275   4.9275

          k = 0.3333 0.5774 0.0000 (  2121 PWs)   bands (ev):

   -10.8409 -10.8409   0.5812   0.8379   0.8379   1.3526   1.3526   1.3991
     1.4995   1.5477   1.6735   1.6735   2.2826   2.5945   2.5945   4.1543
     4.1543   4.5237

          k = 0.3333 0.5774 0.1110 (  2112 PWs)   bands (ev):

   -10.8377 -10.8377   0.6094   0.7569   0.7569   1.2635   1.2635   1.2900
     1.4619   1.5410   1.7569   1.7569   2.5144   2.5391   2.5391   4.3793
     4.3793   4.3868

          k = 0.3333 0.5774 0.2220 (  2121 PWs)   bands (ev):

   -10.8311 -10.8311   0.5867   0.5867   0.6950   1.0495   1.1791   1.1791
     1.4723   1.5225   1.8508   1.8508   2.4653   2.4653   2.9853   4.0192
     4.7872   4.7872

          k = 0.3333 0.5774-0.3330 (  2094 PWs)   bands (ev):

   -10.8278 -10.8278   0.5036   0.5036   0.8421   0.8421   1.1547   1.1547
     1.4973   1.4973   1.8840   1.8840   2.4394   2.4394   3.5185   3.5185
     4.9793   4.9793

     highest occupied level (ev):     5.8527

!    total energy              =    -361.62421688 Ry
     estimated scf accuracy    <          9.7E-09 Ry

     The total energy is the sum of the following terms:
     one-electron contribution =    -163.68048312 Ry
     hartree contribution      =     121.68001682 Ry
     xc contribution           =    -109.40966769 Ry
     ewald contribution        =    -210.21408289 Ry

     convergence has been achieved in  33 iterations

     Forces acting on atoms (cartesian axes, Ry/au):

     atom    1 type  1   force =     0.00000000    0.00000000   -0.01873471
     atom    2 type  1   force =     0.00000000    0.00000000   -0.01873471
     atom    3 type  2   force =    -0.00000000    0.00000000    0.01873471
     atom    4 type  2   force =     0.00000000   -0.00000000    0.01873471
     The non-local contrib.  to forces
     atom    1 type  1   force =     0.00000000    0.00000000   -0.20793944
     atom    2 type  1   force =     0.00000000   -0.00000000   -0.20793944
     atom    3 type  2   force =     0.00000000   -0.00000000   -0.16813437
     atom    4 type  2   force =     0.00000000    0.00000000   -0.16813437
     The ionic contribution  to forces
     atom    1 type  1   force =    -0.00000000    0.00000000   -1.36251081
     atom    2 type  1   force =     0.00000000   -0.00000000   -1.36251081
     atom    3 type  2   force =    -0.00000000    0.00000000    1.36251081
     atom    4 type  2   force =     0.00000000   -0.00000000    1.36251081
     The local contribution  to forces
     atom    1 type  1   force =    -0.00000002    0.00000001    1.53713773
     atom    2 type  1   force =     0.00000007   -0.00000004    1.53713773
     atom    3 type  2   force =    -0.00000001    0.00000000   -1.17695364
     atom    4 type  2   force =     0.00000002   -0.00000001   -1.17695364
     The core correction contribution to forces
     atom    1 type  1   force =    -0.00000000    0.00000000    0.01459172
     atom    2 type  1   force =     0.00000001   -0.00000001    0.01459172
     atom    3 type  2   force =     0.00000000   -0.00000000    0.00132465
     atom    4 type  2   force =    -0.00000000    0.00000000    0.00132465
     The Hubbard contrib.    to forces
     atom    1 type  1   force =     0.00000000    0.00000000    0.00000000
     atom    2 type  1   force =     0.00000000    0.00000000    0.00000000
     atom    3 type  2   force =     0.00000000    0.00000000    0.00000000
     atom    4 type  2   force =     0.00000000    0.00000000    0.00000000
     The SCF correction term to forces
     atom    1 type  1   force =    -0.00000000    0.00000000   -0.00001781
     atom    2 type  1   force =     0.00000000   -0.00000000   -0.00001781
     atom    3 type  2   force =    -0.00000000    0.00000000   -0.00001664
     atom    4 type  2   force =    -0.00000000    0.00000000   -0.00001664

     Total force =     0.037469     Total SCF correction =     0.000034


     Computing stress (Cartesian axis) and pressure

          total   stress  (Ry/bohr**3)                   (kbar)     P=      -76.29
  -0.00079931  -0.00000000  -0.00000000         -117.58       -0.00       -0.00
  -0.00000000  -0.00079931  -0.00000000           -0.00     -117.58       -0.00
  -0.00000000  -0.00000000   0.00004285           -0.00       -0.00        6.30


     Writing all to output data dir ./ZnO_ANN.save/

     init_run     :      1.87s CPU      1.26s WALL (       1 calls)
     electrons    :    104.65s CPU     39.18s WALL (       1 calls)
     forces       :      0.73s CPU      0.34s WALL (       1 calls)
     stress       :      2.69s CPU      1.40s WALL (       1 calls)

     Called by init_run:
     wfcinit      :      1.04s CPU      0.42s WALL (       1 calls)
     potinit      :      0.28s CPU      0.28s WALL (       1 calls)
     hinit0       :      0.42s CPU      0.42s WALL (       1 calls)

     Called by electrons:
     c_bands      :     83.01s CPU     30.70s WALL (      33 calls)
     sum_band     :     15.89s CPU      6.12s WALL (      33 calls)
     v_of_rho     :      1.26s CPU      0.57s WALL (      34 calls)
     newd         :      4.19s CPU      1.68s WALL (      34 calls)
     mix_rho      :      0.20s CPU      0.10s WALL (      33 calls)

     Called by c_bands:
     init_us_2    :      1.51s CPU      0.53s WALL (    1932 calls)
     init_us_2:cp :      1.49s CPU      0.52s WALL (    1932 calls)
     cegterg      :     79.76s CPU     29.42s WALL (     924 calls)

     Called by *egterg:
     cdiaghg      :     12.50s CPU      4.06s WALL (    4324 calls)
     h_psi        :     54.95s CPU     22.41s WALL (    4352 calls)
     s_psi        :      1.30s CPU      0.37s WALL (    4352 calls)
     g_psi        :      0.43s CPU      0.11s WALL (    3400 calls)

     Called by h_psi:
     h_psi:calbec :      1.98s CPU      0.70s WALL (    4352 calls)
     vloc_psi     :     51.19s CPU     21.14s WALL (    4352 calls)
     add_vuspsi   :      1.29s CPU      0.41s WALL (    4352 calls)

     General routines
     calbec       :      2.65s CPU      0.92s WALL (    5416 calls)
     fft          :      0.90s CPU      0.51s WALL (     465 calls)
     ffts         :      0.19s CPU      0.15s WALL (      67 calls)
     fftw         :     51.90s CPU     21.48s WALL (  118872 calls)
     interpolate  :      0.22s CPU      0.17s WALL (      34 calls)

     Parallel routines

     PWSCF        :   1m50.46s CPU     42.66s WALL


   This run was terminated on:  18:29:51  13Jun2025            

=------------------------------------------------------------------------------=
   JOB DONE.
=------------------------------------------------------------------------------=
Note: The following floating-point exceptions are signalling: IEEE_INVALID_FLAG
