Authorization required, but no authorization protocol specified

Authorization required, but no authorization protocol specified

Authorization required, but no authorization protocol specified

Authorization required, but no authorization protocol specified

Authorization required, but no authorization protocol specified

Authorization required, but no authorization protocol specified

Authorization required, but no authorization protocol specified

Authorization required, but no authorization protocol specified

Authorization required, but no authorization protocol specified

Authorization required, but no authorization protocol specified


     Program PWSCF v.7.2 starts on 13Jun2025 at 18: 2: 0 

     This program is part of the open-source Quantum ESPRESSO suite
     for quantum simulation of materials; please cite
         "P. Giannozzi et al., J. Phys.:Condens. Matter 21 395502 (2009);
         "P. Giannozzi et al., J. Phys.:Condens. Matter 29 465901 (2017);
         "P. Giannozzi et al., J. Chem. Phys. 152 154105 (2020);
          URL http://www.quantum-espresso.org", 
     in publications or presentations arising from this work. More details at
     http://www.quantum-espresso.org/quote

     Parallel version (MPI), running on     8 processors

     MPI processes distributed on     1 nodes
     120699 MiB available memory on the printing compute node when the environment starts

     Reading input from /home/jvc/QEspresso7.2/ZnO_database_python/SCFs.in/scf-6.36-1.63.in

     Current dimensions of program PWSCF are:
     Max number of different atomic species (ntypx) = 10
     Max number of k-points (npk) =  40000
     Max angular momentum in pseudopotentials (lmaxx) =  4
     file Zn.upf: wavefunction(s)  3D renormalized

     R & G space division:  proc/nbgrp/npool/nimage =       8
     Subspace diagonalization in iterative solution of the eigenvalue problem:
     a serial algorithm will be used


     Parallelization info
     --------------------
     sticks:   dense  smooth     PW     G-vecs:    dense   smooth      PW
     Min         140      69     20                 6142     2167     356
     Max         142      70     21                 6145     2174     363
     Sum        1123     559    163                49141    17381    2875

     Using Slab Decomposition



     bravais-lattice index     =            4
     lattice parameter (alat)  =       6.3642  a.u.
     unit-cell volume          =     363.9825 (a.u.)^3
     number of atoms/cell      =            4
     number of atomic types    =            2
     number of electrons       =        36.00
     number of Kohn-Sham states=           18
     kinetic-energy cutoff     =      50.0000  Ry
     charge density cutoff     =     400.0000  Ry
     scf convergence threshold =      1.0E-08
     mixing beta               =       0.3000
     number of iterations used =            8  plain     mixing
     Exchange-correlation= PBE
                           (   1   4   3   4   0   0   0)

     celldm(1)=   6.364186  celldm(2)=   0.000000  celldm(3)=   1.630502
     celldm(4)=   0.000000  celldm(5)=   0.000000  celldm(6)=   0.000000

     crystal axes: (cart. coord. in units of alat)
               a(1) = (   1.000000   0.000000   0.000000 )  
               a(2) = (  -0.500000   0.866025   0.000000 )  
               a(3) = (   0.000000   0.000000   1.630502 )  

     reciprocal axes: (cart. coord. in units 2 pi/alat)
               b(1) = (  1.000000  0.577350 -0.000000 )  
               b(2) = (  0.000000  1.154701  0.000000 )  
               b(3) = (  0.000000 -0.000000  0.613308 )  


     PseudoPot. # 1 for Zn read from file:
     /home/jvc/QEspresso7.2/ZnO_database/pseudos/Zn.upf
     MD5 check sum: 7f56cabf9682ed8c977c2f7d0c5985c5
     Pseudo is Ultrasoft + core correction, Zval = 12.0
     Generated using &quot;atomic&quot; code by A. Dal Corso  v.6.2.2
     Using radial grid of 1201 points,  6 beta functions with: 
                l(1) =   0
                l(2) =   0
                l(3) =   1
                l(4) =   1
                l(5) =   2
                l(6) =   2
     Q(r) pseudized with 0 coefficients 


     PseudoPot. # 2 for O  read from file:
     /home/jvc/QEspresso7.2/ZnO_database/pseudos/O.upf
     MD5 check sum: 91400c9766925bcf19f520983a725ff0
     Pseudo is Ultrasoft + core correction, Zval =  6.0
     Generated using &quot;atomic&quot; code by A. Dal Corso  v.6.3MaX
     Using radial grid of 1095 points,  4 beta functions with: 
                l(1) =   0
                l(2) =   0
                l(3) =   1
                l(4) =   1
     Q(r) pseudized with 0 coefficients 


     atomic species   valence    mass     pseudopotential
        Zn            12.00    63.38000     Zn( 1.00)
        O              6.00    15.99900     O ( 1.00)

     12 Sym. Ops. (no inversion) found ( 6 have fractional translation)



   Cartesian axes

     site n.     atom                  positions (alat units)
         1           Zn  tau(   1) = (   0.5000000   0.2886751   0.8162840  )
         2           Zn  tau(   2) = (  -0.0000000   0.5773503   0.0010331  )
         3           O   tau(   3) = (   0.5000000   0.2886751   1.4343141  )
         4           O   tau(   4) = (  -0.0000000   0.5773503   0.6190631  )

     number of k points=    28
                       cart. coord. in units 2pi/alat
        k(    1) = (   0.0000000   0.0000000   0.0000000), wk =   0.0092593
        k(    2) = (   0.0000000   0.0000000   0.1022180), wk =   0.0185185
        k(    3) = (   0.0000000   0.0000000   0.2044360), wk =   0.0185185
        k(    4) = (   0.0000000   0.0000000  -0.3066540), wk =   0.0092593
        k(    5) = (   0.0000000   0.1924501   0.0000000), wk =   0.0555556
        k(    6) = (   0.0000000   0.1924501   0.1022180), wk =   0.1111111
        k(    7) = (   0.0000000   0.1924501   0.2044360), wk =   0.1111111
        k(    8) = (   0.0000000   0.1924501  -0.3066540), wk =   0.0555556
        k(    9) = (   0.0000000   0.3849002   0.0000000), wk =   0.0555556
        k(   10) = (   0.0000000   0.3849002   0.1022180), wk =   0.1111111
        k(   11) = (   0.0000000   0.3849002   0.2044360), wk =   0.1111111
        k(   12) = (   0.0000000   0.3849002  -0.3066540), wk =   0.0555556
        k(   13) = (   0.0000000  -0.5773503   0.0000000), wk =   0.0277778
        k(   14) = (   0.0000000  -0.5773503   0.1022180), wk =   0.0555556
        k(   15) = (   0.0000000  -0.5773503   0.2044360), wk =   0.0555556
        k(   16) = (   0.0000000  -0.5773503  -0.3066540), wk =   0.0277778
        k(   17) = (   0.1666667   0.2886751   0.0000000), wk =   0.0555556
        k(   18) = (   0.1666667   0.2886751   0.1022180), wk =   0.1111111
        k(   19) = (   0.1666667   0.2886751   0.2044360), wk =   0.1111111
        k(   20) = (   0.1666667   0.2886751  -0.3066540), wk =   0.0555556
        k(   21) = (   0.1666667   0.4811252   0.0000000), wk =   0.1111111
        k(   22) = (   0.1666667   0.4811252   0.1022180), wk =   0.2222222
        k(   23) = (   0.1666667   0.4811252   0.2044360), wk =   0.2222222
        k(   24) = (   0.1666667   0.4811252  -0.3066540), wk =   0.1111111
        k(   25) = (   0.3333333   0.5773503   0.0000000), wk =   0.0185185
        k(   26) = (   0.3333333   0.5773503   0.1022180), wk =   0.0370370
        k(   27) = (   0.3333333   0.5773503   0.2044360), wk =   0.0370370
        k(   28) = (   0.3333333   0.5773503  -0.3066540), wk =   0.0185185

     Dense  grid:    49141 G-vectors     FFT dimensions: (  45,  45,  72)

     Smooth grid:    17381 G-vectors     FFT dimensions: (  30,  30,  48)

     Estimated max dynamical RAM per process >      28.39 MB

     Estimated total dynamical RAM >     227.16 MB

     Check: negative core charge=   -0.000002

     Initial potential from superposition of free atoms

     starting charge      35.9925, renormalised to      36.0000
     Starting wfcs are   26 randomized atomic wfcs

     total cpu time spent up to now is        1.6 secs

     Self-consistent Calculation

     iteration #  1     ecut=    50.00 Ry     beta= 0.30
     Davidson diagonalization with overlap
     ethr =  1.00E-02,  avg # of iterations =  1.6

     total cpu time spent up to now is        2.5 secs

     total energy              =    -361.45416884 Ry
     estimated scf accuracy    <       0.73334228 Ry

     iteration #  2     ecut=    50.00 Ry     beta= 0.30
     Davidson diagonalization with overlap
     ethr =  2.04E-03,  avg # of iterations =  2.1

     total cpu time spent up to now is        3.5 secs

     total energy              =    -361.57100432 Ry
     estimated scf accuracy    <       0.08125421 Ry

     iteration #  3     ecut=    50.00 Ry     beta= 0.30
     Davidson diagonalization with overlap
     ethr =  2.26E-04,  avg # of iterations =  6.3

     total cpu time spent up to now is        5.2 secs

     total energy              =    -361.59208811 Ry
     estimated scf accuracy    <       0.06994021 Ry

     iteration #  4     ecut=    50.00 Ry     beta= 0.30
     Davidson diagonalization with overlap
     ethr =  1.94E-04,  avg # of iterations =  8.8

     total cpu time spent up to now is        7.3 secs

     total energy              =    -361.64776583 Ry
     estimated scf accuracy    <       0.32630659 Ry

     iteration #  5     ecut=    50.00 Ry     beta= 0.30
     Davidson diagonalization with overlap
     ethr =  1.94E-04,  avg # of iterations =  2.0

     total cpu time spent up to now is        8.3 secs

     total energy              =    -361.62074657 Ry
     estimated scf accuracy    <       0.20353207 Ry

     iteration #  6     ecut=    50.00 Ry     beta= 0.30
     Davidson diagonalization with overlap
     ethr =  1.94E-04,  avg # of iterations =  2.2

     total cpu time spent up to now is        9.3 secs

     total energy              =    -361.57335763 Ry
     estimated scf accuracy    <       0.08787300 Ry

     iteration #  7     ecut=    50.00 Ry     beta= 0.30
     Davidson diagonalization with overlap
     ethr =  1.94E-04,  avg # of iterations =  6.1

     total cpu time spent up to now is       10.9 secs

     total energy              =    -361.63658616 Ry
     estimated scf accuracy    <       0.11226663 Ry

     iteration #  8     ecut=    50.00 Ry     beta= 0.30
     Davidson diagonalization with overlap
     ethr =  1.94E-04,  avg # of iterations =  1.0

     total cpu time spent up to now is       11.7 secs

     total energy              =    -361.64084883 Ry
     estimated scf accuracy    <       0.07454213 Ry

     iteration #  9     ecut=    50.00 Ry     beta= 0.30
     Davidson diagonalization with overlap
     ethr =  1.94E-04,  avg # of iterations =  1.0

     total cpu time spent up to now is       12.6 secs

     total energy              =    -361.64125538 Ry
     estimated scf accuracy    <       0.07961277 Ry

     iteration # 10     ecut=    50.00 Ry     beta= 0.30
     Davidson diagonalization with overlap
     ethr =  1.94E-04,  avg # of iterations =  1.0

     total cpu time spent up to now is       13.4 secs

     total energy              =    -361.61974345 Ry
     estimated scf accuracy    <       0.07500374 Ry

     iteration # 11     ecut=    50.00 Ry     beta= 0.30
     Davidson diagonalization with overlap
     ethr =  1.94E-04,  avg # of iterations =  1.2

     total cpu time spent up to now is       14.3 secs

     total energy              =    -361.62436911 Ry
     estimated scf accuracy    <       0.02949753 Ry

     iteration # 12     ecut=    50.00 Ry     beta= 0.30
     Davidson diagonalization with overlap
     ethr =  8.19E-05,  avg # of iterations =  1.5

     total cpu time spent up to now is       15.1 secs

     total energy              =    -361.62117949 Ry
     estimated scf accuracy    <       0.03289988 Ry

     iteration # 13     ecut=    50.00 Ry     beta= 0.30
     Davidson diagonalization with overlap
     ethr =  8.19E-05,  avg # of iterations =  2.0

     total cpu time spent up to now is       16.1 secs

     total energy              =    -361.60816618 Ry
     estimated scf accuracy    <       0.01919497 Ry

     iteration # 14     ecut=    50.00 Ry     beta= 0.30
     Davidson diagonalization with overlap
     ethr =  5.33E-05,  avg # of iterations =  7.6

     total cpu time spent up to now is       18.1 secs

     total energy              =    -361.65955600 Ry
     estimated scf accuracy    <       0.07654615 Ry

     iteration # 15     ecut=    50.00 Ry     beta= 0.30
     Davidson diagonalization with overlap
     ethr =  5.33E-05,  avg # of iterations =  1.8

     total cpu time spent up to now is       18.9 secs

     total energy              =    -361.65516527 Ry
     estimated scf accuracy    <       0.10841612 Ry

     iteration # 16     ecut=    50.00 Ry     beta= 0.30
     Davidson diagonalization with overlap
     ethr =  5.33E-05,  avg # of iterations =  1.1

     total cpu time spent up to now is       19.8 secs

     total energy              =    -361.63157047 Ry
     estimated scf accuracy    <       0.10405820 Ry

     iteration # 17     ecut=    50.00 Ry     beta= 0.30
     Davidson diagonalization with overlap
     ethr =  5.33E-05,  avg # of iterations =  2.0

     total cpu time spent up to now is       20.7 secs

     total energy              =    -361.61515861 Ry
     estimated scf accuracy    <       0.06161961 Ry

     iteration # 18     ecut=    50.00 Ry     beta= 0.30
     Davidson diagonalization with overlap
     ethr =  5.33E-05,  avg # of iterations =  5.3

     total cpu time spent up to now is       22.2 secs

     total energy              =    -361.62410054 Ry
     estimated scf accuracy    <       0.00207351 Ry

     iteration # 19     ecut=    50.00 Ry     beta= 0.30
     Davidson diagonalization with overlap
     ethr =  5.76E-06,  avg # of iterations =  9.6

     total cpu time spent up to now is       24.4 secs

     total energy              =    -361.63233548 Ry
     estimated scf accuracy    <       0.01662243 Ry

     iteration # 20     ecut=    50.00 Ry     beta= 0.30
     Davidson diagonalization with overlap
     ethr =  5.76E-06,  avg # of iterations =  1.7

     total cpu time spent up to now is       25.3 secs

     total energy              =    -361.62771659 Ry
     estimated scf accuracy    <       0.02128928 Ry

     iteration # 21     ecut=    50.00 Ry     beta= 0.30
     Davidson diagonalization with overlap
     ethr =  5.76E-06,  avg # of iterations =  2.0

     total cpu time spent up to now is       26.2 secs

     total energy              =    -361.61996639 Ry
     estimated scf accuracy    <       0.01294981 Ry

     iteration # 22     ecut=    50.00 Ry     beta= 0.30
     Davidson diagonalization with overlap
     ethr =  5.76E-06,  avg # of iterations = 10.0

     total cpu time spent up to now is       28.6 secs

     total energy              =    -361.62413113 Ry
     estimated scf accuracy    <       0.00906028 Ry

     iteration # 23     ecut=    50.00 Ry     beta= 0.30
     Davidson diagonalization with overlap
     ethr =  5.76E-06,  avg # of iterations =  6.4

     total cpu time spent up to now is       30.3 secs

     total energy              =    -361.62610305 Ry
     estimated scf accuracy    <       0.00006569 Ry

     iteration # 24     ecut=    50.00 Ry     beta= 0.30
     Davidson diagonalization with overlap
     ethr =  1.82E-07,  avg # of iterations =  5.2

     total cpu time spent up to now is       31.5 secs

     total energy              =    -361.62633226 Ry
     estimated scf accuracy    <       0.00007266 Ry

     iteration # 25     ecut=    50.00 Ry     beta= 0.30
     Davidson diagonalization with overlap
     c_bands:  1 eigenvalues not converged
     ethr =  1.82E-07,  avg # of iterations = 12.8

     total cpu time spent up to now is       34.6 secs

     total energy              =    -361.62804913 Ry
     estimated scf accuracy    <       0.00658096 Ry

     iteration # 26     ecut=    50.00 Ry     beta= 0.30
     Davidson diagonalization with overlap
     ethr =  1.82E-07,  avg # of iterations =  3.2

     total cpu time spent up to now is       35.6 secs

     total energy              =    -361.62505327 Ry
     estimated scf accuracy    <       0.00740592 Ry

     iteration # 27     ecut=    50.00 Ry     beta= 0.30
     Davidson diagonalization with overlap
     ethr =  1.82E-07,  avg # of iterations = 11.9

     total cpu time spent up to now is       38.6 secs

     total energy              =    -361.62609801 Ry
     estimated scf accuracy    <       0.00004299 Ry

     iteration # 28     ecut=    50.00 Ry     beta= 0.30
     Davidson diagonalization with overlap
     ethr =  1.19E-07,  avg # of iterations = 10.5

     total cpu time spent up to now is       41.0 secs

     total energy              =    -361.62589735 Ry
     estimated scf accuracy    <       0.00076905 Ry

     iteration # 29     ecut=    50.00 Ry     beta= 0.30
     Davidson diagonalization with overlap
     ethr =  1.19E-07,  avg # of iterations = 10.2

     total cpu time spent up to now is       43.5 secs

     total energy              =    -361.62609630 Ry
     estimated scf accuracy    <       0.00007956 Ry

     iteration # 30     ecut=    50.00 Ry     beta= 0.30
     Davidson diagonalization with overlap
     ethr =  1.19E-07,  avg # of iterations =  4.8

     total cpu time spent up to now is       44.7 secs

     total energy              =    -361.62611137 Ry
     estimated scf accuracy    <       0.00000023 Ry

     iteration # 31     ecut=    50.00 Ry     beta= 0.30
     Davidson diagonalization with overlap
     c_bands:  2 eigenvalues not converged
     ethr =  6.51E-10,  avg # of iterations = 11.5

     total cpu time spent up to now is       47.2 secs

     total energy              =    -361.62611419 Ry
     estimated scf accuracy    <       0.00000223 Ry

     iteration # 32     ecut=    50.00 Ry     beta= 0.30
     Davidson diagonalization with overlap
     ethr =  6.51E-10,  avg # of iterations =  1.3

     total cpu time spent up to now is       48.1 secs

     total energy              =    -361.62611352 Ry
     estimated scf accuracy    <       0.00000189 Ry

     iteration # 33     ecut=    50.00 Ry     beta= 0.30
     Davidson diagonalization with overlap
     ethr =  6.51E-10,  avg # of iterations =  6.7

     total cpu time spent up to now is       49.8 secs

     total energy              =    -361.62611379 Ry
     estimated scf accuracy    <       0.00000004 Ry

     iteration # 34     ecut=    50.00 Ry     beta= 0.30
     Davidson diagonalization with overlap
     ethr =  1.14E-10,  avg # of iterations =  3.1

     total cpu time spent up to now is       50.7 secs

     total energy              =    -361.62611380 Ry
     estimated scf accuracy    <       0.00000003 Ry

     iteration # 35     ecut=    50.00 Ry     beta= 0.30
     Davidson diagonalization with overlap
     ethr =  7.33E-11,  avg # of iterations =  1.6

     total cpu time spent up to now is       51.6 secs

     total energy              =    -361.62611379 Ry
     estimated scf accuracy    <       0.00000004 Ry

     iteration # 36     ecut=    50.00 Ry     beta= 0.30
     Davidson diagonalization with overlap
     ethr =  7.33E-11,  avg # of iterations =  1.6

     total cpu time spent up to now is       52.5 secs

     total energy              =    -361.62611378 Ry
     estimated scf accuracy    <       0.00000002 Ry

     iteration # 37     ecut=    50.00 Ry     beta= 0.30
     Davidson diagonalization with overlap
     ethr =  4.93E-11,  avg # of iterations =  5.4

     total cpu time spent up to now is       53.9 secs

     End of self-consistent calculation

          k = 0.0000 0.0000 0.0000 (  2177 PWs)   bands (ev):

   -11.6519 -11.1180   0.3288   0.3288   0.3628   0.4786   0.4786   0.7240
     1.1831   1.1831   1.3336   1.3336   1.6154   4.8973   4.8973   5.4571
     5.5332   5.5332

          k = 0.0000 0.0000 0.1022 (  2177 PWs)   bands (ev):

   -11.6176 -11.1553   0.3345   0.3345   0.3349   0.4639   0.4639   0.5481
     1.1963   1.1963   1.3275   1.3275   1.9500   4.8748   4.9408   4.9408
     5.4916   5.4916

          k = 0.0000 0.0000 0.2044 (  2148 PWs)   bands (ev):

   -11.5228 -11.2559   0.2779   0.3398   0.3537   0.3537   0.4278   0.4278
     1.2311   1.2311   1.3075   1.3075   2.6053   4.1064   5.0591   5.0591
     5.3771   5.3771

          k = 0.0000 0.0000-0.3067 (  2172 PWs)   bands (ev):

   -11.3909 -11.3909   0.2568   0.2568   0.3864   0.3864   0.3864   0.3864
     1.2726   1.2726   1.2726   1.2726   3.3456   3.3456   5.2190   5.2190
     5.2190   5.2190

          k = 0.0000 0.1925 0.0000 (  2171 PWs)   bands (ev):

   -11.5380 -11.0669   0.2440   0.3955   0.4179   0.5004   0.5781   0.8399
     1.1399   1.1823   1.3418   1.4751   1.6311   4.0331   4.4322   4.6042
     5.3051   5.3708

          k = 0.0000 0.1925 0.1022 (  2165 PWs)   bands (ev):

   -11.5072 -11.0992   0.2269   0.3957   0.4039   0.4745   0.5613   0.6764
     1.1625   1.1952   1.3335   1.3825   2.0396   4.0450   4.3227   4.6571
     5.2277   5.3207

          k = 0.0000 0.1925 0.2044 (  2167 PWs)   bands (ev):

   -11.4226 -11.1870   0.1913   0.2860   0.4290   0.4502   0.5193   0.5326
     1.2144   1.2286   1.3087   1.3301   2.6704   3.7852   4.3876   4.8002
     4.9926   5.1830

          k = 0.0000 0.1925-0.3067 (  2162 PWs)   bands (ev):

   -11.3056 -11.3056   0.1936   0.1936   0.4701   0.4701   0.4740   0.4740
     1.2709   1.2709   1.2751   1.2751   3.2822   3.2822   4.6706   4.6706
     4.9930   4.9930

          k = 0.0000 0.3849 0.0000 (  2180 PWs)   bands (ev):

   -11.2845 -10.9800   0.1785   0.4347   0.5014   0.7089   0.8107   0.9696
     1.1385   1.2398   1.3570   1.5336   1.9986   2.6702   3.3985   4.0107
     4.8418   5.0213

          k = 0.0000 0.3849 0.1022 (  2176 PWs)   bands (ev):

   -11.2636 -10.9998   0.1588   0.3827   0.5183   0.6909   0.7855   0.8639
     1.1579   1.2467   1.3471   1.4668   2.1817   2.7862   3.4102   4.0829
     4.8477   4.9563

          k = 0.0000 0.3849 0.2044 (  2170 PWs)   bands (ev):

   -11.2068 -11.0543   0.1261   0.2499   0.5668   0.6636   0.7204   0.7314
     1.2262   1.2659   1.3228   1.3884   2.4161   2.8045   3.7522   4.2755
     4.7207   4.7778

          k = 0.0000 0.3849-0.3067 (  2160 PWs)   bands (ev):

   -11.1300 -11.1300   0.1439   0.1439   0.6394   0.6394   0.6725   0.6725
     1.2932   1.2932   1.3089   1.3089   2.6270   2.6270   4.3167   4.3167
     4.5300   4.5300

          k = 0.0000-0.5774 0.0000 (  2184 PWs)   bands (ev):

   -11.1263 -10.9625   0.2306   0.4841   0.5352   0.8502   0.9461   0.9686
     1.2358   1.3120   1.3701   1.4308   1.9441   2.3493   3.0784   3.6922
     4.4309   4.8341

          k = 0.0000-0.5774 0.1022 (  2182 PWs)   bands (ev):

   -11.1141 -10.9722   0.2038   0.4017   0.5576   0.8426   0.9131   0.9321
     1.2794   1.3138   1.3611   1.4304   1.9178   2.2775   3.3284   3.7769
     4.5078   4.7620

          k = 0.0000-0.5774 0.2044 (  2174 PWs)   bands (ev):

   -11.0817 -10.9997   0.1540   0.2467   0.6223   0.8266   0.8334   0.8769
     1.3193   1.3435   1.3509   1.4245   1.9222   2.1317   3.8561   3.9989
     4.5616   4.5636

          k = 0.0000-0.5774-0.3067 (  2160 PWs)   bands (ev):

   -11.0394 -11.0394   0.1524   0.1524   0.7189   0.7189   0.8421   0.8421
     1.3289   1.3289   1.4012   1.4012   2.0001   2.0001   4.2868   4.2868
     4.3417   4.3417

          k = 0.1667 0.2887 0.0000 (  2165 PWs)   bands (ev):

   -11.3532 -10.9983   0.2541   0.3794   0.5129   0.5770   0.7629   0.9761
     1.1020   1.2016   1.3517   1.5356   1.9027   3.3204   3.3740   4.0700
     4.9674   5.0114

          k = 0.1667 0.2887 0.1022 (  2174 PWs)   bands (ev):

   -11.3293 -11.0218   0.2298   0.3633   0.5076   0.5587   0.7412   0.8164
     1.1344   1.2245   1.3424   1.4557   2.2037   3.3268   3.4536   4.0888
     4.8988   4.9939

          k = 0.1667 0.2887 0.2044 (  2163 PWs)   bands (ev):

   -11.2639 -11.0863   0.1851   0.2780   0.5098   0.5366   0.6606   0.6881
     1.2098   1.2534   1.3190   1.3796   2.6162   3.1684   3.8522   4.2130
     4.7146   4.8244

          k = 0.1667 0.2887-0.3067 (  2158 PWs)   bands (ev):

   -11.1749 -11.1749   0.1888   0.1888   0.5275   0.5275   0.6385   0.6385
     1.2787   1.2787   1.3059   1.3059   2.9279   2.9279   4.3382   4.3382
     4.5127   4.5127

          k = 0.1667 0.4811 0.0000 (  2173 PWs)   bands (ev):

   -11.1316 -10.9596   0.3025   0.5087   0.6221   0.7820   0.9446   0.9905
     1.1737   1.2331   1.3850   1.5527   1.9884   2.5109   3.0666   3.3603
     4.4186   4.5608

          k = 0.1667 0.4811 0.1022 (  2176 PWs)   bands (ev):

   -11.1190 -10.9699   0.2904   0.4757   0.5808   0.7705   0.9049   0.9222
     1.1821   1.2733   1.3842   1.5378   2.0027   2.4961   3.1796   3.5343
     4.3935   4.5724

          k = 0.1667 0.4811 0.2044 (  2177 PWs)   bands (ev):

   -11.0851 -10.9989   0.2561   0.3546   0.5813   0.7399   0.8185   0.8350
     1.2418   1.2941   1.3953   1.4912   2.0887   2.3808   3.4633   3.9509
     4.1951   4.6173

          k = 0.1667 0.4811-0.3067 (  2172 PWs)   bands (ev):

   -11.0408 -11.0408   0.2594   0.2594   0.6572   0.6572   0.7966   0.7966
     1.2844   1.2844   1.4345   1.4345   2.2272   2.2272   3.8071   3.8071
     4.4369   4.4369

          k = 0.3333 0.5774 0.0000 (  2187 PWs)   bands (ev):

   -11.0026 -11.0026   0.3274   0.6769   0.6769   0.9853   1.1198   1.1198
     1.1519   1.2275   1.3685   1.3685   2.2364   2.2364   2.2807   3.8893
     3.8893   4.0474

          k = 0.3333 0.5774 0.1022 (  2175 PWs)   bands (ev):

   -11.0011 -11.0011   0.3535   0.6196   0.6196   0.9005   1.0557   1.0557
     1.1588   1.2228   1.4447   1.4447   2.1916   2.1916   2.4275   3.9329
     4.0452   4.0452

          k = 0.3333 0.5774 0.2044 (  2187 PWs)   bands (ev):

   -10.9981 -10.9981   0.4317   0.5018   0.5018   0.7278   0.9952   0.9952
     1.1732   1.2096   1.5388   1.5388   2.1188   2.1188   2.7791   3.6257
     4.3390   4.3390

          k = 0.3333 0.5774-0.3067 (  2202 PWs)   bands (ev):

   -10.9966 -10.9966   0.4441   0.4441   0.5597   0.5597   0.9776   0.9776
     1.1916   1.1916   1.5752   1.5752   2.0877   2.0877   3.2101   3.2101
     4.4806   4.4806

     highest occupied level (ev):     5.5332

!    total energy              =    -361.62611379 Ry
     estimated scf accuracy    <          4.0E-09 Ry

     The total energy is the sum of the following terms:
     one-electron contribution =    -165.67547505 Ry
     hartree contribution      =     122.28756639 Ry
     xc contribution           =    -109.35554095 Ry
     ewald contribution        =    -208.88266417 Ry

     convergence has been achieved in  37 iterations

     Forces acting on atoms (cartesian axes, Ry/au):

     atom    1 type  1   force =    -0.00000000    0.00000000    0.00113770
     atom    2 type  1   force =     0.00000000   -0.00000000    0.00113770
     atom    3 type  2   force =     0.00000000    0.00000000   -0.00113770
     atom    4 type  2   force =     0.00000000   -0.00000000   -0.00113770
     The non-local contrib.  to forces
     atom    1 type  1   force =     0.00000000    0.00000000    0.02221725
     atom    2 type  1   force =     0.00000000    0.00000000    0.02221725
     atom    3 type  2   force =    -0.00000000   -0.00000000    0.03150439
     atom    4 type  2   force =     0.00000000    0.00000000    0.03150439
     The ionic contribution  to forces
     atom    1 type  1   force =    -0.00000000    0.00000000    0.25084600
     atom    2 type  1   force =     0.00000000   -0.00000000    0.25084600
     atom    3 type  2   force =    -0.00000000    0.00000000   -0.25084600
     atom    4 type  2   force =     0.00000000   -0.00000000   -0.25084600
     The local contribution  to forces
     atom    1 type  1   force =    -0.00000002    0.00000001   -0.27049172
     atom    2 type  1   force =     0.00000007   -0.00000004   -0.27049172
     atom    3 type  2   force =    -0.00000001    0.00000000    0.21848540
     atom    4 type  2   force =     0.00000002   -0.00000001    0.21848539
     The core correction contribution to forces
     atom    1 type  1   force =    -0.00000000    0.00000000   -0.00143289
     atom    2 type  1   force =     0.00000001   -0.00000001   -0.00143288
     atom    3 type  2   force =     0.00000000   -0.00000000   -0.00028340
     atom    4 type  2   force =    -0.00000000    0.00000000   -0.00028340
     The Hubbard contrib.    to forces
     atom    1 type  1   force =     0.00000000    0.00000000    0.00000000
     atom    2 type  1   force =     0.00000000    0.00000000    0.00000000
     atom    3 type  2   force =     0.00000000    0.00000000    0.00000000
     atom    4 type  2   force =     0.00000000    0.00000000    0.00000000
     The SCF correction term to forces
     atom    1 type  1   force =     0.00000000   -0.00000000    0.00000017
     atom    2 type  1   force =    -0.00000000    0.00000000    0.00000017
     atom    3 type  2   force =     0.00000000   -0.00000000    0.00000303
     atom    4 type  2   force =    -0.00000000    0.00000000    0.00000303

     Total force =     0.002275     Total SCF correction =     0.000004


     Computing stress (Cartesian axis) and pressure

          total   stress  (Ry/bohr**3)                   (kbar)     P=     -106.50
  -0.00069421   0.00000000   0.00000000         -102.12        0.00        0.00
   0.00000000  -0.00069421   0.00000000            0.00     -102.12        0.00
  -0.00000000  -0.00000000  -0.00078345           -0.00       -0.00     -115.25


     Writing all to output data dir ./ZnO_ANN.save/

     init_run     :      1.88s CPU      1.26s WALL (       1 calls)
     electrons    :    139.78s CPU     52.34s WALL (       1 calls)
     forces       :      0.73s CPU      0.35s WALL (       1 calls)
     stress       :      2.82s CPU      1.46s WALL (       1 calls)

     Called by init_run:
     wfcinit      :      1.01s CPU      0.40s WALL (       1 calls)
     potinit      :      0.28s CPU      0.28s WALL (       1 calls)
     hinit0       :      0.43s CPU      0.45s WALL (       1 calls)

     Called by electrons:
     c_bands      :    115.01s CPU     42.58s WALL (      37 calls)
     sum_band     :     17.67s CPU      6.91s WALL (      37 calls)
     v_of_rho     :      1.66s CPU      0.72s WALL (      38 calls)
     newd         :      5.10s CPU      2.01s WALL (      38 calls)
     mix_rho      :      0.24s CPU      0.12s WALL (      37 calls)

     Called by c_bands:
     init_us_2    :      1.71s CPU      0.61s WALL (    2156 calls)
     init_us_2:cp :      1.68s CPU      0.60s WALL (    2156 calls)
     cegterg      :    111.24s CPU     41.12s WALL (    1036 calls)

     Called by *egterg:
     cdiaghg      :     17.32s CPU      5.74s WALL (    5910 calls)
     h_psi        :     76.19s CPU     30.91s WALL (    5938 calls)
     s_psi        :      1.75s CPU      0.51s WALL (    5938 calls)
     g_psi        :      0.62s CPU      0.16s WALL (    4874 calls)

     Called by h_psi:
     h_psi:calbec :      2.68s CPU      0.96s WALL (    5938 calls)
     vloc_psi     :     71.09s CPU     29.18s WALL (    5938 calls)
     add_vuspsi   :      1.75s CPU      0.56s WALL (    5938 calls)

     General routines
     calbec       :      3.38s CPU      1.19s WALL (    7114 calls)
     fft          :      1.30s CPU      0.69s WALL (     517 calls)
     ffts         :      0.19s CPU      0.15s WALL (      75 calls)
     fftw         :     69.54s CPU     28.65s WALL (  156340 calls)
     interpolate  :      0.24s CPU      0.17s WALL (      38 calls)

     Parallel routines

     PWSCF        :   2m25.74s CPU     55.90s WALL


   This run was terminated on:  18: 2:56  13Jun2025            

=------------------------------------------------------------------------------=
   JOB DONE.
=------------------------------------------------------------------------------=
Note: The following floating-point exceptions are signalling: IEEE_INVALID_FLAG
