Authorization required, but no authorization protocol specified

Authorization required, but no authorization protocol specified

Authorization required, but no authorization protocol specified

Authorization required, but no authorization protocol specified

Authorization required, but no authorization protocol specified

Authorization required, but no authorization protocol specified

Authorization required, but no authorization protocol specified

Authorization required, but no authorization protocol specified

Authorization required, but no authorization protocol specified

Authorization required, but no authorization protocol specified


     Program PWSCF v.7.2 starts on 13Jun2025 at 18:44: 3 

     This program is part of the open-source Quantum ESPRESSO suite
     for quantum simulation of materials; please cite
         "P. Giannozzi et al., J. Phys.:Condens. Matter 21 395502 (2009);
         "P. Giannozzi et al., J. Phys.:Condens. Matter 29 465901 (2017);
         "P. Giannozzi et al., J. Chem. Phys. 152 154105 (2020);
          URL http://www.quantum-espresso.org", 
     in publications or presentations arising from this work. More details at
     http://www.quantum-espresso.org/quote

     Parallel version (MPI), running on     8 processors

     MPI processes distributed on     1 nodes
     120706 MiB available memory on the printing compute node when the environment starts

     Reading input from /home/jvc/QEspresso7.2/ZnO_database_python/SCFs.in/scf-6.55-1.45.in

     Current dimensions of program PWSCF are:
     Max number of different atomic species (ntypx) = 10
     Max number of k-points (npk) =  40000
     Max angular momentum in pseudopotentials (lmaxx) =  4
     file Zn.upf: wavefunction(s)  3D renormalized

     R & G space division:  proc/nbgrp/npool/nimage =       8
     Subspace diagonalization in iterative solution of the eigenvalue problem:
     a serial algorithm will be used


     Parallelization info
     --------------------
     sticks:   dense  smooth     PW     G-vecs:    dense   smooth      PW
     Min         147      72     23                 5957     2098     351
     Max         148      73     24                 5959     2107     354
     Sum        1177     583    187                47665    16837    2825

     Using Slab Decomposition



     bravais-lattice index     =            4
     lattice parameter (alat)  =       6.5496  a.u.
     unit-cell volume          =     353.5148 (a.u.)^3
     number of atoms/cell      =            4
     number of atomic types    =            2
     number of electrons       =        36.00
     number of Kohn-Sham states=           18
     kinetic-energy cutoff     =      50.0000  Ry
     charge density cutoff     =     400.0000  Ry
     scf convergence threshold =      1.0E-08
     mixing beta               =       0.3000
     number of iterations used =            8  plain     mixing
     Exchange-correlation= PBE
                           (   1   4   3   4   0   0   0)

     celldm(1)=   6.549551  celldm(2)=   0.000000  celldm(3)=   1.452923
     celldm(4)=   0.000000  celldm(5)=   0.000000  celldm(6)=   0.000000

     crystal axes: (cart. coord. in units of alat)
               a(1) = (   1.000000   0.000000   0.000000 )  
               a(2) = (  -0.500000   0.866025   0.000000 )  
               a(3) = (   0.000000   0.000000   1.452923 )  

     reciprocal axes: (cart. coord. in units 2 pi/alat)
               b(1) = (  1.000000  0.577350 -0.000000 )  
               b(2) = (  0.000000  1.154701  0.000000 )  
               b(3) = (  0.000000 -0.000000  0.688268 )  


     PseudoPot. # 1 for Zn read from file:
     /home/jvc/QEspresso7.2/ZnO_database/pseudos/Zn.upf
     MD5 check sum: 7f56cabf9682ed8c977c2f7d0c5985c5
     Pseudo is Ultrasoft + core correction, Zval = 12.0
     Generated using &quot;atomic&quot; code by A. Dal Corso  v.6.2.2
     Using radial grid of 1201 points,  6 beta functions with: 
                l(1) =   0
                l(2) =   0
                l(3) =   1
                l(4) =   1
                l(5) =   2
                l(6) =   2
     Q(r) pseudized with 0 coefficients 


     PseudoPot. # 2 for O  read from file:
     /home/jvc/QEspresso7.2/ZnO_database/pseudos/O.upf
     MD5 check sum: 91400c9766925bcf19f520983a725ff0
     Pseudo is Ultrasoft + core correction, Zval =  6.0
     Generated using &quot;atomic&quot; code by A. Dal Corso  v.6.3MaX
     Using radial grid of 1095 points,  4 beta functions with: 
                l(1) =   0
                l(2) =   0
                l(3) =   1
                l(4) =   1
     Q(r) pseudized with 0 coefficients 


     atomic species   valence    mass     pseudopotential
        Zn            12.00    63.38000     Zn( 1.00)
        O              6.00    15.99900     O ( 1.00)

     12 Sym. Ops. (no inversion) found ( 6 have fractional translation)



   Cartesian axes

     site n.     atom                  positions (alat units)
         1           Zn  tau(   1) = (   0.5000000   0.2886751   0.7273818  )
         2           Zn  tau(   2) = (  -0.0000000   0.5773503   0.0009206  )
         3           O   tau(   3) = (   0.5000000   0.2886751   1.2781017  )
         4           O   tau(   4) = (  -0.0000000   0.5773503   0.5516404  )

     number of k points=    28
                       cart. coord. in units 2pi/alat
        k(    1) = (   0.0000000   0.0000000   0.0000000), wk =   0.0092593
        k(    2) = (   0.0000000   0.0000000   0.1147113), wk =   0.0185185
        k(    3) = (   0.0000000   0.0000000   0.2294226), wk =   0.0185185
        k(    4) = (   0.0000000   0.0000000  -0.3441340), wk =   0.0092593
        k(    5) = (   0.0000000   0.1924501   0.0000000), wk =   0.0555556
        k(    6) = (   0.0000000   0.1924501   0.1147113), wk =   0.1111111
        k(    7) = (   0.0000000   0.1924501   0.2294226), wk =   0.1111111
        k(    8) = (   0.0000000   0.1924501  -0.3441340), wk =   0.0555556
        k(    9) = (   0.0000000   0.3849002   0.0000000), wk =   0.0555556
        k(   10) = (   0.0000000   0.3849002   0.1147113), wk =   0.1111111
        k(   11) = (   0.0000000   0.3849002   0.2294226), wk =   0.1111111
        k(   12) = (   0.0000000   0.3849002  -0.3441340), wk =   0.0555556
        k(   13) = (   0.0000000  -0.5773503   0.0000000), wk =   0.0277778
        k(   14) = (   0.0000000  -0.5773503   0.1147113), wk =   0.0555556
        k(   15) = (   0.0000000  -0.5773503   0.2294226), wk =   0.0555556
        k(   16) = (   0.0000000  -0.5773503  -0.3441340), wk =   0.0277778
        k(   17) = (   0.1666667   0.2886751   0.0000000), wk =   0.0555556
        k(   18) = (   0.1666667   0.2886751   0.1147113), wk =   0.1111111
        k(   19) = (   0.1666667   0.2886751   0.2294226), wk =   0.1111111
        k(   20) = (   0.1666667   0.2886751  -0.3441340), wk =   0.0555556
        k(   21) = (   0.1666667   0.4811252   0.0000000), wk =   0.1111111
        k(   22) = (   0.1666667   0.4811252   0.1147113), wk =   0.2222222
        k(   23) = (   0.1666667   0.4811252   0.2294226), wk =   0.2222222
        k(   24) = (   0.1666667   0.4811252  -0.3441340), wk =   0.1111111
        k(   25) = (   0.3333333   0.5773503   0.0000000), wk =   0.0185185
        k(   26) = (   0.3333333   0.5773503   0.1147113), wk =   0.0370370
        k(   27) = (   0.3333333   0.5773503   0.2294226), wk =   0.0370370
        k(   28) = (   0.3333333   0.5773503  -0.3441340), wk =   0.0185185

     Dense  grid:    47665 G-vectors     FFT dimensions: (  45,  45,  64)

     Smooth grid:    16837 G-vectors     FFT dimensions: (  30,  30,  48)

     Estimated max dynamical RAM per process >      27.53 MB

     Estimated total dynamical RAM >     220.24 MB

     Check: negative core charge=   -0.000002

     Initial potential from superposition of free atoms

     starting charge      35.9925, renormalised to      36.0000
     Starting wfcs are   26 randomized atomic wfcs

     total cpu time spent up to now is        1.5 secs

     Self-consistent Calculation

     iteration #  1     ecut=    50.00 Ry     beta= 0.30
     Davidson diagonalization with overlap
     ethr =  1.00E-02,  avg # of iterations =  1.8

     total cpu time spent up to now is        2.4 secs

     total energy              =    -361.44480861 Ry
     estimated scf accuracy    <       0.73675347 Ry

     iteration #  2     ecut=    50.00 Ry     beta= 0.30
     Davidson diagonalization with overlap
     ethr =  2.05E-03,  avg # of iterations =  2.0

     total cpu time spent up to now is        3.5 secs

     total energy              =    -361.55539002 Ry
     estimated scf accuracy    <       0.08855716 Ry

     iteration #  3     ecut=    50.00 Ry     beta= 0.30
     Davidson diagonalization with overlap
     ethr =  2.46E-04,  avg # of iterations =  6.4

     total cpu time spent up to now is        5.1 secs

     total energy              =    -361.58145800 Ry
     estimated scf accuracy    <       0.07428230 Ry

     iteration #  4     ecut=    50.00 Ry     beta= 0.30
     Davidson diagonalization with overlap
     ethr =  2.06E-04,  avg # of iterations =  7.7

     total cpu time spent up to now is        7.1 secs

     total energy              =    -361.62876026 Ry
     estimated scf accuracy    <       0.19956420 Ry

     iteration #  5     ecut=    50.00 Ry     beta= 0.30
     Davidson diagonalization with overlap
     ethr =  2.06E-04,  avg # of iterations =  1.2

     total cpu time spent up to now is        8.0 secs

     total energy              =    -361.54176735 Ry
     estimated scf accuracy    <       0.11730379 Ry

     iteration #  6     ecut=    50.00 Ry     beta= 0.30
     Davidson diagonalization with overlap
     ethr =  2.06E-04,  avg # of iterations =  7.6

     total cpu time spent up to now is        9.8 secs

     total energy              =    -361.60262505 Ry
     estimated scf accuracy    <       0.27616630 Ry

     iteration #  7     ecut=    50.00 Ry     beta= 0.30
     Davidson diagonalization with overlap
     ethr =  2.06E-04,  avg # of iterations =  2.6

     total cpu time spent up to now is       10.8 secs

     total energy              =    -361.61066799 Ry
     estimated scf accuracy    <       0.11046535 Ry

     iteration #  8     ecut=    50.00 Ry     beta= 0.30
     Davidson diagonalization with overlap
     ethr =  2.06E-04,  avg # of iterations =  2.1

     total cpu time spent up to now is       11.8 secs

     total energy              =    -361.61541993 Ry
     estimated scf accuracy    <       0.07354372 Ry

     iteration #  9     ecut=    50.00 Ry     beta= 0.30
     Davidson diagonalization with overlap
     ethr =  2.04E-04,  avg # of iterations =  1.8

     total cpu time spent up to now is       12.7 secs

     total energy              =    -361.61266178 Ry
     estimated scf accuracy    <       0.05324725 Ry

     iteration # 10     ecut=    50.00 Ry     beta= 0.30
     Davidson diagonalization with overlap
     ethr =  1.48E-04,  avg # of iterations =  1.8

     total cpu time spent up to now is       13.6 secs

     total energy              =    -361.61427010 Ry
     estimated scf accuracy    <       0.03165135 Ry

     iteration # 11     ecut=    50.00 Ry     beta= 0.30
     Davidson diagonalization with overlap
     ethr =  8.79E-05,  avg # of iterations =  2.2

     total cpu time spent up to now is       14.5 secs

     total energy              =    -361.61317313 Ry
     estimated scf accuracy    <       0.02296771 Ry

     iteration # 12     ecut=    50.00 Ry     beta= 0.30
     Davidson diagonalization with overlap
     ethr =  6.38E-05,  avg # of iterations =  2.6

     total cpu time spent up to now is       15.4 secs

     total energy              =    -361.61381152 Ry
     estimated scf accuracy    <       0.01146741 Ry

     iteration # 13     ecut=    50.00 Ry     beta= 0.30
     Davidson diagonalization with overlap
     ethr =  3.19E-05,  avg # of iterations =  4.8

     total cpu time spent up to now is       16.6 secs

     total energy              =    -361.61487205 Ry
     estimated scf accuracy    <       0.00194246 Ry

     iteration # 14     ecut=    50.00 Ry     beta= 0.30
     Davidson diagonalization with overlap
     ethr =  5.40E-06,  avg # of iterations =  9.4

     total cpu time spent up to now is       18.9 secs

     total energy              =    -361.62032771 Ry
     estimated scf accuracy    <       0.02324497 Ry

     iteration # 15     ecut=    50.00 Ry     beta= 0.30
     Davidson diagonalization with overlap
     ethr =  5.40E-06,  avg # of iterations =  1.2

     total cpu time spent up to now is       19.8 secs

     total energy              =    -361.61864658 Ry
     estimated scf accuracy    <       0.01901849 Ry

     iteration # 16     ecut=    50.00 Ry     beta= 0.30
     Davidson diagonalization with overlap
     ethr =  5.40E-06,  avg # of iterations =  2.1

     total cpu time spent up to now is       20.8 secs

     total energy              =    -361.61382950 Ry
     estimated scf accuracy    <       0.01239563 Ry

     iteration # 17     ecut=    50.00 Ry     beta= 0.30
     Davidson diagonalization with overlap
     ethr =  5.40E-06,  avg # of iterations =  7.8

     total cpu time spent up to now is       22.7 secs

     total energy              =    -361.61705245 Ry
     estimated scf accuracy    <       0.00004302 Ry

     iteration # 18     ecut=    50.00 Ry     beta= 0.30
     Davidson diagonalization with overlap
     c_bands:  1 eigenvalues not converged
     ethr =  1.20E-07,  avg # of iterations = 13.8

     total cpu time spent up to now is       25.8 secs

     total energy              =    -361.61596794 Ry
     estimated scf accuracy    <       0.00638772 Ry

     iteration # 19     ecut=    50.00 Ry     beta= 0.30
     Davidson diagonalization with overlap
     c_bands:  1 eigenvalues not converged
     ethr =  1.20E-07,  avg # of iterations = 12.6

     total cpu time spent up to now is       28.8 secs

     total energy              =    -361.61662166 Ry
     estimated scf accuracy    <       0.00032585 Ry

     iteration # 20     ecut=    50.00 Ry     beta= 0.30
     Davidson diagonalization with overlap
     ethr =  1.20E-07,  avg # of iterations =  1.4

     total cpu time spent up to now is       29.6 secs

     total energy              =    -361.61661604 Ry
     estimated scf accuracy    <       0.00028289 Ry

     iteration # 21     ecut=    50.00 Ry     beta= 0.30
     Davidson diagonalization with overlap
     ethr =  1.20E-07,  avg # of iterations =  1.0

     total cpu time spent up to now is       30.4 secs

     total energy              =    -361.61657092 Ry
     estimated scf accuracy    <       0.00026502 Ry

     iteration # 22     ecut=    50.00 Ry     beta= 0.30
     Davidson diagonalization with overlap
     ethr =  1.20E-07,  avg # of iterations =  4.5

     total cpu time spent up to now is       31.5 secs

     total energy              =    -361.61652503 Ry
     estimated scf accuracy    <       0.00014339 Ry

     iteration # 23     ecut=    50.00 Ry     beta= 0.30
     Davidson diagonalization with overlap
     ethr =  1.20E-07,  avg # of iterations =  6.2

     total cpu time spent up to now is       33.1 secs

     total energy              =    -361.61656795 Ry
     estimated scf accuracy    <       0.00000090 Ry

     iteration # 24     ecut=    50.00 Ry     beta= 0.30
     Davidson diagonalization with overlap
     ethr =  2.49E-09,  avg # of iterations =  9.4

     total cpu time spent up to now is       35.2 secs

     total energy              =    -361.61656877 Ry
     estimated scf accuracy    <       0.00001113 Ry

     iteration # 25     ecut=    50.00 Ry     beta= 0.30
     Davidson diagonalization with overlap
     ethr =  2.49E-09,  avg # of iterations =  2.0

     total cpu time spent up to now is       36.1 secs

     total energy              =    -361.61656286 Ry
     estimated scf accuracy    <       0.00000801 Ry

     iteration # 26     ecut=    50.00 Ry     beta= 0.30
     Davidson diagonalization with overlap
     ethr =  2.49E-09,  avg # of iterations = 11.1

     total cpu time spent up to now is       38.7 secs

     total energy              =    -361.61656440 Ry
     estimated scf accuracy    <       0.00001708 Ry

     iteration # 27     ecut=    50.00 Ry     beta= 0.30
     Davidson diagonalization with overlap
     ethr =  2.49E-09,  avg # of iterations =  9.3

     total cpu time spent up to now is       41.0 secs

     End of self-consistent calculation

          k = 0.0000 0.0000 0.0000 (  2115 PWs)   bands (ev):

   -11.4986 -10.7763   0.6197   0.6520   0.6520   0.8681   0.8681   1.1578
     1.4887   1.4887   1.7139   1.7139   1.8746   4.9045   4.9045   5.8400
     5.8400   5.9200

          k = 0.0000 0.0000 0.1147 (  2145 PWs)   bands (ev):

   -11.4512 -10.8253   0.5627   0.6539   0.6539   0.8221   0.8394   0.8394
     1.5137   1.5137   1.7102   1.7102   2.3747   4.9713   4.9713   5.3446
     5.7819   5.7819

          k = 0.0000 0.0000 0.2294 (  2116 PWs)   bands (ev):

   -11.3207 -10.9589   0.4450   0.4934   0.6691   0.6691   0.7744   0.7744
     1.5759   1.5759   1.6904   1.6904   3.1575   4.6335   5.1512   5.1512
     5.6196   5.6196

          k = 0.0000 0.0000-0.3441 (  2110 PWs)   bands (ev):

   -11.1406 -11.1406   0.3835   0.3835   0.7097   0.7097   0.7097   0.7097
     1.6433   1.6433   1.6433   1.6433   3.9221   3.9221   5.3897   5.3897
     5.3897   5.3897

          k = 0.0000 0.1925 0.0000 (  2113 PWs)   bands (ev):

   -11.3909 -10.7525   0.5347   0.7036   0.7160   0.8483   0.9634   1.2792
     1.4541   1.4937   1.7288   1.7808   1.9553   4.1653   4.5979   4.7752
     5.7151   5.7444

          k = 0.0000 0.1925 0.1147 (  2114 PWs)   bands (ev):

   -11.3480 -10.7946   0.4906   0.6895   0.7095   0.7728   0.9319   0.9792
     1.4908   1.5168   1.7213   1.7494   2.4644   4.2484   4.6078   4.6787
     5.6456   5.7288

          k = 0.0000 0.1925 0.2294 (  2113 PWs)   bands (ev):

   -11.2307 -10.9106   0.3888   0.4746   0.7131   0.7335   0.8215   0.8591
     1.5689   1.5743   1.6934   1.7153   3.1567   4.1387   4.6569   4.8945
     5.4521   5.5196

          k = 0.0000 0.1925-0.3441 (  2126 PWs)   bands (ev):

   -11.0703 -11.0703   0.3463   0.3463   0.7472   0.7472   0.7846   0.7846
     1.6408   1.6408   1.6524   1.6524   3.7146   3.7146   5.1001   5.1001
     5.1788   5.1788

          k = 0.0000 0.3849 0.0000 (  2103 PWs)   bands (ev):

   -11.1444 -10.7291   0.4595   0.7784   0.7863   0.9281   1.1968   1.2841
     1.5316   1.5636   1.7512   1.8660   2.2540   3.0569   3.7878   3.9808
     5.2236   5.4336

          k = 0.0000 0.3849 0.1147 (  2112 PWs)   bands (ev):

   -11.1141 -10.7540   0.4126   0.6871   0.7962   0.8912   1.1250   1.1553
     1.5246   1.5752   1.7352   1.8256   2.4794   3.2412   3.7838   4.0929
     5.3253   5.3452

          k = 0.0000 0.3849 0.2294 (  2108 PWs)   bands (ev):

   -11.0330 -10.8245   0.3156   0.4397   0.8508   0.8563   0.9585   1.0546
     1.6021   1.6073   1.6975   1.7696   2.7364   3.1988   4.2956   4.3828
     5.0994   5.3375

          k = 0.0000 0.3849-0.3441 (  2114 PWs)   bands (ev):

   -10.9261 -10.9261   0.2926   0.2926   0.8784   0.8784   0.9413   0.9413
     1.6513   1.6513   1.6935   1.6935   2.9732   2.9732   4.7513   4.7513
     4.9642   4.9642

          k = 0.0000-0.5774 0.0000 (  2112 PWs)   bands (ev):

   -10.9808 -10.7539   0.4814   0.7992   0.8892   1.0622   1.1117   1.3407
     1.5494   1.6430   1.7595   1.7879   2.3851   2.8800   3.3653   3.6450
     4.8174   5.2804

          k = 0.0000-0.5774 0.1147 (  2102 PWs)   bands (ev):

   -10.9620 -10.7651   0.4279   0.7059   0.8245   1.0435   1.0783   1.2928
     1.6189   1.6463   1.7350   1.7884   2.3376   2.7792   3.7234   3.7801
     4.9863   5.1835

          k = 0.0000-0.5774 0.2294 (  2106 PWs)   bands (ev):

   -10.9129 -10.7989   0.3179   0.4221   0.8998   1.0088   1.0220   1.1674
     1.6552   1.6961   1.7081   1.7827   2.3524   2.6040   4.1166   4.4096
     4.9140   5.1771

          k = 0.0000-0.5774-0.3441 (  2092 PWs)   bands (ev):

   -10.8520 -10.8520   0.2824   0.2824   0.9959   0.9959   1.0205   1.0205
     1.6706   1.6706   1.7597   1.7597   2.4550   2.4550   4.5301   4.5301
     4.9863   4.9863

          k = 0.1667 0.2887 0.0000 (  2111 PWs)   bands (ev):

   -11.2125 -10.7297   0.5237   0.6754   0.8057   0.8913   1.1372   1.3929
     1.4249   1.5332   1.7456   1.8362   2.1954   3.5645   3.6161   4.2425
     5.3888   5.3930

          k = 0.1667 0.2887 0.1147 (  2109 PWs)   bands (ev):

   -11.1783 -10.7597   0.4724   0.6422   0.7856   0.8510   1.0972   1.1058
     1.4711   1.5649   1.7339   1.8084   2.5530   3.6170   3.7766   4.2075
     5.2959   5.4714

          k = 0.1667 0.2887 0.2294 (  2113 PWs)   bands (ev):

   -11.0860 -10.8437   0.3629   0.4580   0.7749   0.8197   0.9147   1.0039
     1.5685   1.6035   1.7033   1.7582   2.9583   3.4869   4.3532   4.3647
     5.0424   5.4306

          k = 0.1667 0.2887-0.3441 (  2114 PWs)   bands (ev):

   -10.9628 -10.9628   0.3262   0.3262   0.8023   0.8023   0.9122   0.9122
     1.6406   1.6406   1.6882   1.6882   3.2489   3.2489   4.6817   4.6817
     5.0332   5.0332

          k = 0.1667 0.4811 0.0000 (  2114 PWs)   bands (ev):

   -10.9862 -10.7501   0.5600   0.7358   0.9521   0.9853   1.2875   1.3776
     1.5261   1.5668   1.7619   1.8802   2.3246   2.8503   3.2923   3.6158
     4.8062   5.0312

          k = 0.1667 0.4811 0.1147 (  2106 PWs)   bands (ev):

   -10.9668 -10.7619   0.5143   0.7033   0.8356   0.9796   1.1823   1.3068
     1.5301   1.6185   1.7524   1.8774   2.3519   2.8996   3.3351   3.9150
     4.8822   5.0115

          k = 0.1667 0.4811 0.2294 (  2111 PWs)   bands (ev):

   -10.9161 -10.7975   0.3999   0.4935   0.8293   0.9518   1.0693   1.1515
     1.5865   1.6342   1.7645   1.8477   2.4678   2.7872   3.6629   4.5026
     4.6205   5.2114

          k = 0.1667 0.4811-0.3441 (  2094 PWs)   bands (ev):

   -10.8530 -10.8530   0.3586   0.3586   0.9114   0.9114   1.0423   1.0423
     1.6226   1.6226   1.8039   1.8039   2.6235   2.6235   4.1227   4.1227
     5.0778   5.0778

          k = 0.3333 0.5774 0.0000 (  2112 PWs)   bands (ev):

   -10.8339 -10.8339   0.6162   0.8333   0.8333   1.3693   1.3693   1.4550
     1.6003   1.6097   1.7290   1.7290   2.2252   2.6803   2.6803   4.2096
     4.2096   4.6631

          k = 0.3333 0.5774 0.1147 (  2112 PWs)   bands (ev):

   -10.8297 -10.8297   0.6441   0.7437   0.7437   1.2730   1.2730   1.3655
     1.5097   1.5929   1.8081   1.8081   2.5072   2.6192   2.6192   4.4660
     4.4660   4.5184

          k = 0.3333 0.5774 0.2294 (  2091 PWs)   bands (ev):

   -10.8211 -10.8211   0.5538   0.5538   0.7305   1.1012   1.1793   1.1793
     1.5160   1.5722   1.8951   1.8951   2.5465   2.5465   3.0267   4.1294
     4.9216   4.9216

          k = 0.3333 0.5774-0.3441 (  2094 PWs)   bands (ev):

   -10.8167 -10.8167   0.4605   0.4605   0.8814   0.8814   1.1513   1.1513
     1.5436   1.5436   1.9243   1.9243   2.5238   2.5238   3.5976   3.5976
     5.1336   5.1336

     highest occupied level (ev):     5.9200

!    total energy              =    -361.61656756 Ry
     estimated scf accuracy    <          6.0E-09 Ry

     The total energy is the sum of the following terms:
     one-electron contribution =    -163.89135285 Ry
     hartree contribution      =     121.85157044 Ry
     xc contribution           =    -109.42599789 Ry
     ewald contribution        =    -210.15078726 Ry

     convergence has been achieved in  27 iterations

     Forces acting on atoms (cartesian axes, Ry/au):

     atom    1 type  1   force =     0.00000000    0.00000000   -0.03302492
     atom    2 type  1   force =     0.00000000    0.00000000   -0.03302492
     atom    3 type  2   force =     0.00000000   -0.00000000    0.03302492
     atom    4 type  2   force =     0.00000000    0.00000000    0.03302492
     The non-local contrib.  to forces
     atom    1 type  1   force =     0.00000000    0.00000000   -0.30267795
     atom    2 type  1   force =     0.00000000    0.00000000   -0.30267795
     atom    3 type  2   force =     0.00000000    0.00000000   -0.24143367
     atom    4 type  2   force =     0.00000000   -0.00000000   -0.24143367
     The ionic contribution  to forces
     atom    1 type  1   force =    -0.00000000    0.00000000   -2.01158223
     atom    2 type  1   force =     0.00000000   -0.00000000   -2.01158223
     atom    3 type  2   force =    -0.00000000    0.00000000    2.01158223
     atom    4 type  2   force =     0.00000000   -0.00000000    2.01158223
     The local contribution  to forces
     atom    1 type  1   force =    -0.00000002    0.00000001    2.25971822
     atom    2 type  1   force =     0.00000007   -0.00000004    2.25971823
     atom    3 type  2   force =    -0.00000001    0.00000000   -1.73901458
     atom    4 type  2   force =     0.00000002   -0.00000001   -1.73901459
     The core correction contribution to forces
     atom    1 type  1   force =    -0.00000000    0.00000000    0.02154172
     atom    2 type  1   force =     0.00000001   -0.00000001    0.02154173
     atom    3 type  2   force =     0.00000000   -0.00000000    0.00187229
     atom    4 type  2   force =    -0.00000000    0.00000000    0.00187229
     The Hubbard contrib.    to forces
     atom    1 type  1   force =     0.00000000    0.00000000    0.00000000
     atom    2 type  1   force =     0.00000000    0.00000000    0.00000000
     atom    3 type  2   force =     0.00000000    0.00000000    0.00000000
     atom    4 type  2   force =     0.00000000    0.00000000    0.00000000
     The SCF correction term to forces
     atom    1 type  1   force =    -0.00000000    0.00000000   -0.00002238
     atom    2 type  1   force =     0.00000000   -0.00000000   -0.00002238
     atom    3 type  2   force =    -0.00000000    0.00000000    0.00002096
     atom    4 type  2   force =     0.00000000   -0.00000000    0.00002096

     Total force =     0.066050     Total SCF correction =     0.000043


     Computing stress (Cartesian axis) and pressure

          total   stress  (Ry/bohr**3)                   (kbar)     P=      -61.95
  -0.00085143  -0.00000000  -0.00000000         -125.25       -0.00       -0.00
  -0.00000000  -0.00085143  -0.00000000           -0.00     -125.25       -0.00
  -0.00000000  -0.00000000   0.00043942           -0.00       -0.00       64.64


     Writing all to output data dir ./ZnO_ANN.save/

     init_run     :      1.83s CPU      1.21s WALL (       1 calls)
     electrons    :    106.45s CPU     39.49s WALL (       1 calls)
     forces       :      0.70s CPU      0.33s WALL (       1 calls)
     stress       :      2.83s CPU      1.55s WALL (       1 calls)

     Called by init_run:
     wfcinit      :      1.04s CPU      0.40s WALL (       1 calls)
     potinit      :      0.26s CPU      0.27s WALL (       1 calls)
     hinit0       :      0.39s CPU      0.40s WALL (       1 calls)

     Called by electrons:
     c_bands      :     88.80s CPU     32.58s WALL (      27 calls)
     sum_band     :     12.93s CPU      5.03s WALL (      27 calls)
     v_of_rho     :      1.08s CPU      0.47s WALL (      28 calls)
     newd         :      3.39s CPU      1.34s WALL (      28 calls)
     mix_rho      :      0.18s CPU      0.08s WALL (      27 calls)

     Called by c_bands:
     init_us_2    :      1.24s CPU      0.44s WALL (    1596 calls)
     init_us_2:cp :      1.22s CPU      0.44s WALL (    1596 calls)
     cegterg      :     86.00s CPU     31.51s WALL (     756 calls)

     Called by *egterg:
     cdiaghg      :     13.70s CPU      4.49s WALL (    4583 calls)
     h_psi        :     58.37s CPU     23.56s WALL (    4611 calls)
     s_psi        :      1.35s CPU      0.40s WALL (    4611 calls)
     g_psi        :      0.49s CPU      0.13s WALL (    3827 calls)

     Called by h_psi:
     h_psi:calbec :      1.90s CPU      0.69s WALL (    4611 calls)
     vloc_psi     :     54.58s CPU     22.26s WALL (    4611 calls)
     add_vuspsi   :      1.36s CPU      0.45s WALL (    4611 calls)

     General routines
     calbec       :      2.42s CPU      0.86s WALL (    5507 calls)
     fft          :      0.72s CPU      0.39s WALL (     387 calls)
     ffts         :      0.18s CPU      0.14s WALL (      55 calls)
     fftw         :     53.64s CPU     21.99s WALL (  119674 calls)
     interpolate  :      0.20s CPU      0.16s WALL (      28 calls)

     Parallel routines

     PWSCF        :   1m52.35s CPU     43.06s WALL


   This run was terminated on:  18:44:46  13Jun2025            

=------------------------------------------------------------------------------=
   JOB DONE.
=------------------------------------------------------------------------------=
Note: The following floating-point exceptions are signalling: IEEE_INVALID_FLAG
