Authorization required, but no authorization protocol specified

Authorization required, but no authorization protocol specified

Authorization required, but no authorization protocol specified

Authorization required, but no authorization protocol specified

Authorization required, but no authorization protocol specified

Authorization required, but no authorization protocol specified

Authorization required, but no authorization protocol specified

Authorization required, but no authorization protocol specified

Authorization required, but no authorization protocol specified

Authorization required, but no authorization protocol specified


     Program PWSCF v.7.2 starts on 13Jun2025 at 19: 1:48 

     This program is part of the open-source Quantum ESPRESSO suite
     for quantum simulation of materials; please cite
         "P. Giannozzi et al., J. Phys.:Condens. Matter 21 395502 (2009);
         "P. Giannozzi et al., J. Phys.:Condens. Matter 29 465901 (2017);
         "P. Giannozzi et al., J. Chem. Phys. 152 154105 (2020);
          URL http://www.quantum-espresso.org", 
     in publications or presentations arising from this work. More details at
     http://www.quantum-espresso.org/quote

     Parallel version (MPI), running on     8 processors

     MPI processes distributed on     1 nodes
     120707 MiB available memory on the printing compute node when the environment starts

     Reading input from /home/jvc/QEspresso7.2/ZnO_database_python/SCFs.in/scf-6.61-1.47.in

     Current dimensions of program PWSCF are:
     Max number of different atomic species (ntypx) = 10
     Max number of k-points (npk) =  40000
     Max angular momentum in pseudopotentials (lmaxx) =  4
     file Zn.upf: wavefunction(s)  3D renormalized

     R & G space division:  proc/nbgrp/npool/nimage =       8
     Subspace diagonalization in iterative solution of the eigenvalue problem:
     a serial algorithm will be used


     Parallelization info
     --------------------
     sticks:   dense  smooth     PW     G-vecs:    dense   smooth      PW
     Min         149      74     23                 6207     2190     365
     Max         151      75     24                 6210     2195     368
     Sum        1201     595    187                49669    17533    2935

     Using Slab Decomposition



     bravais-lattice index     =            4
     lattice parameter (alat)  =       6.6113  a.u.
     unit-cell volume          =     367.6548 (a.u.)^3
     number of atoms/cell      =            4
     number of atomic types    =            2
     number of electrons       =        36.00
     number of Kohn-Sham states=           18
     kinetic-energy cutoff     =      50.0000  Ry
     charge density cutoff     =     400.0000  Ry
     scf convergence threshold =      1.0E-08
     mixing beta               =       0.3000
     number of iterations used =            8  plain     mixing
     Exchange-correlation= PBE
                           (   1   4   3   4   0   0   0)

     celldm(1)=   6.611339  celldm(2)=   0.000000  celldm(3)=   1.469066
     celldm(4)=   0.000000  celldm(5)=   0.000000  celldm(6)=   0.000000

     crystal axes: (cart. coord. in units of alat)
               a(1) = (   1.000000   0.000000   0.000000 )  
               a(2) = (  -0.500000   0.866025   0.000000 )  
               a(3) = (   0.000000   0.000000   1.469066 )  

     reciprocal axes: (cart. coord. in units 2 pi/alat)
               b(1) = (  1.000000  0.577350 -0.000000 )  
               b(2) = (  0.000000  1.154701  0.000000 )  
               b(3) = (  0.000000 -0.000000  0.680705 )  


     PseudoPot. # 1 for Zn read from file:
     /home/jvc/QEspresso7.2/ZnO_database/pseudos/Zn.upf
     MD5 check sum: 7f56cabf9682ed8c977c2f7d0c5985c5
     Pseudo is Ultrasoft + core correction, Zval = 12.0
     Generated using &quot;atomic&quot; code by A. Dal Corso  v.6.2.2
     Using radial grid of 1201 points,  6 beta functions with: 
                l(1) =   0
                l(2) =   0
                l(3) =   1
                l(4) =   1
                l(5) =   2
                l(6) =   2
     Q(r) pseudized with 0 coefficients 


     PseudoPot. # 2 for O  read from file:
     /home/jvc/QEspresso7.2/ZnO_database/pseudos/O.upf
     MD5 check sum: 91400c9766925bcf19f520983a725ff0
     Pseudo is Ultrasoft + core correction, Zval =  6.0
     Generated using &quot;atomic&quot; code by A. Dal Corso  v.6.3MaX
     Using radial grid of 1095 points,  4 beta functions with: 
                l(1) =   0
                l(2) =   0
                l(3) =   1
                l(4) =   1
     Q(r) pseudized with 0 coefficients 


     atomic species   valence    mass     pseudopotential
        Zn            12.00    63.38000     Zn( 1.00)
        O              6.00    15.99900     O ( 1.00)

     12 Sym. Ops. (no inversion) found ( 6 have fractional translation)



   Cartesian axes

     site n.     atom                  positions (alat units)
         1           Zn  tau(   1) = (   0.5000000   0.2886751   0.7354638  )
         2           Zn  tau(   2) = (  -0.0000000   0.5773503   0.0009308  )
         3           O   tau(   3) = (   0.5000000   0.2886751   1.2923028  )
         4           O   tau(   4) = (  -0.0000000   0.5773503   0.5577698  )

     number of k points=    28
                       cart. coord. in units 2pi/alat
        k(    1) = (   0.0000000   0.0000000   0.0000000), wk =   0.0092593
        k(    2) = (   0.0000000   0.0000000   0.1134508), wk =   0.0185185
        k(    3) = (   0.0000000   0.0000000   0.2269015), wk =   0.0185185
        k(    4) = (   0.0000000   0.0000000  -0.3403523), wk =   0.0092593
        k(    5) = (   0.0000000   0.1924501   0.0000000), wk =   0.0555556
        k(    6) = (   0.0000000   0.1924501   0.1134508), wk =   0.1111111
        k(    7) = (   0.0000000   0.1924501   0.2269015), wk =   0.1111111
        k(    8) = (   0.0000000   0.1924501  -0.3403523), wk =   0.0555556
        k(    9) = (   0.0000000   0.3849002   0.0000000), wk =   0.0555556
        k(   10) = (   0.0000000   0.3849002   0.1134508), wk =   0.1111111
        k(   11) = (   0.0000000   0.3849002   0.2269015), wk =   0.1111111
        k(   12) = (   0.0000000   0.3849002  -0.3403523), wk =   0.0555556
        k(   13) = (   0.0000000  -0.5773503   0.0000000), wk =   0.0277778
        k(   14) = (   0.0000000  -0.5773503   0.1134508), wk =   0.0555556
        k(   15) = (   0.0000000  -0.5773503   0.2269015), wk =   0.0555556
        k(   16) = (   0.0000000  -0.5773503  -0.3403523), wk =   0.0277778
        k(   17) = (   0.1666667   0.2886751   0.0000000), wk =   0.0555556
        k(   18) = (   0.1666667   0.2886751   0.1134508), wk =   0.1111111
        k(   19) = (   0.1666667   0.2886751   0.2269015), wk =   0.1111111
        k(   20) = (   0.1666667   0.2886751  -0.3403523), wk =   0.0555556
        k(   21) = (   0.1666667   0.4811252   0.0000000), wk =   0.1111111
        k(   22) = (   0.1666667   0.4811252   0.1134508), wk =   0.2222222
        k(   23) = (   0.1666667   0.4811252   0.2269015), wk =   0.2222222
        k(   24) = (   0.1666667   0.4811252  -0.3403523), wk =   0.1111111
        k(   25) = (   0.3333333   0.5773503   0.0000000), wk =   0.0185185
        k(   26) = (   0.3333333   0.5773503   0.1134508), wk =   0.0370370
        k(   27) = (   0.3333333   0.5773503   0.2269015), wk =   0.0370370
        k(   28) = (   0.3333333   0.5773503  -0.3403523), wk =   0.0185185

     Dense  grid:    49669 G-vectors     FFT dimensions: (  45,  45,  64)

     Smooth grid:    17533 G-vectors     FFT dimensions: (  30,  30,  48)

     Estimated max dynamical RAM per process >      28.51 MB

     Estimated total dynamical RAM >     228.08 MB

     Check: negative core charge=   -0.000002

     Initial potential from superposition of free atoms

     starting charge      35.9925, renormalised to      36.0000
     Starting wfcs are   26 randomized atomic wfcs

     total cpu time spent up to now is        1.6 secs

     Self-consistent Calculation

     iteration #  1     ecut=    50.00 Ry     beta= 0.30
     Davidson diagonalization with overlap
     ethr =  1.00E-02,  avg # of iterations =  1.7

     total cpu time spent up to now is        2.4 secs

     total energy              =    -361.43738771 Ry
     estimated scf accuracy    <       0.74757588 Ry

     iteration #  2     ecut=    50.00 Ry     beta= 0.30
     Davidson diagonalization with overlap
     ethr =  2.08E-03,  avg # of iterations =  2.1

     total cpu time spent up to now is        3.5 secs

     total energy              =    -361.55436347 Ry
     estimated scf accuracy    <       0.08436867 Ry

     iteration #  3     ecut=    50.00 Ry     beta= 0.30
     Davidson diagonalization with overlap
     ethr =  2.34E-04,  avg # of iterations =  6.6

     total cpu time spent up to now is        5.2 secs

     total energy              =    -361.57617183 Ry
     estimated scf accuracy    <       0.07555361 Ry

     iteration #  4     ecut=    50.00 Ry     beta= 0.30
     Davidson diagonalization with overlap
     ethr =  2.10E-04,  avg # of iterations =  8.4

     total cpu time spent up to now is        7.2 secs

     total energy              =    -361.62462062 Ry
     estimated scf accuracy    <       0.27021380 Ry

     iteration #  5     ecut=    50.00 Ry     beta= 0.30
     Davidson diagonalization with overlap
     ethr =  2.10E-04,  avg # of iterations =  2.0

     total cpu time spent up to now is        8.1 secs

     total energy              =    -361.49830205 Ry
     estimated scf accuracy    <       0.15762346 Ry

     iteration #  6     ecut=    50.00 Ry     beta= 0.30
     Davidson diagonalization with overlap
     ethr =  2.10E-04,  avg # of iterations =  9.4

     total cpu time spent up to now is       10.2 secs

     total energy              =    -361.55326045 Ry
     estimated scf accuracy    <       0.81212520 Ry

     iteration #  7     ecut=    50.00 Ry     beta= 0.30
     Davidson diagonalization with overlap
     ethr =  2.10E-04,  avg # of iterations =  5.6

     total cpu time spent up to now is       11.7 secs

     total energy              =    -361.62362063 Ry
     estimated scf accuracy    <       0.07698257 Ry

     iteration #  8     ecut=    50.00 Ry     beta= 0.30
     Davidson diagonalization with overlap
     ethr =  2.10E-04,  avg # of iterations =  1.0

     total cpu time spent up to now is       12.6 secs

     total energy              =    -361.61115327 Ry
     estimated scf accuracy    <       0.07306444 Ry

     iteration #  9     ecut=    50.00 Ry     beta= 0.30
     Davidson diagonalization with overlap
     ethr =  2.03E-04,  avg # of iterations =  1.1

     total cpu time spent up to now is       13.4 secs

     total energy              =    -361.60227505 Ry
     estimated scf accuracy    <       0.04465890 Ry

     iteration # 10     ecut=    50.00 Ry     beta= 0.30
     Davidson diagonalization with overlap
     ethr =  1.24E-04,  avg # of iterations =  3.1

     total cpu time spent up to now is       14.5 secs

     total energy              =    -361.60952888 Ry
     estimated scf accuracy    <       0.00368076 Ry

     iteration # 11     ecut=    50.00 Ry     beta= 0.30
     Davidson diagonalization with overlap
     ethr =  1.02E-05,  avg # of iterations =  6.6

     total cpu time spent up to now is       16.0 secs

     total energy              =    -361.61328909 Ry
     estimated scf accuracy    <       0.00077810 Ry

     iteration # 12     ecut=    50.00 Ry     beta= 0.30
     Davidson diagonalization with overlap
     ethr =  2.16E-06,  avg # of iterations =  4.3

     total cpu time spent up to now is       17.1 secs

     total energy              =    -361.61311620 Ry
     estimated scf accuracy    <       0.00203583 Ry

     iteration # 13     ecut=    50.00 Ry     beta= 0.30
     Davidson diagonalization with overlap
     ethr =  2.16E-06,  avg # of iterations =  1.0

     total cpu time spent up to now is       18.0 secs

     total energy              =    -361.61317189 Ry
     estimated scf accuracy    <       0.00146921 Ry

     iteration # 14     ecut=    50.00 Ry     beta= 0.30
     Davidson diagonalization with overlap
     ethr =  2.16E-06,  avg # of iterations =  1.0

     total cpu time spent up to now is       18.8 secs

     total energy              =    -361.61310631 Ry
     estimated scf accuracy    <       0.00155243 Ry

     iteration # 15     ecut=    50.00 Ry     beta= 0.30
     Davidson diagonalization with overlap
     ethr =  2.16E-06,  avg # of iterations =  1.0

     total cpu time spent up to now is       19.6 secs

     total energy              =    -361.61367380 Ry
     estimated scf accuracy    <       0.00138447 Ry

     iteration # 16     ecut=    50.00 Ry     beta= 0.30
     Davidson diagonalization with overlap
     ethr =  2.16E-06,  avg # of iterations =  2.0

     total cpu time spent up to now is       20.5 secs

     total energy              =    -361.61429433 Ry
     estimated scf accuracy    <       0.00252289 Ry

     iteration # 17     ecut=    50.00 Ry     beta= 0.30
     Davidson diagonalization with overlap
     ethr =  2.16E-06,  avg # of iterations =  4.5

     total cpu time spent up to now is       21.8 secs

     total energy              =    -361.61484364 Ry
     estimated scf accuracy    <       0.00670806 Ry

     iteration # 18     ecut=    50.00 Ry     beta= 0.30
     Davidson diagonalization with overlap
     ethr =  2.16E-06,  avg # of iterations =  1.1

     total cpu time spent up to now is       22.6 secs

     total energy              =    -361.61205144 Ry
     estimated scf accuracy    <       0.00743023 Ry

     iteration # 19     ecut=    50.00 Ry     beta= 0.30
     Davidson diagonalization with overlap
     ethr =  2.16E-06,  avg # of iterations =  6.5

     total cpu time spent up to now is       24.3 secs

     total energy              =    -361.61269029 Ry
     estimated scf accuracy    <       0.00032199 Ry

     iteration # 20     ecut=    50.00 Ry     beta= 0.30
     Davidson diagonalization with overlap
     ethr =  8.94E-07,  avg # of iterations =  5.6

     total cpu time spent up to now is       25.7 secs

     total energy              =    -361.61280035 Ry
     estimated scf accuracy    <       0.00014756 Ry

     iteration # 21     ecut=    50.00 Ry     beta= 0.30
     Davidson diagonalization with overlap
     ethr =  4.10E-07,  avg # of iterations =  2.9

     total cpu time spent up to now is       26.8 secs

     total energy              =    -361.61283249 Ry
     estimated scf accuracy    <       0.00001307 Ry

     iteration # 22     ecut=    50.00 Ry     beta= 0.30
     Davidson diagonalization with overlap
     ethr =  3.63E-08,  avg # of iterations =  5.2

     total cpu time spent up to now is       28.2 secs

     total energy              =    -361.61287255 Ry
     estimated scf accuracy    <       0.00001141 Ry

     iteration # 23     ecut=    50.00 Ry     beta= 0.30
     Davidson diagonalization with overlap
     ethr =  3.17E-08,  avg # of iterations =  9.4

     total cpu time spent up to now is       30.4 secs

     total energy              =    -361.61310418 Ry
     estimated scf accuracy    <       0.00026819 Ry

     iteration # 24     ecut=    50.00 Ry     beta= 0.30
     Davidson diagonalization with overlap
     ethr =  3.17E-08,  avg # of iterations = 11.2

     total cpu time spent up to now is       33.0 secs

     total energy              =    -361.61234650 Ry
     estimated scf accuracy    <       0.00144180 Ry

     iteration # 25     ecut=    50.00 Ry     beta= 0.30
     Davidson diagonalization with overlap
     c_bands:  1 eigenvalues not converged
     c_bands:  1 eigenvalues not converged
     ethr =  3.17E-08,  avg # of iterations = 13.9

     total cpu time spent up to now is       36.3 secs

     total energy              =    -361.61298690 Ry
     estimated scf accuracy    <       0.00043955 Ry

     iteration # 26     ecut=    50.00 Ry     beta= 0.30
     Davidson diagonalization with overlap
     ethr =  3.17E-08,  avg # of iterations =  4.8

     total cpu time spent up to now is       37.5 secs

     total energy              =    -361.61273267 Ry
     estimated scf accuracy    <       0.00056662 Ry

     iteration # 27     ecut=    50.00 Ry     beta= 0.30
     Davidson diagonalization with overlap
     ethr =  3.17E-08,  avg # of iterations = 11.4

     total cpu time spent up to now is       40.1 secs

     total energy              =    -361.61283929 Ry
     estimated scf accuracy    <       0.00000136 Ry

     iteration # 28     ecut=    50.00 Ry     beta= 0.30
     Davidson diagonalization with overlap
     ethr =  3.78E-09,  avg # of iterations =  6.8

     total cpu time spent up to now is       41.8 secs

     total energy              =    -361.61283728 Ry
     estimated scf accuracy    <       0.00001075 Ry

     iteration # 29     ecut=    50.00 Ry     beta= 0.30
     Davidson diagonalization with overlap
     ethr =  3.78E-09,  avg # of iterations =  4.9

     total cpu time spent up to now is       43.1 secs

     total energy              =    -361.61283792 Ry
     estimated scf accuracy    <       0.00000157 Ry

     iteration # 30     ecut=    50.00 Ry     beta= 0.30
     Davidson diagonalization with overlap
     ethr =  3.78E-09,  avg # of iterations =  1.1

     total cpu time spent up to now is       44.0 secs

     total energy              =    -361.61283738 Ry
     estimated scf accuracy    <       0.00000121 Ry

     iteration # 31     ecut=    50.00 Ry     beta= 0.30
     Davidson diagonalization with overlap
     ethr =  3.37E-09,  avg # of iterations =  5.0

     total cpu time spent up to now is       45.2 secs

     total energy              =    -361.61283779 Ry
     estimated scf accuracy    <       0.00000003 Ry

     iteration # 32     ecut=    50.00 Ry     beta= 0.30
     Davidson diagonalization with overlap
     ethr =  7.22E-11,  avg # of iterations =  7.4

     total cpu time spent up to now is       46.8 secs

     total energy              =    -361.61283781 Ry
     estimated scf accuracy    <       0.00000010 Ry

     iteration # 33     ecut=    50.00 Ry     beta= 0.30
     Davidson diagonalization with overlap
     ethr =  7.22E-11,  avg # of iterations =  5.0

     total cpu time spent up to now is       48.2 secs

     End of self-consistent calculation

          k = 0.0000 0.0000 0.0000 (  2199 PWs)   bands (ev):

   -11.7415 -11.0916   0.2383   0.2648   0.2648   0.4599   0.4599   0.8785
     1.0163   1.0163   1.2164   1.2164   1.3721   4.4783   4.4783   5.3367
     5.3367   5.4036

          k = 0.0000 0.0000 0.1135 (  2200 PWs)   bands (ev):

   -11.6989 -11.1358   0.1920   0.2677   0.2677   0.4349   0.4349   0.5100
     1.0383   1.0383   1.2129   1.2129   1.8952   4.5393   4.5393   4.8180
     5.2830   5.2830

          k = 0.0000 0.0000 0.2269 (  2218 PWs)   bands (ev):

   -11.5815 -11.2561   0.0973   0.1804   0.2824   0.2824   0.3775   0.3775
     1.0916   1.0916   1.1941   1.1941   2.6541   4.1050   4.7035   4.7035
     5.1332   5.1332

          k = 0.0000 0.0000-0.3404 (  2242 PWs)   bands (ev):

   -11.4196 -11.4196   0.0594   0.0594   0.3196   0.3196   0.3196   0.3196
     1.1508   1.1508   1.1508   1.1508   3.3991   3.3991   4.9220   4.9220
     4.9220   4.9220

          k = 0.0000 0.1925 0.0000 (  2197 PWs)   bands (ev):

   -11.6416 -11.0675   0.1704   0.3141   0.3234   0.4563   0.5490   0.9184
     0.9856   1.0202   1.2295   1.3409   1.4582   3.7434   4.1889   4.2706
     5.2157   5.2378

          k = 0.0000 0.1925 0.1135 (  2207 PWs)   bands (ev):

   -11.6031 -11.1056   0.1340   0.3060   0.3203   0.4048   0.5217   0.6105
     1.0171   1.0402   1.2225   1.2549   1.9944   3.8092   4.1189   4.2625
     5.1513   5.2152

          k = 0.0000 0.1925 0.2269 (  2207 PWs)   bands (ev):

   -11.4978 -11.2102   0.0524   0.1564   0.3287   0.3435   0.4288   0.4579
     1.0859   1.0904   1.1966   1.2178   2.6596   3.6364   4.2101   4.4597
     4.9722   5.0115

          k = 0.0000 0.1925-0.3404 (  2208 PWs)   bands (ev):

   -11.3538 -11.3538   0.0281   0.0281   0.3595   0.3595   0.3909   0.3909
     1.1491   1.1491   1.1603   1.1603   3.2077   3.2077   4.6203   4.6203
     4.7205   4.7205

          k = 0.0000 0.3849 0.0000 (  2197 PWs)   bands (ev):

   -11.4140 -11.0409   0.1162   0.3860   0.4033   0.5501   0.7639   0.8511
     1.0563   1.0829   1.2485   1.3806   1.8642   2.6255   3.3170   3.6106
     4.7425   4.9457

          k = 0.0000 0.3849 0.1135 (  2190 PWs)   bands (ev):

   -11.3871 -11.0636   0.0773   0.3292   0.4030   0.5159   0.7193   0.7284
     1.0492   1.0930   1.2347   1.3293   2.0455   2.7860   3.3330   3.7116
     4.8302   4.8632

          k = 0.0000 0.3849 0.2269 (  2205 PWs)   bands (ev):

   -11.3148 -11.1276  -0.0014   0.1245   0.4546   0.4767   0.5649   0.6400
     1.1171   1.1208   1.2007   1.2700   2.2747   2.7222   3.8328   3.9747
     4.6348   4.8281

          k = 0.0000 0.3849-0.3404 (  2198 PWs)   bands (ev):

   -11.2191 -11.2191  -0.0123  -0.0123   0.4936   0.4936   0.5383   0.5383
     1.1597   1.1597   1.1992   1.1992   2.5004   2.5004   4.3129   4.3129
     4.4668   4.4668

          k = 0.0000-0.5774 0.0000 (  2188 PWs)   bands (ev):

   -11.2642 -11.0603   0.1355   0.4060   0.5377   0.6914   0.7005   0.8930
     1.0748   1.1542   1.2558   1.2854   1.9155   2.4550   2.9546   3.3016
     4.3482   4.7996

          k = 0.0000-0.5774 0.1135 (  2200 PWs)   bands (ev):

   -11.2477 -11.0708   0.0916   0.3745   0.4295   0.6672   0.6797   0.8522
     1.1371   1.1567   1.2350   1.2858   1.8708   2.3474   3.2892   3.4210
     4.5037   4.7091

          k = 0.0000-0.5774 0.2269 (  2190 PWs)   bands (ev):

   -11.2043 -11.1019   0.0037   0.1173   0.5004   0.6280   0.6387   0.7436
     1.1647   1.2014   1.2166   1.2816   1.8867   2.1564   3.7239   3.9374
     4.4581   4.6748

          k = 0.0000-0.5774-0.3404 (  2176 PWs)   bands (ev):

   -11.1501 -11.1501  -0.0166  -0.0166   0.6120   0.6120   0.6157   0.6157
     1.1785   1.1785   1.2620   1.2620   1.9944   1.9944   4.1028   4.1028
     4.4865   4.4865

          k = 0.1667 0.2887 0.0000 (  2197 PWs)   bands (ev):

   -11.4767 -11.0429   0.1749   0.2972   0.4095   0.5019   0.7124   0.9579
     0.9610   1.0563   1.2442   1.3687   1.7800   3.1572   3.1755   3.8062
     4.8988   4.9053

          k = 0.1667 0.2887 0.1135 (  2196 PWs)   bands (ev):

   -11.4462 -11.0701   0.1314   0.2788   0.3932   0.4695   0.6777   0.7100
     0.9993   1.0833   1.2331   1.3147   2.1063   3.1533   3.3604   3.7903
     4.8122   4.9710

          k = 0.1667 0.2887 0.2269 (  2201 PWs)   bands (ev):

   -11.3638 -11.1462   0.0404   0.1407   0.3873   0.4351   0.5155   0.5955
     1.0865   1.1171   1.2052   1.2599   2.4848   3.0033   3.9116   3.9377
     4.5764   4.9202

          k = 0.1667 0.2887-0.3404 (  2204 PWs)   bands (ev):

   -11.2534 -11.2534   0.0176   0.0176   0.4154   0.4154   0.5121   0.5121
     1.1502   1.1502   1.1938   1.1938   2.7662   2.7662   4.2400   4.2400
     4.5410   4.5410

          k = 0.1667 0.4811 0.0000 (  2187 PWs)   bands (ev):

   -11.2690 -11.0569   0.2055   0.3599   0.5813   0.5936   0.8595   0.9286
     1.0514   1.0884   1.2593   1.3775   1.9216   2.4422   2.9006   3.2036
     4.3430   4.5529

          k = 0.1667 0.4811 0.1135 (  2191 PWs)   bands (ev):

   -11.2519 -11.0680   0.1720   0.3410   0.4674   0.5941   0.7695   0.8704
     1.0553   1.1315   1.2522   1.3716   1.9288   2.4550   2.9620   3.4847
     4.4124   4.5323

          k = 0.1667 0.4811 0.2269 (  2187 PWs)   bands (ev):

   -11.2072 -11.1007   0.0822   0.1788   0.4444   0.5698   0.6680   0.7326
     1.1051   1.1461   1.2643   1.3427   2.0189   2.3267   3.2713   4.0439
     4.1596   4.7123

          k = 0.1667 0.4811-0.3404 (  2190 PWs)   bands (ev):

   -11.1509 -11.1509   0.0544   0.0544   0.5278   0.5278   0.6370   0.6370
     1.1364   1.1364   1.3013   1.3013   2.1630   2.1630   3.6997   3.6997
     4.5803   4.5803

          k = 0.3333 0.5774 0.0000 (  2172 PWs)   bands (ev):

   -11.1308 -11.1308   0.2412   0.4654   0.4654   0.9314   0.9314   0.9835
     1.1118   1.1422   1.2533   1.2533   1.9391   2.2525   2.2525   3.7685
     3.7685   4.1958

          k = 0.3333 0.5774 0.1135 (  2169 PWs)   bands (ev):

   -11.1274 -11.1274   0.2688   0.3904   0.3904   0.8547   0.8547   0.9290
     1.0479   1.1053   1.3150   1.3150   2.1744   2.1845   2.1845   4.0096
     4.0096   4.0589

          k = 0.3333 0.5774 0.2269 (  2202 PWs)   bands (ev):

   -11.1205 -11.1205   0.2293   0.2293   0.3528   0.7037   0.7750   0.7750
     1.0409   1.0872   1.3858   1.3858   2.1002   2.1002   2.6500   3.6906
     4.4367   4.4367

          k = 0.3333 0.5774-0.3404 (  2208 PWs)   bands (ev):

   -11.1171 -11.1171   0.1492   0.1492   0.4980   0.4980   0.7507   0.7507
     1.0631   1.0631   1.4104   1.4104   2.0726   2.0726   3.1872   3.1872
     4.6351   4.6351

     highest occupied level (ev):     5.4036

!    total energy              =    -361.61283781 Ry
     estimated scf accuracy    <          5.8E-09 Ry

     The total energy is the sum of the following terms:
     one-electron contribution =    -168.01269392 Ry
     hartree contribution      =     123.30663848 Ry
     xc contribution           =    -109.34985073 Ry
     ewald contribution        =    -207.55693165 Ry

     convergence has been achieved in  33 iterations

     Forces acting on atoms (cartesian axes, Ry/au):

     atom    1 type  1   force =     0.00000000    0.00000000   -0.02135150
     atom    2 type  1   force =     0.00000000    0.00000000   -0.02135150
     atom    3 type  2   force =     0.00000000    0.00000000    0.02135150
     atom    4 type  2   force =     0.00000000   -0.00000000    0.02135150
     The non-local contrib.  to forces
     atom    1 type  1   force =     0.00000000    0.00000000   -0.26552546
     atom    2 type  1   force =     0.00000000   -0.00000000   -0.26552546
     atom    3 type  2   force =     0.00000000    0.00000000   -0.22030035
     atom    4 type  2   force =     0.00000000    0.00000000   -0.22030035
     The ionic contribution  to forces
     atom    1 type  1   force =    -0.00000000    0.00000000   -1.74773134
     atom    2 type  1   force =     0.00000000   -0.00000000   -1.74773134
     atom    3 type  2   force =    -0.00000000    0.00000000    1.74773134
     atom    4 type  2   force =     0.00000000   -0.00000000    1.74773134
     The local contribution  to forces
     atom    1 type  1   force =    -0.00000002    0.00000001    1.97378379
     atom    2 type  1   force =     0.00000007   -0.00000004    1.97378379
     atom    3 type  2   force =    -0.00000001    0.00000000   -1.50786309
     atom    4 type  2   force =     0.00000002   -0.00000001   -1.50786309
     The core correction contribution to forces
     atom    1 type  1   force =    -0.00000000    0.00000000    0.01815456
     atom    2 type  1   force =     0.00000001   -0.00000001    0.01815456
     atom    3 type  2   force =     0.00000000   -0.00000000    0.00176756
     atom    4 type  2   force =    -0.00000000    0.00000000    0.00176756
     The Hubbard contrib.    to forces
     atom    1 type  1   force =     0.00000000    0.00000000    0.00000000
     atom    2 type  1   force =     0.00000000    0.00000000    0.00000000
     atom    3 type  2   force =     0.00000000    0.00000000    0.00000000
     atom    4 type  2   force =     0.00000000    0.00000000    0.00000000
     The SCF correction term to forces
     atom    1 type  1   force =    -0.00000000    0.00000000   -0.00004753
     atom    2 type  1   force =     0.00000000   -0.00000000   -0.00004753
     atom    3 type  2   force =    -0.00000000    0.00000000    0.00000157
     atom    4 type  2   force =     0.00000000   -0.00000000    0.00000157

     Total force =     0.042703     Total SCF correction =     0.000067


     Computing stress (Cartesian axis) and pressure

          total   stress  (Ry/bohr**3)                   (kbar)     P=     -101.79
  -0.00101647   0.00000000   0.00000000         -149.53        0.00        0.00
   0.00000000  -0.00101647   0.00000000            0.00     -149.53        0.00
   0.00000000   0.00000000  -0.00004283            0.00        0.00       -6.30


     Writing all to output data dir ./ZnO_ANN.save/

     init_run     :      1.84s CPU      1.22s WALL (       1 calls)
     electrons    :    125.17s CPU     46.64s WALL (       1 calls)
     forces       :      0.74s CPU      0.38s WALL (       1 calls)
     stress       :      2.65s CPU      1.26s WALL (       1 calls)

     Called by init_run:
     wfcinit      :      1.02s CPU      0.41s WALL (       1 calls)
     potinit      :      0.29s CPU      0.29s WALL (       1 calls)
     hinit0       :      0.37s CPU      0.38s WALL (       1 calls)

     Called by electrons:
     c_bands      :    103.17s CPU     38.01s WALL (      33 calls)
     sum_band     :     16.16s CPU      6.24s WALL (      33 calls)
     v_of_rho     :      1.33s CPU      0.58s WALL (      34 calls)
     newd         :      4.21s CPU      1.72s WALL (      34 calls)
     mix_rho      :      0.21s CPU      0.10s WALL (      33 calls)

     Called by c_bands:
     init_us_2    :      1.55s CPU      0.55s WALL (    1932 calls)
     init_us_2:cp :      1.53s CPU      0.54s WALL (    1932 calls)
     cegterg      :     99.77s CPU     36.68s WALL (     924 calls)

     Called by *egterg:
     cdiaghg      :     16.23s CPU      5.37s WALL (    5506 calls)
     h_psi        :     67.35s CPU     27.28s WALL (    5534 calls)
     s_psi        :      1.59s CPU      0.46s WALL (    5534 calls)
     g_psi        :      0.56s CPU      0.14s WALL (    4582 calls)

     Called by h_psi:
     h_psi:calbec :      2.41s CPU      0.85s WALL (    5534 calls)
     vloc_psi     :     62.70s CPU     25.71s WALL (    5534 calls)
     add_vuspsi   :      1.61s CPU      0.52s WALL (    5534 calls)

     General routines
     calbec       :      3.02s CPU      1.05s WALL (    6598 calls)
     fft          :      0.88s CPU      0.47s WALL (     465 calls)
     ffts         :      0.18s CPU      0.15s WALL (      67 calls)
     fftw         :     62.15s CPU     25.58s WALL (  139666 calls)
     interpolate  :      0.22s CPU      0.17s WALL (      34 calls)

     Parallel routines

     PWSCF        :   2m10.95s CPU     49.98s WALL


   This run was terminated on:  19: 2:38  13Jun2025            

=------------------------------------------------------------------------------=
   JOB DONE.
=------------------------------------------------------------------------------=
Note: The following floating-point exceptions are signalling: IEEE_INVALID_FLAG
