Authorization required, but no authorization protocol specified

Authorization required, but no authorization protocol specified

Authorization required, but no authorization protocol specified

Authorization required, but no authorization protocol specified

Authorization required, but no authorization protocol specified

Authorization required, but no authorization protocol specified

Authorization required, but no authorization protocol specified

Authorization required, but no authorization protocol specified

Authorization required, but no authorization protocol specified

Authorization required, but no authorization protocol specified


     Program PWSCF v.7.2 starts on 13Jun2025 at 16:13:34 

     This program is part of the open-source Quantum ESPRESSO suite
     for quantum simulation of materials; please cite
         "P. Giannozzi et al., J. Phys.:Condens. Matter 21 395502 (2009);
         "P. Giannozzi et al., J. Phys.:Condens. Matter 29 465901 (2017);
         "P. Giannozzi et al., J. Chem. Phys. 152 154105 (2020);
          URL http://www.quantum-espresso.org", 
     in publications or presentations arising from this work. More details at
     http://www.quantum-espresso.org/quote

     Parallel version (MPI), running on     8 processors

     MPI processes distributed on     1 nodes
     120725 MiB available memory on the printing compute node when the environment starts

     Reading input from /home/jvc/QEspresso7.2/ZnO_database_python/SCFs.in/scf-5.93-1.45.in

     Current dimensions of program PWSCF are:
     Max number of different atomic species (ntypx) = 10
     Max number of k-points (npk) =  40000
     Max angular momentum in pseudopotentials (lmaxx) =  4
     file Zn.upf: wavefunction(s)  3D renormalized

     R & G space division:  proc/nbgrp/npool/nimage =       8
     Subspace diagonalization in iterative solution of the eigenvalue problem:
     a serial algorithm will be used


     Parallelization info
     --------------------
     sticks:   dense  smooth     PW     G-vecs:    dense   smooth      PW
     Min         119      61     18                 4423     1567     266
     Max         120      63     19                 4432     1570     271
     Sum         955     499    151                35413    12549    2151

     Using Slab Decomposition



     bravais-lattice index     =            4
     lattice parameter (alat)  =       5.9317  a.u.
     unit-cell volume          =     262.6054 (a.u.)^3
     number of atoms/cell      =            4
     number of atomic types    =            2
     number of electrons       =        36.00
     number of Kohn-Sham states=           18
     kinetic-energy cutoff     =      50.0000  Ry
     charge density cutoff     =     400.0000  Ry
     scf convergence threshold =      1.0E-08
     mixing beta               =       0.3000
     number of iterations used =            8  plain     mixing
     Exchange-correlation= PBE
                           (   1   4   3   4   0   0   0)

     celldm(1)=   5.931669  celldm(2)=   0.000000  celldm(3)=   1.452923
     celldm(4)=   0.000000  celldm(5)=   0.000000  celldm(6)=   0.000000

     crystal axes: (cart. coord. in units of alat)
               a(1) = (   1.000000   0.000000   0.000000 )  
               a(2) = (  -0.500000   0.866025   0.000000 )  
               a(3) = (   0.000000   0.000000   1.452923 )  

     reciprocal axes: (cart. coord. in units 2 pi/alat)
               b(1) = (  1.000000  0.577350 -0.000000 )  
               b(2) = (  0.000000  1.154701  0.000000 )  
               b(3) = (  0.000000 -0.000000  0.688268 )  


     PseudoPot. # 1 for Zn read from file:
     /home/jvc/QEspresso7.2/ZnO_database/pseudos/Zn.upf
     MD5 check sum: 7f56cabf9682ed8c977c2f7d0c5985c5
     Pseudo is Ultrasoft + core correction, Zval = 12.0
     Generated using &quot;atomic&quot; code by A. Dal Corso  v.6.2.2
     Using radial grid of 1201 points,  6 beta functions with: 
                l(1) =   0
                l(2) =   0
                l(3) =   1
                l(4) =   1
                l(5) =   2
                l(6) =   2
     Q(r) pseudized with 0 coefficients 


     PseudoPot. # 2 for O  read from file:
     /home/jvc/QEspresso7.2/ZnO_database/pseudos/O.upf
     MD5 check sum: 91400c9766925bcf19f520983a725ff0
     Pseudo is Ultrasoft + core correction, Zval =  6.0
     Generated using &quot;atomic&quot; code by A. Dal Corso  v.6.3MaX
     Using radial grid of 1095 points,  4 beta functions with: 
                l(1) =   0
                l(2) =   0
                l(3) =   1
                l(4) =   1
     Q(r) pseudized with 0 coefficients 


     atomic species   valence    mass     pseudopotential
        Zn            12.00    63.38000     Zn( 1.00)
        O              6.00    15.99900     O ( 1.00)

     12 Sym. Ops. (no inversion) found ( 6 have fractional translation)



   Cartesian axes

     site n.     atom                  positions (alat units)
         1           Zn  tau(   1) = (   0.5000000   0.2886751   0.7273818  )
         2           Zn  tau(   2) = (  -0.0000000   0.5773503   0.0009206  )
         3           O   tau(   3) = (   0.5000000   0.2886751   1.2781017  )
         4           O   tau(   4) = (  -0.0000000   0.5773503   0.5516404  )

     number of k points=    28
                       cart. coord. in units 2pi/alat
        k(    1) = (   0.0000000   0.0000000   0.0000000), wk =   0.0092593
        k(    2) = (   0.0000000   0.0000000   0.1147113), wk =   0.0185185
        k(    3) = (   0.0000000   0.0000000   0.2294226), wk =   0.0185185
        k(    4) = (   0.0000000   0.0000000  -0.3441340), wk =   0.0092593
        k(    5) = (   0.0000000   0.1924501   0.0000000), wk =   0.0555556
        k(    6) = (   0.0000000   0.1924501   0.1147113), wk =   0.1111111
        k(    7) = (   0.0000000   0.1924501   0.2294226), wk =   0.1111111
        k(    8) = (   0.0000000   0.1924501  -0.3441340), wk =   0.0555556
        k(    9) = (   0.0000000   0.3849002   0.0000000), wk =   0.0555556
        k(   10) = (   0.0000000   0.3849002   0.1147113), wk =   0.1111111
        k(   11) = (   0.0000000   0.3849002   0.2294226), wk =   0.1111111
        k(   12) = (   0.0000000   0.3849002  -0.3441340), wk =   0.0555556
        k(   13) = (   0.0000000  -0.5773503   0.0000000), wk =   0.0277778
        k(   14) = (   0.0000000  -0.5773503   0.1147113), wk =   0.0555556
        k(   15) = (   0.0000000  -0.5773503   0.2294226), wk =   0.0555556
        k(   16) = (   0.0000000  -0.5773503  -0.3441340), wk =   0.0277778
        k(   17) = (   0.1666667   0.2886751   0.0000000), wk =   0.0555556
        k(   18) = (   0.1666667   0.2886751   0.1147113), wk =   0.1111111
        k(   19) = (   0.1666667   0.2886751   0.2294226), wk =   0.1111111
        k(   20) = (   0.1666667   0.2886751  -0.3441340), wk =   0.0555556
        k(   21) = (   0.1666667   0.4811252   0.0000000), wk =   0.1111111
        k(   22) = (   0.1666667   0.4811252   0.1147113), wk =   0.2222222
        k(   23) = (   0.1666667   0.4811252   0.2294226), wk =   0.2222222
        k(   24) = (   0.1666667   0.4811252  -0.3441340), wk =   0.1111111
        k(   25) = (   0.3333333   0.5773503   0.0000000), wk =   0.0185185
        k(   26) = (   0.3333333   0.5773503   0.1147113), wk =   0.0370370
        k(   27) = (   0.3333333   0.5773503   0.2294226), wk =   0.0370370
        k(   28) = (   0.3333333   0.5773503  -0.3441340), wk =   0.0185185

     Dense  grid:    35413 G-vectors     FFT dimensions: (  40,  40,  60)

     Smooth grid:    12549 G-vectors     FFT dimensions: (  27,  27,  40)

     Estimated max dynamical RAM per process >      21.33 MB

     Estimated total dynamical RAM >     170.65 MB

     Check: negative core charge=   -0.000001

     Initial potential from superposition of free atoms

     starting charge      35.9925, renormalised to      36.0000
     Starting wfcs are   26 randomized atomic wfcs

     total cpu time spent up to now is        1.4 secs

     Self-consistent Calculation

     iteration #  1     ecut=    50.00 Ry     beta= 0.30
     Davidson diagonalization with overlap
     ethr =  1.00E-02,  avg # of iterations =  2.1

     total cpu time spent up to now is        2.2 secs

     total energy              =    -361.36316869 Ry
     estimated scf accuracy    <       0.69021267 Ry

     iteration #  2     ecut=    50.00 Ry     beta= 0.30
     Davidson diagonalization with overlap
     ethr =  1.92E-03,  avg # of iterations =  2.1

     total cpu time spent up to now is        3.0 secs

     total energy              =    -361.42249164 Ry
     estimated scf accuracy    <       0.12318346 Ry

     iteration #  3     ecut=    50.00 Ry     beta= 0.30
     Davidson diagonalization with overlap
     ethr =  3.42E-04,  avg # of iterations =  6.3

     total cpu time spent up to now is        4.4 secs

     total energy              =    -361.48463394 Ry
     estimated scf accuracy    <       0.06899549 Ry

     iteration #  4     ecut=    50.00 Ry     beta= 0.30
     Davidson diagonalization with overlap
     ethr =  1.92E-04,  avg # of iterations =  3.0

     total cpu time spent up to now is        5.3 secs

     total energy              =    -361.51123350 Ry
     estimated scf accuracy    <       0.00606699 Ry

     iteration #  5     ecut=    50.00 Ry     beta= 0.30
     Davidson diagonalization with overlap
     ethr =  1.69E-05,  avg # of iterations = 10.6

     total cpu time spent up to now is        7.6 secs

     total energy              =    -361.57440393 Ry
     estimated scf accuracy    <       0.32103124 Ry

     iteration #  6     ecut=    50.00 Ry     beta= 0.30
     Davidson diagonalization with overlap
     ethr =  1.69E-05,  avg # of iterations =  2.0

     total cpu time spent up to now is        8.3 secs

     total energy              =    -361.64775674 Ry
     estimated scf accuracy    <       0.27774086 Ry

     iteration #  7     ecut=    50.00 Ry     beta= 0.30
     Davidson diagonalization with overlap
     ethr =  1.69E-05,  avg # of iterations =  6.1

     total cpu time spent up to now is        9.7 secs

     total energy              =    -361.36682303 Ry
     estimated scf accuracy    <       0.50873963 Ry

     iteration #  8     ecut=    50.00 Ry     beta= 0.30
     Davidson diagonalization with overlap
     ethr =  1.69E-05,  avg # of iterations = 11.8

     total cpu time spent up to now is       12.2 secs

     total energy              =    -361.51149803 Ry
     estimated scf accuracy    <       0.03026813 Ry

     iteration #  9     ecut=    50.00 Ry     beta= 0.30
     Davidson diagonalization with overlap
     ethr =  1.69E-05,  avg # of iterations =  1.1

     total cpu time spent up to now is       12.9 secs

     total energy              =    -361.50217564 Ry
     estimated scf accuracy    <       0.02977341 Ry

     iteration # 10     ecut=    50.00 Ry     beta= 0.30
     Davidson diagonalization with overlap
     ethr =  1.69E-05,  avg # of iterations =  4.0

     total cpu time spent up to now is       13.9 secs

     total energy              =    -361.50182716 Ry
     estimated scf accuracy    <       0.00829729 Ry

     iteration # 11     ecut=    50.00 Ry     beta= 0.30
     Davidson diagonalization with overlap
     ethr =  1.69E-05,  avg # of iterations =  3.2

     total cpu time spent up to now is       14.7 secs

     total energy              =    -361.50209340 Ry
     estimated scf accuracy    <       0.00164096 Ry

     iteration # 12     ecut=    50.00 Ry     beta= 0.30
     Davidson diagonalization with overlap
     ethr =  4.56E-06,  avg # of iterations =  6.0

     total cpu time spent up to now is       16.1 secs

     total energy              =    -361.50342342 Ry
     estimated scf accuracy    <       0.00099961 Ry

     iteration # 13     ecut=    50.00 Ry     beta= 0.30
     Davidson diagonalization with overlap
     ethr =  2.78E-06,  avg # of iterations =  1.2

     total cpu time spent up to now is       16.8 secs

     total energy              =    -361.50345925 Ry
     estimated scf accuracy    <       0.00067447 Ry

     iteration # 14     ecut=    50.00 Ry     beta= 0.30
     Davidson diagonalization with overlap
     ethr =  1.87E-06,  avg # of iterations =  1.0

     total cpu time spent up to now is       17.5 secs

     total energy              =    -361.50323408 Ry
     estimated scf accuracy    <       0.00071023 Ry

     iteration # 15     ecut=    50.00 Ry     beta= 0.30
     Davidson diagonalization with overlap
     ethr =  1.87E-06,  avg # of iterations =  1.1

     total cpu time spent up to now is       18.1 secs

     total energy              =    -361.50316067 Ry
     estimated scf accuracy    <       0.00028469 Ry

     iteration # 16     ecut=    50.00 Ry     beta= 0.30
     Davidson diagonalization with overlap
     ethr =  7.91E-07,  avg # of iterations =  3.6

     total cpu time spent up to now is       19.1 secs

     total energy              =    -361.50329657 Ry
     estimated scf accuracy    <       0.00000217 Ry

     iteration # 17     ecut=    50.00 Ry     beta= 0.30
     Davidson diagonalization with overlap
     ethr =  6.03E-09,  avg # of iterations = 10.2

     total cpu time spent up to now is       21.3 secs

     total energy              =    -361.50331816 Ry
     estimated scf accuracy    <       0.00008817 Ry

     iteration # 18     ecut=    50.00 Ry     beta= 0.30
     Davidson diagonalization with overlap
     ethr =  6.03E-09,  avg # of iterations =  1.1

     total cpu time spent up to now is       22.0 secs

     total energy              =    -361.50328297 Ry
     estimated scf accuracy    <       0.00009102 Ry

     iteration # 19     ecut=    50.00 Ry     beta= 0.30
     Davidson diagonalization with overlap
     ethr =  6.03E-09,  avg # of iterations =  9.1

     total cpu time spent up to now is       24.0 secs

     total energy              =    -361.50329332 Ry
     estimated scf accuracy    <       0.00000468 Ry

     iteration # 20     ecut=    50.00 Ry     beta= 0.30
     Davidson diagonalization with overlap
     ethr =  6.03E-09,  avg # of iterations =  1.0

     total cpu time spent up to now is       24.6 secs

     total energy              =    -361.50329265 Ry
     estimated scf accuracy    <       0.00000528 Ry

     iteration # 21     ecut=    50.00 Ry     beta= 0.30
     Davidson diagonalization with overlap
     ethr =  6.03E-09,  avg # of iterations =  1.1

     total cpu time spent up to now is       25.3 secs

     total energy              =    -361.50329091 Ry
     estimated scf accuracy    <       0.00000392 Ry

     iteration # 22     ecut=    50.00 Ry     beta= 0.30
     Davidson diagonalization with overlap
     ethr =  6.03E-09,  avg # of iterations =  4.1

     total cpu time spent up to now is       26.4 secs

     total energy              =    -361.50329168 Ry
     estimated scf accuracy    <       0.00000004 Ry

     iteration # 23     ecut=    50.00 Ry     beta= 0.30
     Davidson diagonalization with overlap
     ethr =  1.14E-10,  avg # of iterations =  7.0

     total cpu time spent up to now is       27.7 secs

     End of self-consistent calculation

          k = 0.0000 0.0000 0.0000 (  1567 PWs)   bands (ev):

    -9.3283  -8.0320   3.5286   3.7806   3.7806   3.8014   4.1179   4.1179
     5.5306   5.5306   5.9580   5.9580   6.2818   9.2125   9.2125  10.5830
    10.5830  10.6641

          k = 0.0000 0.0000 0.1147 (  1585 PWs)   bands (ev):

    -9.2451  -8.1214   3.3540   3.6778   3.7821   3.7821   4.0706   4.0706
     5.5793   5.5793   5.9552   5.9552   6.7242   9.3063   9.3063  10.1733
    10.4964  10.4964

          k = 0.0000 0.0000 0.2294 (  1574 PWs)   bands (ev):

    -9.0147  -8.3646   3.1442   3.3997   3.8021   3.8021   3.9649   3.9649
     5.6998   5.6998   5.9226   5.9226   7.6563   9.4426   9.5639   9.5639
    10.2545  10.2545

          k = 0.0000 0.0000-0.3441 (  1604 PWs)   bands (ev):

    -8.6930  -8.6930   3.1661   3.1661   3.8627   3.8627   3.8627   3.8627
     5.8317   5.8317   5.8317   5.8317   8.6162   8.6162   9.9133   9.9133
     9.9133   9.9133

          k = 0.0000 0.1925 0.0000 (  1585 PWs)   bands (ev):

    -9.1346  -7.9840   3.4807   3.7115   3.8669   3.9404   4.1698   4.2616
     5.4440   5.5378   5.9155   5.9904   6.3912   8.3244   8.7614   9.5128
    10.3797  10.4129

          k = 0.0000 0.1925 0.1147 (  1573 PWs)   bands (ev):

    -9.0583  -8.0601   3.3785   3.4832   3.8736   3.9081   4.1185   4.2105
     5.5156   5.5836   5.9791   5.9834   6.7937   8.4367   8.8772   9.3078
    10.2795  10.4057

          k = 0.0000 0.1925 0.2294 (  1570 PWs)   bands (ev):

    -8.8484  -8.2700   3.1134   3.2276   3.8746   3.9047   4.0107   4.0940
     5.6727   5.6967   5.9289   5.9568   7.6788   8.7425   8.9754   9.1888
     9.9991  10.1087

          k = 0.0000 0.1925-0.3441 (  1576 PWs)   bands (ev):

    -8.5594  -8.5594   3.0572   3.0572   3.9137   3.9137   3.9790   3.9790
     5.8273   5.8273   5.8394   5.8394   8.3973   8.3973   9.4776   9.4776
     9.6018   9.6018

          k = 0.0000 0.3849 0.0000 (  1564 PWs)   bands (ev):

    -8.6831  -7.9309   3.1988   3.6657   3.9990   4.0899   4.6098   4.6380
     5.4404   5.6741   5.8256   6.0372   6.5231   7.1187   7.8245   8.1841
     9.7112   9.9130

          k = 0.0000 0.3849 0.1147 (  1561 PWs)   bands (ev):

    -8.6271  -7.9735   3.1137   3.4229   4.0221   4.0553   4.4262   4.5656
     5.5193   5.6991   6.0087   6.0345   6.6741   7.3677   7.9967   8.0920
     9.7910   9.8437

          k = 0.0000 0.3849 0.2294 (  1559 PWs)   bands (ev):

    -8.4769  -8.0969   2.9296   3.0349   4.0304   4.0958   4.2143   4.3992
     5.7032   5.7652   5.9397   6.0361   7.0260   7.5838   8.4279   8.4705
     9.4495   9.8558

          k = 0.0000 0.3849-0.3441 (  1554 PWs)   bands (ev):

    -8.2803  -8.2803   2.8551   2.8551   4.0810   4.0810   4.2257   4.2257
     5.8525   5.8525   5.8941   5.8941   7.3404   7.3404   8.9590   8.9590
     9.3463   9.3463

          k = 0.0000-0.5774 0.0000 (  1566 PWs)   bands (ev):

    -8.3771  -7.9732   3.2626   3.3968   4.0379   4.2075   4.6132   4.9063
     5.6162   5.8421   6.0556   6.1081   6.5949   6.7104   7.2607   7.3606
     9.2135   9.6483

          k = 0.0000-0.5774 0.1147 (  1570 PWs)   bands (ev):

    -8.3406  -7.9894   3.1468   3.2160   4.0721   4.1607   4.5088   4.8082
     5.7293   5.8485   6.0068   6.1094   6.6103   6.6316   7.4920   7.8015
     9.3943   9.5170

          k = 0.0000-0.5774 0.2294 (  1570 PWs)   bands (ev):

    -8.2468  -8.0423   2.9013   2.9062   4.1425   4.1774   4.3293   4.5853
     5.8664   5.8993   5.9396   6.0878   6.5981   6.6268   8.0148   8.6523
     9.1485   9.6165

          k = 0.0000-0.5774-0.3441 (  1560 PWs)   bands (ev):

    -8.1342  -8.1342   2.7748   2.7748   4.1998   4.1998   4.3543   4.3543
     5.8956   5.8956   6.0202   6.0202   6.6167   6.6167   8.6133   8.6133
     9.3796   9.3796

          k = 0.1667 0.2887 0.0000 (  1563 PWs)   bands (ev):

    -8.8094  -7.9346   3.3354   3.6368   4.0313   4.0497   4.4656   4.5279
     5.3796   5.5756   5.8697   6.0251   6.5702   7.5109   7.7360   8.6361
     9.8872   9.9351

          k = 0.1667 0.2887 0.1147 (  1565 PWs)   bands (ev):

    -8.7469  -7.9871   3.2518   3.4390   3.9904   4.0003   4.3084   4.4617
     5.4667   5.6610   6.0049   6.0216   6.8414   7.7097   7.8683   8.4968
     9.7587  10.0372

          k = 0.1667 0.2887 0.2294 (  1568 PWs)   bands (ev):

    -8.5778  -8.1365   3.0579   3.0799   3.9485   3.9784   4.1827   4.3187
     5.6565   5.7522   5.9479   6.0153   7.3734   7.9981   8.4284   8.4641
     9.4093   9.9654

          k = 0.1667 0.2887-0.3441 (  1570 PWs)   bands (ev):

    -8.3523  -8.3523   2.9432   2.9432   3.9595   3.9595   4.1943   4.1943
     5.8240   5.8240   5.8939   5.8939   7.7439   7.7439   8.8938   8.8938
     9.3913   9.3913

          k = 0.1667 0.4811 0.0000 (  1568 PWs)   bands (ev):

    -8.3906  -7.9640   3.3715   3.6348   3.9708   4.1619   4.7242   4.9130
     5.5577   5.5726   6.0567   6.0623   6.3425   6.7283   7.2840   7.6572
     9.1301   9.3530

          k = 0.1667 0.4811 0.1147 (  1569 PWs)   bands (ev):

    -8.3528  -7.9819   3.2635   3.4503   3.9455   4.1204   4.5803   4.7616
     5.5527   5.7755   6.0304   6.1934   6.3606   6.9419   7.2535   7.9579
     9.1202   9.4087

          k = 0.1667 0.4811 0.2294 (  1563 PWs)   bands (ev):

    -8.2553  -8.0394   3.0332   3.0934   3.9663   4.0659   4.4277   4.5463
     5.6829   5.8158   6.0435   6.1953   6.5917   7.0228   7.5506   8.6047
     8.8460   9.6330

          k = 0.1667 0.4811-0.3441 (  1566 PWs)   bands (ev):

    -8.1373  -8.1373   2.9259   2.9259   4.0207   4.0207   4.4118   4.4118
     5.7793   5.7793   6.1097   6.1097   6.8386   6.8386   8.1389   8.1389
     9.4367   9.4367

          k = 0.3333 0.5774 0.0000 (  1557 PWs)   bands (ev):

    -8.1126  -8.1126   3.6318   3.8468   3.8468   4.3328   4.8876   4.8876
     5.4658   5.6920   5.6920   5.7544   6.1413   6.8832   6.8832   8.3984
     8.3984   8.7167

          k = 0.3333 0.5774 0.1147 (  1557 PWs)   bands (ev):

    -8.1012  -8.1012   3.6536   3.6536   3.6552   4.2357   4.7278   4.7278
     5.4884   5.7365   5.9433   5.9433   6.3398   6.8265   6.8265   8.5382
     8.6781   8.6781

          k = 0.3333 0.5774 0.2294 (  1578 PWs)   bands (ev):

    -8.0782  -8.0782   3.2966   3.2966   3.7285   4.0397   4.5926   4.5926
     5.5445   5.6868   6.2575   6.2575   6.7225   6.7225   6.8295   8.0683
     9.2151   9.2151

          k = 0.3333 0.5774-0.3441 (  1572 PWs)   bands (ev):

    -8.0666  -8.0666   3.1358   3.1358   3.8578   3.8578   4.5537   4.5537
     5.6172   5.6172   6.3983   6.3983   6.6541   6.6541   7.4507   7.4507
     9.4786   9.4786

     highest occupied level (ev):    10.6641

!    total energy              =    -361.50329181 Ry
     estimated scf accuracy    <          2.2E-09 Ry

     The total energy is the sum of the following terms:
     one-electron contribution =    -129.13254023 Ry
     hartree contribution      =     109.77512466 Ry
     xc contribution           =    -110.10438197 Ry
     ewald contribution        =    -232.04149427 Ry

     convergence has been achieved in  23 iterations

     Forces acting on atoms (cartesian axes, Ry/au):

     atom    1 type  1   force =    -0.00000000   -0.00000000   -0.12002140
     atom    2 type  1   force =    -0.00000000   -0.00000000   -0.12002140
     atom    3 type  2   force =    -0.00000000   -0.00000000    0.12002140
     atom    4 type  2   force =     0.00000000    0.00000000    0.12002140
     The non-local contrib.  to forces
     atom    1 type  1   force =     0.00000000    0.00000000   -0.34963153
     atom    2 type  1   force =     0.00000000   -0.00000000   -0.34963153
     atom    3 type  2   force =     0.00000000    0.00000000   -0.20775771
     atom    4 type  2   force =     0.00000000    0.00000000   -0.20775771
     The ionic contribution  to forces
     atom    1 type  1   force =    -0.00000000    0.00000000   -2.45248893
     atom    2 type  1   force =     0.00000000   -0.00000000   -2.45248893
     atom    3 type  2   force =    -0.00000000    0.00000000    2.45248893
     atom    4 type  2   force =     0.00000000   -0.00000000    2.45248893
     The local contribution  to forces
     atom    1 type  1   force =    -0.00000002    0.00000001    2.64909309
     atom    2 type  1   force =     0.00000006   -0.00000004    2.64909310
     atom    3 type  2   force =    -0.00000001    0.00000000   -2.12580414
     atom    4 type  2   force =     0.00000002   -0.00000001   -2.12580415
     The core correction contribution to forces
     atom    1 type  1   force =    -0.00000000    0.00000000    0.03300838
     atom    2 type  1   force =     0.00000001   -0.00000000    0.03300838
     atom    3 type  2   force =     0.00000000   -0.00000000    0.00112003
     atom    4 type  2   force =    -0.00000000    0.00000000    0.00112003
     The Hubbard contrib.    to forces
     atom    1 type  1   force =     0.00000000    0.00000000    0.00000000
     atom    2 type  1   force =     0.00000000    0.00000000    0.00000000
     atom    3 type  2   force =     0.00000000    0.00000000    0.00000000
     atom    4 type  2   force =     0.00000000    0.00000000    0.00000000
     The SCF correction term to forces
     atom    1 type  1   force =    -0.00000000    0.00000000   -0.00000512
     atom    2 type  1   force =     0.00000000   -0.00000000   -0.00000512
     atom    3 type  2   force =    -0.00000000    0.00000000   -0.00002840
     atom    4 type  2   force =     0.00000000   -0.00000000   -0.00002840

     Total force =     0.240043     Total SCF correction =     0.000041


     Computing stress (Cartesian axis) and pressure

          total   stress  (Ry/bohr**3)                   (kbar)     P=      546.66
   0.00246481   0.00000000   0.00000000          362.59        0.00        0.00
   0.00000000   0.00246481   0.00000000            0.00      362.59        0.00
   0.00000000   0.00000000   0.00621869            0.00        0.00      914.80


     Writing all to output data dir ./ZnO_ANN.save/

     init_run     :      1.64s CPU      1.10s WALL (       1 calls)
     electrons    :     69.26s CPU     26.28s WALL (       1 calls)
     forces       :      0.57s CPU      0.27s WALL (       1 calls)
     stress       :      2.01s CPU      1.06s WALL (       1 calls)

     Called by init_run:
     wfcinit      :      0.88s CPU      0.33s WALL (       1 calls)
     potinit      :      0.19s CPU      0.19s WALL (       1 calls)
     hinit0       :      0.47s CPU      0.48s WALL (       1 calls)

     Called by electrons:
     c_bands      :     57.68s CPU     21.62s WALL (      23 calls)
     sum_band     :      8.59s CPU      3.41s WALL (      23 calls)
     v_of_rho     :      0.72s CPU      0.32s WALL (      24 calls)
     newd         :      2.11s CPU      0.87s WALL (      24 calls)
     mix_rho      :      0.13s CPU      0.05s WALL (      23 calls)

     Called by c_bands:
     init_us_2    :      0.79s CPU      0.28s WALL (    1372 calls)
     init_us_2:cp :      0.77s CPU      0.27s WALL (    1372 calls)
     cegterg      :     55.93s CPU     20.94s WALL (     644 calls)

     Called by *egterg:
     cdiaghg      :     10.00s CPU      3.37s WALL (    3420 calls)
     h_psi        :     37.90s CPU     15.42s WALL (    3448 calls)
     s_psi        :      0.88s CPU      0.28s WALL (    3448 calls)
     g_psi        :      0.28s CPU      0.08s WALL (    2776 calls)

     Called by h_psi:
     h_psi:calbec :      1.27s CPU      0.48s WALL (    3448 calls)
     vloc_psi     :     35.43s CPU     14.54s WALL (    3448 calls)
     add_vuspsi   :      0.87s CPU      0.30s WALL (    3448 calls)

     General routines
     calbec       :      1.66s CPU      0.62s WALL (    4232 calls)
     fft          :      0.65s CPU      0.41s WALL (     335 calls)
     ffts         :      0.11s CPU      0.10s WALL (      47 calls)
     fftw         :     35.30s CPU     14.54s WALL (   97920 calls)
     interpolate  :      0.13s CPU      0.11s WALL (      24 calls)

     Parallel routines

     PWSCF        :   1m14.01s CPU     29.15s WALL


   This run was terminated on:  16:14: 3  13Jun2025            

=------------------------------------------------------------------------------=
   JOB DONE.
=------------------------------------------------------------------------------=
Note: The following floating-point exceptions are signalling: IEEE_INVALID_FLAG
