Authorization required, but no authorization protocol specified

Authorization required, but no authorization protocol specified

Authorization required, but no authorization protocol specified

Authorization required, but no authorization protocol specified

Authorization required, but no authorization protocol specified

Authorization required, but no authorization protocol specified

Authorization required, but no authorization protocol specified

Authorization required, but no authorization protocol specified

Authorization required, but no authorization protocol specified

Authorization required, but no authorization protocol specified


     Program PWSCF v.7.2 starts on 13Jun2025 at 19: 3:32 

     This program is part of the open-source Quantum ESPRESSO suite
     for quantum simulation of materials; please cite
         "P. Giannozzi et al., J. Phys.:Condens. Matter 21 395502 (2009);
         "P. Giannozzi et al., J. Phys.:Condens. Matter 29 465901 (2017);
         "P. Giannozzi et al., J. Chem. Phys. 152 154105 (2020);
          URL http://www.quantum-espresso.org", 
     in publications or presentations arising from this work. More details at
     http://www.quantum-espresso.org/quote

     Parallel version (MPI), running on     8 processors

     MPI processes distributed on     1 nodes
     120708 MiB available memory on the printing compute node when the environment starts

     Reading input from /home/jvc/QEspresso7.2/ZnO_database_python/SCFs.in/scf-6.61-1.50.in

     Current dimensions of program PWSCF are:
     Max number of different atomic species (ntypx) = 10
     Max number of k-points (npk) =  40000
     Max angular momentum in pseudopotentials (lmaxx) =  4
     file Zn.upf: wavefunction(s)  3D renormalized

     R & G space division:  proc/nbgrp/npool/nimage =       8
     Subspace diagonalization in iterative solution of the eigenvalue problem:
     a serial algorithm will be used


     Parallelization info
     --------------------
     sticks:   dense  smooth     PW     G-vecs:    dense   smooth      PW
     Min         149      74     22                 6327     2242     370
     Max         151      75     24                 6330     2249     372
     Sum        1201     595    187                50631    17955    2971

     Using Slab Decomposition



     bravais-lattice index     =            4
     lattice parameter (alat)  =       6.6113  a.u.
     unit-cell volume          =     375.7351 (a.u.)^3
     number of atoms/cell      =            4
     number of atomic types    =            2
     number of electrons       =        36.00
     number of Kohn-Sham states=           18
     kinetic-energy cutoff     =      50.0000  Ry
     charge density cutoff     =     400.0000  Ry
     scf convergence threshold =      1.0E-08
     mixing beta               =       0.3000
     number of iterations used =            8  plain     mixing
     Exchange-correlation= PBE
                           (   1   4   3   4   0   0   0)

     celldm(1)=   6.611339  celldm(2)=   0.000000  celldm(3)=   1.501353
     celldm(4)=   0.000000  celldm(5)=   0.000000  celldm(6)=   0.000000

     crystal axes: (cart. coord. in units of alat)
               a(1) = (   1.000000   0.000000   0.000000 )  
               a(2) = (  -0.500000   0.866025   0.000000 )  
               a(3) = (   0.000000   0.000000   1.501353 )  

     reciprocal axes: (cart. coord. in units 2 pi/alat)
               b(1) = (  1.000000  0.577350 -0.000000 )  
               b(2) = (  0.000000  1.154701  0.000000 )  
               b(3) = (  0.000000 -0.000000  0.666066 )  


     PseudoPot. # 1 for Zn read from file:
     /home/jvc/QEspresso7.2/ZnO_database/pseudos/Zn.upf
     MD5 check sum: 7f56cabf9682ed8c977c2f7d0c5985c5
     Pseudo is Ultrasoft + core correction, Zval = 12.0
     Generated using &quot;atomic&quot; code by A. Dal Corso  v.6.2.2
     Using radial grid of 1201 points,  6 beta functions with: 
                l(1) =   0
                l(2) =   0
                l(3) =   1
                l(4) =   1
                l(5) =   2
                l(6) =   2
     Q(r) pseudized with 0 coefficients 


     PseudoPot. # 2 for O  read from file:
     /home/jvc/QEspresso7.2/ZnO_database/pseudos/O.upf
     MD5 check sum: 91400c9766925bcf19f520983a725ff0
     Pseudo is Ultrasoft + core correction, Zval =  6.0
     Generated using &quot;atomic&quot; code by A. Dal Corso  v.6.3MaX
     Using radial grid of 1095 points,  4 beta functions with: 
                l(1) =   0
                l(2) =   0
                l(3) =   1
                l(4) =   1
     Q(r) pseudized with 0 coefficients 


     atomic species   valence    mass     pseudopotential
        Zn            12.00    63.38000     Zn( 1.00)
        O              6.00    15.99900     O ( 1.00)

     12 Sym. Ops. (no inversion) found ( 6 have fractional translation)



   Cartesian axes

     site n.     atom                  positions (alat units)
         1           Zn  tau(   1) = (   0.5000000   0.2886751   0.7516279  )
         2           Zn  tau(   2) = (  -0.0000000   0.5773503   0.0009512  )
         3           O   tau(   3) = (   0.5000000   0.2886751   1.3207051  )
         4           O   tau(   4) = (  -0.0000000   0.5773503   0.5700284  )

     number of k points=    28
                       cart. coord. in units 2pi/alat
        k(    1) = (   0.0000000   0.0000000   0.0000000), wk =   0.0092593
        k(    2) = (   0.0000000   0.0000000   0.1110110), wk =   0.0185185
        k(    3) = (   0.0000000   0.0000000   0.2220219), wk =   0.0185185
        k(    4) = (   0.0000000   0.0000000  -0.3330329), wk =   0.0092593
        k(    5) = (   0.0000000   0.1924501   0.0000000), wk =   0.0555556
        k(    6) = (   0.0000000   0.1924501   0.1110110), wk =   0.1111111
        k(    7) = (   0.0000000   0.1924501   0.2220219), wk =   0.1111111
        k(    8) = (   0.0000000   0.1924501  -0.3330329), wk =   0.0555556
        k(    9) = (   0.0000000   0.3849002   0.0000000), wk =   0.0555556
        k(   10) = (   0.0000000   0.3849002   0.1110110), wk =   0.1111111
        k(   11) = (   0.0000000   0.3849002   0.2220219), wk =   0.1111111
        k(   12) = (   0.0000000   0.3849002  -0.3330329), wk =   0.0555556
        k(   13) = (   0.0000000  -0.5773503   0.0000000), wk =   0.0277778
        k(   14) = (   0.0000000  -0.5773503   0.1110110), wk =   0.0555556
        k(   15) = (   0.0000000  -0.5773503   0.2220219), wk =   0.0555556
        k(   16) = (   0.0000000  -0.5773503  -0.3330329), wk =   0.0277778
        k(   17) = (   0.1666667   0.2886751   0.0000000), wk =   0.0555556
        k(   18) = (   0.1666667   0.2886751   0.1110110), wk =   0.1111111
        k(   19) = (   0.1666667   0.2886751   0.2220219), wk =   0.1111111
        k(   20) = (   0.1666667   0.2886751  -0.3330329), wk =   0.0555556
        k(   21) = (   0.1666667   0.4811252   0.0000000), wk =   0.1111111
        k(   22) = (   0.1666667   0.4811252   0.1110110), wk =   0.2222222
        k(   23) = (   0.1666667   0.4811252   0.2220219), wk =   0.2222222
        k(   24) = (   0.1666667   0.4811252  -0.3330329), wk =   0.1111111
        k(   25) = (   0.3333333   0.5773503   0.0000000), wk =   0.0185185
        k(   26) = (   0.3333333   0.5773503   0.1110110), wk =   0.0370370
        k(   27) = (   0.3333333   0.5773503   0.2220219), wk =   0.0370370
        k(   28) = (   0.3333333   0.5773503  -0.3330329), wk =   0.0185185

     Dense  grid:    50631 G-vectors     FFT dimensions: (  45,  45,  64)

     Smooth grid:    17955 G-vectors     FFT dimensions: (  30,  30,  48)

     Estimated max dynamical RAM per process >      28.98 MB

     Estimated total dynamical RAM >     231.87 MB

     Check: negative core charge=   -0.000002

     Initial potential from superposition of free atoms

     starting charge      35.9925, renormalised to      36.0000
     Starting wfcs are   26 randomized atomic wfcs

     total cpu time spent up to now is        1.6 secs

     Self-consistent Calculation

     iteration #  1     ecut=    50.00 Ry     beta= 0.30
     Davidson diagonalization with overlap
     ethr =  1.00E-02,  avg # of iterations =  1.5

     total cpu time spent up to now is        2.5 secs

     total energy              =    -361.43359519 Ry
     estimated scf accuracy    <       0.75489704 Ry

     iteration #  2     ecut=    50.00 Ry     beta= 0.30
     Davidson diagonalization with overlap
     ethr =  2.10E-03,  avg # of iterations =  2.2

     total cpu time spent up to now is        3.5 secs

     total energy              =    -361.55297181 Ry
     estimated scf accuracy    <       0.08303829 Ry

     iteration #  3     ecut=    50.00 Ry     beta= 0.30
     Davidson diagonalization with overlap
     ethr =  2.31E-04,  avg # of iterations =  6.4

     total cpu time spent up to now is        5.2 secs

     total energy              =    -361.57155128 Ry
     estimated scf accuracy    <       0.08081696 Ry

     iteration #  4     ecut=    50.00 Ry     beta= 0.30
     Davidson diagonalization with overlap
     ethr =  2.24E-04,  avg # of iterations =  8.6

     total cpu time spent up to now is        7.3 secs

     total energy              =    -361.63087974 Ry
     estimated scf accuracy    <       0.35337464 Ry

     iteration #  5     ecut=    50.00 Ry     beta= 0.30
     Davidson diagonalization with overlap
     ethr =  2.24E-04,  avg # of iterations =  2.0

     total cpu time spent up to now is        8.2 secs

     total energy              =    -361.47790443 Ry
     estimated scf accuracy    <       0.21430410 Ry

     iteration #  6     ecut=    50.00 Ry     beta= 0.30
     Davidson diagonalization with overlap
     ethr =  2.24E-04,  avg # of iterations =  8.0

     total cpu time spent up to now is       10.2 secs

     total energy              =    -361.59466805 Ry
     estimated scf accuracy    <       0.43569205 Ry

     iteration #  7     ecut=    50.00 Ry     beta= 0.30
     Davidson diagonalization with overlap
     ethr =  2.24E-04,  avg # of iterations =  4.9

     total cpu time spent up to now is       11.4 secs

     total energy              =    -361.62117690 Ry
     estimated scf accuracy    <       0.09052480 Ry

     iteration #  8     ecut=    50.00 Ry     beta= 0.30
     Davidson diagonalization with overlap
     ethr =  2.24E-04,  avg # of iterations =  1.5

     total cpu time spent up to now is       12.3 secs

     total energy              =    -361.62220643 Ry
     estimated scf accuracy    <       0.08481525 Ry

     iteration #  9     ecut=    50.00 Ry     beta= 0.30
     Davidson diagonalization with overlap
     ethr =  2.24E-04,  avg # of iterations =  1.3

     total cpu time spent up to now is       13.2 secs

     total energy              =    -361.61680357 Ry
     estimated scf accuracy    <       0.07644353 Ry

     iteration # 10     ecut=    50.00 Ry     beta= 0.30
     Davidson diagonalization with overlap
     ethr =  2.12E-04,  avg # of iterations =  1.1

     total cpu time spent up to now is       14.0 secs

     total energy              =    -361.60911059 Ry
     estimated scf accuracy    <       0.06102958 Ry

     iteration # 11     ecut=    50.00 Ry     beta= 0.30
     Davidson diagonalization with overlap
     ethr =  1.70E-04,  avg # of iterations =  1.8

     total cpu time spent up to now is       14.9 secs

     total energy              =    -361.61362191 Ry
     estimated scf accuracy    <       0.03150114 Ry

     iteration # 12     ecut=    50.00 Ry     beta= 0.30
     Davidson diagonalization with overlap
     ethr =  8.75E-05,  avg # of iterations =  1.4

     total cpu time spent up to now is       15.7 secs

     total energy              =    -361.61112607 Ry
     estimated scf accuracy    <       0.03462047 Ry

     iteration # 13     ecut=    50.00 Ry     beta= 0.30
     Davidson diagonalization with overlap
     ethr =  8.75E-05,  avg # of iterations =  1.5

     total cpu time spent up to now is       16.6 secs

     total energy              =    -361.59559422 Ry
     estimated scf accuracy    <       0.02544208 Ry

     iteration # 14     ecut=    50.00 Ry     beta= 0.30
     Davidson diagonalization with overlap
     ethr =  7.07E-05,  avg # of iterations =  6.6

     total cpu time spent up to now is       18.3 secs

     total energy              =    -361.60889465 Ry
     estimated scf accuracy    <       0.02658389 Ry

     iteration # 15     ecut=    50.00 Ry     beta= 0.30
     Davidson diagonalization with overlap
     ethr =  7.07E-05,  avg # of iterations =  2.0

     total cpu time spent up to now is       19.2 secs

     total energy              =    -361.60808615 Ry
     estimated scf accuracy    <       0.00866678 Ry

     iteration # 16     ecut=    50.00 Ry     beta= 0.30
     Davidson diagonalization with overlap
     ethr =  2.41E-05,  avg # of iterations =  4.2

     total cpu time spent up to now is       20.5 secs

     total energy              =    -361.61199071 Ry
     estimated scf accuracy    <       0.00015158 Ry

     iteration # 17     ecut=    50.00 Ry     beta= 0.30
     Davidson diagonalization with overlap
     ethr =  4.21E-07,  avg # of iterations = 12.4

     total cpu time spent up to now is       23.4 secs

     total energy              =    -361.61118765 Ry
     estimated scf accuracy    <       0.01073270 Ry

     iteration # 18     ecut=    50.00 Ry     beta= 0.30
     Davidson diagonalization with overlap
     ethr =  4.21E-07,  avg # of iterations = 10.6

     total cpu time spent up to now is       25.8 secs

     total energy              =    -361.61164009 Ry
     estimated scf accuracy    <       0.00135608 Ry

     iteration # 19     ecut=    50.00 Ry     beta= 0.30
     Davidson diagonalization with overlap
     ethr =  4.21E-07,  avg # of iterations =  5.5

     total cpu time spent up to now is       27.2 secs

     total energy              =    -361.61153776 Ry
     estimated scf accuracy    <       0.00028341 Ry

     iteration # 20     ecut=    50.00 Ry     beta= 0.30
     Davidson diagonalization with overlap
     ethr =  4.21E-07,  avg # of iterations =  8.1

     total cpu time spent up to now is       29.2 secs

     total energy              =    -361.61261644 Ry
     estimated scf accuracy    <       0.00044248 Ry

     iteration # 21     ecut=    50.00 Ry     beta= 0.30
     Davidson diagonalization with overlap
     ethr =  4.21E-07,  avg # of iterations =  9.7

     total cpu time spent up to now is       31.6 secs

     total energy              =    -361.61411567 Ry
     estimated scf accuracy    <       0.00643834 Ry

     iteration # 22     ecut=    50.00 Ry     beta= 0.30
     Davidson diagonalization with overlap
     ethr =  4.21E-07,  avg # of iterations =  5.5

     total cpu time spent up to now is       33.0 secs

     total energy              =    -361.61527695 Ry
     estimated scf accuracy    <       0.01026665 Ry

     iteration # 23     ecut=    50.00 Ry     beta= 0.30
     Davidson diagonalization with overlap
     ethr =  4.21E-07,  avg # of iterations =  5.5

     total cpu time spent up to now is       34.5 secs

     total energy              =    -361.61034810 Ry
     estimated scf accuracy    <       0.01516977 Ry

     iteration # 24     ecut=    50.00 Ry     beta= 0.30
     Davidson diagonalization with overlap
     ethr =  4.21E-07,  avg # of iterations = 11.9

     total cpu time spent up to now is       37.2 secs

     total energy              =    -361.61174285 Ry
     estimated scf accuracy    <       0.00085133 Ry

     iteration # 25     ecut=    50.00 Ry     beta= 0.30
     Davidson diagonalization with overlap
     ethr =  4.21E-07,  avg # of iterations =  1.9

     total cpu time spent up to now is       38.1 secs

     total energy              =    -361.61143731 Ry
     estimated scf accuracy    <       0.00057859 Ry

     iteration # 26     ecut=    50.00 Ry     beta= 0.30
     Davidson diagonalization with overlap
     ethr =  4.21E-07,  avg # of iterations =  8.6

     total cpu time spent up to now is       40.1 secs

     total energy              =    -361.61161410 Ry
     estimated scf accuracy    <       0.00020305 Ry

     iteration # 27     ecut=    50.00 Ry     beta= 0.30
     Davidson diagonalization with overlap
     ethr =  4.21E-07,  avg # of iterations =  4.9

     total cpu time spent up to now is       41.5 secs

     total energy              =    -361.61167607 Ry
     estimated scf accuracy    <       0.00003608 Ry

     iteration # 28     ecut=    50.00 Ry     beta= 0.30
     Davidson diagonalization with overlap
     ethr =  1.00E-07,  avg # of iterations =  2.1

     total cpu time spent up to now is       42.4 secs

     total energy              =    -361.61167459 Ry
     estimated scf accuracy    <       0.00001000 Ry

     iteration # 29     ecut=    50.00 Ry     beta= 0.30
     Davidson diagonalization with overlap
     ethr =  2.78E-08,  avg # of iterations =  5.7

     total cpu time spent up to now is       43.9 secs

     total energy              =    -361.61168133 Ry
     estimated scf accuracy    <       0.00000210 Ry

     iteration # 30     ecut=    50.00 Ry     beta= 0.30
     Davidson diagonalization with overlap
     ethr =  5.83E-09,  avg # of iterations =  2.3

     total cpu time spent up to now is       44.9 secs

     total energy              =    -361.61168079 Ry
     estimated scf accuracy    <       0.00000124 Ry

     iteration # 31     ecut=    50.00 Ry     beta= 0.30
     Davidson diagonalization with overlap
     ethr =  3.44E-09,  avg # of iterations =  4.5

     total cpu time spent up to now is       46.2 secs

     total energy              =    -361.61168132 Ry
     estimated scf accuracy    <       0.00000013 Ry

     iteration # 32     ecut=    50.00 Ry     beta= 0.30
     Davidson diagonalization with overlap
     ethr =  3.54E-10,  avg # of iterations =  4.7

     total cpu time spent up to now is       47.3 secs

     total energy              =    -361.61168126 Ry
     estimated scf accuracy    <       0.00000022 Ry

     iteration # 33     ecut=    50.00 Ry     beta= 0.30
     Davidson diagonalization with overlap
     ethr =  3.54E-10,  avg # of iterations =  2.2

     total cpu time spent up to now is       48.3 secs

     total energy              =    -361.61168125 Ry
     estimated scf accuracy    <       0.00000006 Ry

     iteration # 34     ecut=    50.00 Ry     beta= 0.30
     Davidson diagonalization with overlap
     ethr =  1.68E-10,  avg # of iterations =  6.3

     total cpu time spent up to now is       49.9 secs

     total energy              =    -361.61168132 Ry
     estimated scf accuracy    <       0.00000005 Ry

     iteration # 35     ecut=    50.00 Ry     beta= 0.30
     Davidson diagonalization with overlap
     ethr =  1.47E-10,  avg # of iterations =  1.2

     total cpu time spent up to now is       50.7 secs

     total energy              =    -361.61168129 Ry
     estimated scf accuracy    <       0.00000008 Ry

     iteration # 36     ecut=    50.00 Ry     beta= 0.30
     Davidson diagonalization with overlap
     ethr =  1.47E-10,  avg # of iterations =  1.1

     total cpu time spent up to now is       51.6 secs

     total energy              =    -361.61168129 Ry
     estimated scf accuracy    <       0.00000004 Ry

     iteration # 37     ecut=    50.00 Ry     beta= 0.30
     Davidson diagonalization with overlap
     ethr =  1.07E-10,  avg # of iterations =  1.2

     total cpu time spent up to now is       52.4 secs

     total energy              =    -361.61168128 Ry
     estimated scf accuracy    <       0.00000003 Ry

     iteration # 38     ecut=    50.00 Ry     beta= 0.30
     Davidson diagonalization with overlap
     ethr =  7.72E-11,  avg # of iterations =  4.8

     total cpu time spent up to now is       53.7 secs

     End of self-consistent calculation

          k = 0.0000 0.0000 0.0000 (  2261 PWs)   bands (ev):

   -11.8661 -11.2722   0.0357   0.0501   0.0501   0.2260   0.2260   0.6912
     0.7672   0.7672   0.9475   0.9475   1.1236   4.2937   4.2937   5.0751
     5.0751   5.1251

          k = 0.0000 0.0000 0.1110 (  2261 PWs)   bands (ev):

   -11.8273 -11.3128  -0.0019   0.0536   0.0536   0.2050   0.2050   0.3365
     0.7858   0.7858   0.9431   0.9431   1.6293   4.3487   4.3487   4.5329
     5.0256   5.0256

          k = 0.0000 0.0000 0.2220 (  2260 PWs)   bands (ev):

   -11.7204 -11.4232  -0.0762   0.0235   0.0691   0.0691   0.1555   0.1555
     0.8323   0.8323   0.9241   0.9241   2.3625   3.8112   4.4971   4.4971
     4.8881   4.8881

          k = 0.0000 0.0000-0.3330 (  2266 PWs)   bands (ev):

   -11.5727 -11.5727  -0.0983  -0.0983   0.1042   0.1042   0.1042   0.1042
     0.8847   0.8847   0.8847   0.8847   3.0988   3.0988   4.6953   4.6953
     4.6953   4.6953

          k = 0.0000 0.1925 0.0000 (  2259 PWs)   bands (ev):

   -11.7688 -11.2444  -0.0284   0.1005   0.1093   0.2333   0.3135   0.6877
     0.7356   0.7699   0.9588   1.1080   1.2115   3.5423   4.0047   4.0136
     4.9504   4.9630

          k = 0.0000 0.1925 0.1110 (  2253 PWs)   bands (ev):

   -11.7339 -11.2795  -0.0571   0.0962   0.1071   0.1953   0.2902   0.4117
     0.7644   0.7871   0.9512   0.9894   1.7358   3.5879   3.8716   4.0800
     4.8908   4.9273

          k = 0.0000 0.1925 0.2220 (  2253 PWs)   bands (ev):

   -11.6382 -11.3756  -0.1202  -0.0096   0.1238   0.1306   0.2163   0.2347
     0.8256   0.8309   0.9263   0.9477   2.3822   3.3737   3.9773   4.2583
     4.7198   4.7260

          k = 0.0000 0.1925-0.3330 (  2246 PWs)   bands (ev):

   -11.5070 -11.5070  -0.1304  -0.1304   0.1506   0.1506   0.1750   0.1750
     0.8832   0.8832   0.8933   0.8933   2.9343   2.9343   4.3513   4.3513
     4.4955   4.4955

          k = 0.0000 0.3849 0.0000 (  2245 PWs)   bands (ev):

   -11.5486 -11.2082  -0.0719   0.1753   0.1855   0.3510   0.5210   0.6160
     0.7942   0.8276   0.9750   1.1178   1.6681   2.3871   3.0591   3.4550
     4.4861   4.6750

          k = 0.0000 0.3849 0.1110 (  2249 PWs)   bands (ev):

   -11.5244 -11.2294  -0.1037   0.1268   0.1922   0.3223   0.4902   0.5033
     0.7907   0.8364   0.9623   1.0631   1.8215   2.5273   3.0861   3.5453
     4.5530   4.5986

          k = 0.0000 0.3849 0.2220 (  2252 PWs)   bands (ev):

   -11.4592 -11.2885  -0.1652  -0.0408   0.2417   0.2829   0.3591   0.4123
     0.8534   0.8608   0.9319   1.0003   2.0329   2.4642   3.5566   3.7828
     4.3873   4.5240

          k = 0.0000 0.3849-0.3330 (  2256 PWs)   bands (ev):

   -11.3723 -11.3723  -0.1656  -0.1656   0.2947   0.2947   0.3199   0.3199
     0.8951   0.8951   0.9309   0.9309   2.2497   2.2497   4.0913   4.0913
     4.1628   4.1628

          k = 0.0000-0.5774 0.0000 (  2228 PWs)   bands (ev):

   -11.4056 -11.2198  -0.0508   0.1965   0.3187   0.4704   0.5285   0.6440
     0.8253   0.8944   0.9815   1.0164   1.6585   2.1957   2.7397   3.1590
     4.0963   4.5271

          k = 0.0000-0.5774 0.1110 (  2236 PWs)   bands (ev):

   -11.3909 -11.2298  -0.0869   0.1836   0.2197   0.4534   0.5018   0.6079
     0.8800   0.8967   0.9647   1.0172   1.6169   2.0914   3.0481   3.2649
     4.2313   4.4430

          k = 0.0000-0.5774 0.2220 (  2242 PWs)   bands (ev):

   -11.3523 -11.2591  -0.1568  -0.0414   0.2869   0.4278   0.4551   0.5111
     0.9035   0.9361   0.9528   1.0136   1.6298   1.9000   3.5372   3.6570
     4.2103   4.3731

          k = 0.0000-0.5774-0.3330 (  2248 PWs)   bands (ev):

   -11.3033 -11.3033  -0.1658  -0.1658   0.3909   0.3909   0.4257   0.4257
     0.9157   0.9157   0.9955   0.9955   1.7353   1.7353   3.8828   3.8828
     4.1816   4.1816

          k = 0.1667 0.2887 0.0000 (  2253 PWs)   bands (ev):

   -11.6090 -11.2131  -0.0138   0.0901   0.1931   0.2871   0.4735   0.7086
     0.7125   0.7992   0.9708   1.1148   1.5738   2.9476   2.9483   3.5971
     4.6261   4.6458

          k = 0.1667 0.2887 0.1110 (  2249 PWs)   bands (ev):

   -11.5815 -11.2383  -0.0502   0.0786   0.1813   0.2618   0.4438   0.4951
     0.7461   0.8254   0.9605   1.0505   1.8707   2.9109   3.1344   3.5965
     4.5457   4.6914

          k = 0.1667 0.2887 0.2220 (  2251 PWs)   bands (ev):

   -11.5069 -11.3085  -0.1236  -0.0243   0.1798   0.2296   0.3028   0.3720
     0.8265   0.8558   0.9345   0.9906   2.2360   2.7513   3.6433   3.7391
     4.3275   4.6170

          k = 0.1667 0.2887-0.3330 (  2242 PWs)   bands (ev):

   -11.4066 -11.4066  -0.1351  -0.1351   0.2078   0.2078   0.2976   0.2976
     0.8859   0.8859   0.9253   0.9253   2.5151   2.5151   4.0113   4.0113
     4.2456   4.2456

          k = 0.1667 0.4811 0.0000 (  2233 PWs)   bands (ev):

   -11.4100 -11.2167   0.0135   0.1630   0.3694   0.3948   0.6226   0.6770
     0.7972   0.8311   0.9868   1.1121   1.7044   2.2174   2.7032   2.9926
     4.0956   4.2751

          k = 0.1667 0.4811 0.1110 (  2238 PWs)   bands (ev):

   -11.3949 -11.2273  -0.0095   0.1476   0.2729   0.3925   0.5483   0.6260
     0.7996   0.8709   0.9822   1.1042   1.7017   2.2077   2.7826   3.2460
     4.1396   4.2651

          k = 0.1667 0.4811 0.2220 (  2239 PWs)   bands (ev):

   -11.3550 -11.2580  -0.0771   0.0206   0.2405   0.3710   0.4585   0.5025
     0.8472   0.8859   0.9947   1.0737   1.7754   2.0734   3.0757   3.7687
     3.8995   4.4141

          k = 0.1667 0.4811-0.3330 (  2240 PWs)   bands (ev):

   -11.3042 -11.3042  -0.0926  -0.0926   0.3230   0.3230   0.4249   0.4249
     0.8773   0.8773   1.0315   1.0315   1.9114   1.9114   3.4730   3.4730
     4.2757   4.2757

          k = 0.3333 0.5774 0.0000 (  2190 PWs)   bands (ev):

   -11.2810 -11.2810   0.0375   0.2793   0.2793   0.7022   0.7022   0.7271
     0.8474   0.8585   0.9958   0.9958   1.8262   2.0093   2.0093   3.5365
     3.5365   3.9054

          k = 0.3333 0.5774 0.1110 (  2223 PWs)   bands (ev):

   -11.2783 -11.2783   0.0641   0.2143   0.2143   0.6385   0.6385   0.6743
     0.7933   0.8416   1.0499   1.0499   1.9421   1.9421   2.0240   3.7549
     3.7549   3.7762

          k = 0.3333 0.5774 0.2220 (  2247 PWs)   bands (ev):

   -11.2730 -11.2730   0.0761   0.0761   0.1460   0.4764   0.5707   0.5707
     0.7867   0.8259   1.1153   1.1153   1.8535   1.8535   2.4547   3.4290
     4.1457   4.1457

          k = 0.3333 0.5774-0.3330 (  2268 PWs)   bands (ev):

   -11.2704 -11.2704   0.0070   0.0070   0.2850   0.2850   0.5495   0.5495
     0.8050   0.8050   1.1386   1.1386   1.8226   1.8226   2.9556   2.9556
     4.3282   4.3282

     highest occupied level (ev):     5.1251

!    total energy              =    -361.61168129 Ry
     estimated scf accuracy    <          2.4E-09 Ry

     The total energy is the sum of the following terms:
     one-electron contribution =    -169.98804761 Ry
     hartree contribution      =     123.96711243 Ry
     xc contribution           =    -109.30589842 Ry
     ewald contribution        =    -206.28484769 Ry

     convergence has been achieved in  38 iterations

     Forces acting on atoms (cartesian axes, Ry/au):

     atom    1 type  1   force =     0.00000000    0.00000000   -0.01184367
     atom    2 type  1   force =     0.00000000    0.00000000   -0.01184367
     atom    3 type  2   force =     0.00000000   -0.00000000    0.01184367
     atom    4 type  2   force =     0.00000000    0.00000000    0.01184367
     The non-local contrib.  to forces
     atom    1 type  1   force =     0.00000000    0.00000000   -0.20204634
     atom    2 type  1   force =     0.00000000   -0.00000000   -0.20204634
     atom    3 type  2   force =     0.00000000   -0.00000000   -0.17149851
     atom    4 type  2   force =     0.00000000    0.00000000   -0.17149851
     The ionic contribution  to forces
     atom    1 type  1   force =    -0.00000000    0.00000000   -1.31205185
     atom    2 type  1   force =     0.00000000   -0.00000000   -1.31205185
     atom    3 type  2   force =    -0.00000000    0.00000000    1.31205185
     atom    4 type  2   force =     0.00000000   -0.00000000    1.31205185
     The local contribution  to forces
     atom    1 type  1   force =    -0.00000002    0.00000001    1.48880309
     atom    2 type  1   force =     0.00000007   -0.00000004    1.48880309
     atom    3 type  2   force =    -0.00000001    0.00000000   -1.13012111
     atom    4 type  2   force =     0.00000002   -0.00000001   -1.13012111
     The core correction contribution to forces
     atom    1 type  1   force =    -0.00000000    0.00000000    0.01345584
     atom    2 type  1   force =     0.00000001   -0.00000001    0.01345584
     atom    3 type  2   force =     0.00000000   -0.00000000    0.00140468
     atom    4 type  2   force =    -0.00000000    0.00000000    0.00140468
     The Hubbard contrib.    to forces
     atom    1 type  1   force =     0.00000000    0.00000000    0.00000000
     atom    2 type  1   force =     0.00000000    0.00000000    0.00000000
     atom    3 type  2   force =     0.00000000    0.00000000    0.00000000
     atom    4 type  2   force =     0.00000000    0.00000000    0.00000000
     The SCF correction term to forces
     atom    1 type  1   force =     0.00000000   -0.00000000   -0.00000992
     atom    2 type  1   force =    -0.00000000    0.00000000   -0.00000992
     atom    3 type  2   force =     0.00000000   -0.00000000    0.00000125
     atom    4 type  2   force =    -0.00000000    0.00000000    0.00000125

     Total force =     0.023687     Total SCF correction =     0.000014


     Computing stress (Cartesian axis) and pressure

          total   stress  (Ry/bohr**3)                   (kbar)     P=     -124.23
  -0.00106752   0.00000000   0.00000000         -157.04        0.00        0.00
   0.00000000  -0.00106752   0.00000000            0.00     -157.04        0.00
   0.00000000   0.00000000  -0.00039853            0.00        0.00      -58.63


     Writing all to output data dir ./ZnO_ANN.save/

     init_run     :      1.90s CPU      1.25s WALL (       1 calls)
     electrons    :    140.54s CPU     52.14s WALL (       1 calls)
     forces       :      0.71s CPU      0.35s WALL (       1 calls)
     stress       :      2.72s CPU      1.34s WALL (       1 calls)

     Called by init_run:
     wfcinit      :      1.06s CPU      0.41s WALL (       1 calls)
     potinit      :      0.27s CPU      0.28s WALL (       1 calls)
     hinit0       :      0.40s CPU      0.42s WALL (       1 calls)

     Called by electrons:
     c_bands      :    115.06s CPU     42.13s WALL (      38 calls)
     sum_band     :     18.62s CPU      7.25s WALL (      38 calls)
     v_of_rho     :      1.51s CPU      0.66s WALL (      39 calls)
     newd         :      4.99s CPU      1.98s WALL (      39 calls)
     mix_rho      :      0.25s CPU      0.11s WALL (      38 calls)

     Called by c_bands:
     init_us_2    :      1.86s CPU      0.66s WALL (    2212 calls)
     init_us_2:cp :      1.83s CPU      0.65s WALL (    2212 calls)
     cegterg      :    110.94s CPU     40.55s WALL (    1064 calls)

     Called by *egterg:
     cdiaghg      :     17.86s CPU      5.77s WALL (    5985 calls)
     h_psi        :     74.31s CPU     30.23s WALL (    6013 calls)
     s_psi        :      1.83s CPU      0.53s WALL (    6013 calls)
     g_psi        :      0.65s CPU      0.16s WALL (    4921 calls)

     Called by h_psi:
     h_psi:calbec :      2.73s CPU      0.96s WALL (    6013 calls)
     vloc_psi     :     69.06s CPU     28.47s WALL (    6013 calls)
     add_vuspsi   :      1.82s CPU      0.59s WALL (    6013 calls)

     General routines
     calbec       :      3.44s CPU      1.21s WALL (    7217 calls)
     fft          :      0.99s CPU      0.50s WALL (     530 calls)
     ffts         :      0.19s CPU      0.15s WALL (      77 calls)
     fftw         :     68.64s CPU     28.39s WALL (  155138 calls)
     interpolate  :      0.22s CPU      0.17s WALL (      39 calls)

     Parallel routines

     PWSCF        :   2m26.42s CPU     55.57s WALL


   This run was terminated on:  19: 4:28  13Jun2025            

=------------------------------------------------------------------------------=
   JOB DONE.
=------------------------------------------------------------------------------=
Note: The following floating-point exceptions are signalling: IEEE_INVALID_FLAG
