Authorization required, but no authorization protocol specified

Authorization required, but no authorization protocol specified

Authorization required, but no authorization protocol specified

Authorization required, but no authorization protocol specified

Authorization required, but no authorization protocol specified

Authorization required, but no authorization protocol specified

Authorization required, but no authorization protocol specified

Authorization required, but no authorization protocol specified

Authorization required, but no authorization protocol specified

Authorization required, but no authorization protocol specified


     Program PWSCF v.7.2 starts on 13Jun2025 at 15:56:49 

     This program is part of the open-source Quantum ESPRESSO suite
     for quantum simulation of materials; please cite
         "P. Giannozzi et al., J. Phys.:Condens. Matter 21 395502 (2009);
         "P. Giannozzi et al., J. Phys.:Condens. Matter 29 465901 (2017);
         "P. Giannozzi et al., J. Chem. Phys. 152 154105 (2020);
          URL http://www.quantum-espresso.org", 
     in publications or presentations arising from this work. More details at
     http://www.quantum-espresso.org/quote

     Parallel version (MPI), running on     8 processors

     MPI processes distributed on     1 nodes
     120719 MiB available memory on the printing compute node when the environment starts

     Reading input from /home/jvc/QEspresso7.2/ZnO_database_python/SCFs.in/scf-5.81-1.65.in

     Current dimensions of program PWSCF are:
     Max number of different atomic species (ntypx) = 10
     Max number of k-points (npk) =  40000
     Max angular momentum in pseudopotentials (lmaxx) =  4
     file Zn.upf: wavefunction(s)  3D renormalized

     R & G space division:  proc/nbgrp/npool/nimage =       8
     Subspace diagonalization in iterative solution of the eigenvalue problem:
     a serial algorithm will be used


     Parallelization info
     --------------------
     sticks:   dense  smooth     PW     G-vecs:    dense   smooth      PW
     Min         116      57     18                 4718     1661     286
     Max         118      58     20                 4720     1666     289
     Sum         931     463    151                37747    13321    2297

     Using Slab Decomposition



     bravais-lattice index     =            4
     lattice parameter (alat)  =       5.8081  a.u.
     unit-cell volume          =     279.4031 (a.u.)^3
     number of atoms/cell      =            4
     number of atomic types    =            2
     number of electrons       =        36.00
     number of Kohn-Sham states=           18
     kinetic-energy cutoff     =      50.0000  Ry
     charge density cutoff     =     400.0000  Ry
     scf convergence threshold =      1.0E-08
     mixing beta               =       0.3000
     number of iterations used =            8  plain     mixing
     Exchange-correlation= PBE
                           (   1   4   3   4   0   0   0)

     celldm(1)=   5.808092  celldm(2)=   0.000000  celldm(3)=   1.646646
     celldm(4)=   0.000000  celldm(5)=   0.000000  celldm(6)=   0.000000

     crystal axes: (cart. coord. in units of alat)
               a(1) = (   1.000000   0.000000   0.000000 )  
               a(2) = (  -0.500000   0.866025   0.000000 )  
               a(3) = (   0.000000   0.000000   1.646646 )  

     reciprocal axes: (cart. coord. in units 2 pi/alat)
               b(1) = (  1.000000  0.577350 -0.000000 )  
               b(2) = (  0.000000  1.154701  0.000000 )  
               b(3) = (  0.000000 -0.000000  0.607295 )  


     PseudoPot. # 1 for Zn read from file:
     /home/jvc/QEspresso7.2/ZnO_database/pseudos/Zn.upf
     MD5 check sum: 7f56cabf9682ed8c977c2f7d0c5985c5
     Pseudo is Ultrasoft + core correction, Zval = 12.0
     Generated using &quot;atomic&quot; code by A. Dal Corso  v.6.2.2
     Using radial grid of 1201 points,  6 beta functions with: 
                l(1) =   0
                l(2) =   0
                l(3) =   1
                l(4) =   1
                l(5) =   2
                l(6) =   2
     Q(r) pseudized with 0 coefficients 


     PseudoPot. # 2 for O  read from file:
     /home/jvc/QEspresso7.2/ZnO_database/pseudos/O.upf
     MD5 check sum: 91400c9766925bcf19f520983a725ff0
     Pseudo is Ultrasoft + core correction, Zval =  6.0
     Generated using &quot;atomic&quot; code by A. Dal Corso  v.6.3MaX
     Using radial grid of 1095 points,  4 beta functions with: 
                l(1) =   0
                l(2) =   0
                l(3) =   1
                l(4) =   1
     Q(r) pseudized with 0 coefficients 


     atomic species   valence    mass     pseudopotential
        Zn            12.00    63.38000     Zn( 1.00)
        O              6.00    15.99900     O ( 1.00)

     12 Sym. Ops. (no inversion) found ( 6 have fractional translation)



   Cartesian axes

     site n.     atom                  positions (alat units)
         1           Zn  tau(   1) = (   0.5000000   0.2886751   0.8243661  )
         2           Zn  tau(   2) = (  -0.0000000   0.5773503   0.0010433  )
         3           O   tau(   3) = (   0.5000000   0.2886751   1.4485152  )
         4           O   tau(   4) = (  -0.0000000   0.5773503   0.6251925  )

     number of k points=    28
                       cart. coord. in units 2pi/alat
        k(    1) = (   0.0000000   0.0000000   0.0000000), wk =   0.0092593
        k(    2) = (   0.0000000   0.0000000   0.1012159), wk =   0.0185185
        k(    3) = (   0.0000000   0.0000000   0.2024317), wk =   0.0185185
        k(    4) = (   0.0000000   0.0000000  -0.3036476), wk =   0.0092593
        k(    5) = (   0.0000000   0.1924501   0.0000000), wk =   0.0555556
        k(    6) = (   0.0000000   0.1924501   0.1012159), wk =   0.1111111
        k(    7) = (   0.0000000   0.1924501   0.2024317), wk =   0.1111111
        k(    8) = (   0.0000000   0.1924501  -0.3036476), wk =   0.0555556
        k(    9) = (   0.0000000   0.3849002   0.0000000), wk =   0.0555556
        k(   10) = (   0.0000000   0.3849002   0.1012159), wk =   0.1111111
        k(   11) = (   0.0000000   0.3849002   0.2024317), wk =   0.1111111
        k(   12) = (   0.0000000   0.3849002  -0.3036476), wk =   0.0555556
        k(   13) = (   0.0000000  -0.5773503   0.0000000), wk =   0.0277778
        k(   14) = (   0.0000000  -0.5773503   0.1012159), wk =   0.0555556
        k(   15) = (   0.0000000  -0.5773503   0.2024317), wk =   0.0555556
        k(   16) = (   0.0000000  -0.5773503  -0.3036476), wk =   0.0277778
        k(   17) = (   0.1666667   0.2886751   0.0000000), wk =   0.0555556
        k(   18) = (   0.1666667   0.2886751   0.1012159), wk =   0.1111111
        k(   19) = (   0.1666667   0.2886751   0.2024317), wk =   0.1111111
        k(   20) = (   0.1666667   0.2886751  -0.3036476), wk =   0.0555556
        k(   21) = (   0.1666667   0.4811252   0.0000000), wk =   0.1111111
        k(   22) = (   0.1666667   0.4811252   0.1012159), wk =   0.2222222
        k(   23) = (   0.1666667   0.4811252   0.2024317), wk =   0.2222222
        k(   24) = (   0.1666667   0.4811252  -0.3036476), wk =   0.1111111
        k(   25) = (   0.3333333   0.5773503   0.0000000), wk =   0.0185185
        k(   26) = (   0.3333333   0.5773503   0.1012159), wk =   0.0370370
        k(   27) = (   0.3333333   0.5773503   0.2024317), wk =   0.0370370
        k(   28) = (   0.3333333   0.5773503  -0.3036476), wk =   0.0185185

     Dense  grid:    37747 G-vectors     FFT dimensions: (  40,  40,  64)

     Smooth grid:    13321 G-vectors     FFT dimensions: (  27,  27,  48)

     Estimated max dynamical RAM per process >      22.47 MB

     Estimated total dynamical RAM >     179.74 MB

     Check: negative core charge=   -0.000002

     Initial potential from superposition of free atoms

     starting charge      35.9925, renormalised to      36.0000
     Starting wfcs are   26 randomized atomic wfcs

     total cpu time spent up to now is        1.4 secs

     Self-consistent Calculation

     iteration #  1     ecut=    50.00 Ry     beta= 0.30
     Davidson diagonalization with overlap
     ethr =  1.00E-02,  avg # of iterations =  2.0

     total cpu time spent up to now is        2.2 secs

     total energy              =    -361.44344767 Ry
     estimated scf accuracy    <       0.67286235 Ry

     iteration #  2     ecut=    50.00 Ry     beta= 0.30
     Davidson diagonalization with overlap
     ethr =  1.87E-03,  avg # of iterations =  2.0

     total cpu time spent up to now is        3.2 secs

     total energy              =    -361.50117649 Ry
     estimated scf accuracy    <       0.11997979 Ry

     iteration #  3     ecut=    50.00 Ry     beta= 0.30
     Davidson diagonalization with overlap
     ethr =  3.33E-04,  avg # of iterations =  6.2

     total cpu time spent up to now is        4.7 secs

     total energy              =    -361.56287877 Ry
     estimated scf accuracy    <       0.08645082 Ry

     iteration #  4     ecut=    50.00 Ry     beta= 0.30
     Davidson diagonalization with overlap
     ethr =  2.40E-04,  avg # of iterations =  2.1

     total cpu time spent up to now is        5.6 secs

     total energy              =    -361.58674679 Ry
     estimated scf accuracy    <       0.01234416 Ry

     iteration #  5     ecut=    50.00 Ry     beta= 0.30
     Davidson diagonalization with overlap
     ethr =  3.43E-05,  avg # of iterations = 10.6

     total cpu time spent up to now is        8.1 secs

     total energy              =    -361.68454029 Ry
     estimated scf accuracy    <       0.60844460 Ry

     iteration #  6     ecut=    50.00 Ry     beta= 0.30
     Davidson diagonalization with overlap
     ethr =  3.43E-05,  avg # of iterations =  4.9

     total cpu time spent up to now is        9.3 secs

     total energy              =    -361.59778887 Ry
     estimated scf accuracy    <       0.40255361 Ry

     iteration #  7     ecut=    50.00 Ry     beta= 0.30
     Davidson diagonalization with overlap
     ethr =  3.43E-05,  avg # of iterations =  7.0

     total cpu time spent up to now is       11.0 secs

     total energy              =    -361.54105392 Ry
     estimated scf accuracy    <       0.11943737 Ry

     iteration #  8     ecut=    50.00 Ry     beta= 0.30
     Davidson diagonalization with overlap
     ethr =  3.43E-05,  avg # of iterations =  9.0

     total cpu time spent up to now is       13.1 secs

     total energy              =    -361.59328622 Ry
     estimated scf accuracy    <       0.03076778 Ry

     iteration #  9     ecut=    50.00 Ry     beta= 0.30
     Davidson diagonalization with overlap
     ethr =  3.43E-05,  avg # of iterations =  1.2

     total cpu time spent up to now is       13.8 secs

     total energy              =    -361.58929195 Ry
     estimated scf accuracy    <       0.03309443 Ry

     iteration # 10     ecut=    50.00 Ry     beta= 0.30
     Davidson diagonalization with overlap
     ethr =  3.43E-05,  avg # of iterations =  1.0

     total cpu time spent up to now is       14.6 secs

     total energy              =    -361.57952936 Ry
     estimated scf accuracy    <       0.02521170 Ry

     iteration # 11     ecut=    50.00 Ry     beta= 0.30
     Davidson diagonalization with overlap
     ethr =  3.43E-05,  avg # of iterations =  4.1

     total cpu time spent up to now is       15.6 secs

     total energy              =    -361.58189882 Ry
     estimated scf accuracy    <       0.00304119 Ry

     iteration # 12     ecut=    50.00 Ry     beta= 0.30
     Davidson diagonalization with overlap
     ethr =  8.45E-06,  avg # of iterations =  4.9

     total cpu time spent up to now is       16.8 secs

     total energy              =    -361.58375001 Ry
     estimated scf accuracy    <       0.00000682 Ry

     iteration # 13     ecut=    50.00 Ry     beta= 0.30
     Davidson diagonalization with overlap
     ethr =  1.90E-08,  avg # of iterations = 11.2

     total cpu time spent up to now is       19.1 secs

     total energy              =    -361.58382745 Ry
     estimated scf accuracy    <       0.00000334 Ry

     iteration # 14     ecut=    50.00 Ry     beta= 0.30
     Davidson diagonalization with overlap
     ethr =  9.27E-09,  avg # of iterations =  2.3

     total cpu time spent up to now is       20.1 secs

     total energy              =    -361.58383331 Ry
     estimated scf accuracy    <       0.00000291 Ry

     iteration # 15     ecut=    50.00 Ry     beta= 0.30
     Davidson diagonalization with overlap
     ethr =  8.08E-09,  avg # of iterations = 10.9

     total cpu time spent up to now is       22.5 secs

     total energy              =    -361.58384904 Ry
     estimated scf accuracy    <       0.00013187 Ry

     iteration # 16     ecut=    50.00 Ry     beta= 0.30
     Davidson diagonalization with overlap
     ethr =  8.08E-09,  avg # of iterations =  4.1

     total cpu time spent up to now is       23.7 secs

     total energy              =    -361.58383456 Ry
     estimated scf accuracy    <       0.00008982 Ry

     iteration # 17     ecut=    50.00 Ry     beta= 0.30
     Davidson diagonalization with overlap
     ethr =  8.08E-09,  avg # of iterations =  5.9

     total cpu time spent up to now is       25.2 secs

     total energy              =    -361.58382851 Ry
     estimated scf accuracy    <       0.00003891 Ry

     iteration # 18     ecut=    50.00 Ry     beta= 0.30
     Davidson diagonalization with overlap
     ethr =  8.08E-09,  avg # of iterations =  5.2

     total cpu time spent up to now is       26.5 secs

     total energy              =    -361.58382384 Ry
     estimated scf accuracy    <       0.00001373 Ry

     iteration # 19     ecut=    50.00 Ry     beta= 0.30
     Davidson diagonalization with overlap
     ethr =  8.08E-09,  avg # of iterations =  6.8

     total cpu time spent up to now is       28.1 secs

     total energy              =    -361.58382741 Ry
     estimated scf accuracy    <       0.00000002 Ry

     iteration # 20     ecut=    50.00 Ry     beta= 0.30
     Davidson diagonalization with overlap
     ethr =  5.08E-11,  avg # of iterations = 13.6

     total cpu time spent up to now is       31.2 secs

     total energy              =    -361.58382776 Ry
     estimated scf accuracy    <       0.00000431 Ry

     iteration # 21     ecut=    50.00 Ry     beta= 0.30
     Davidson diagonalization with overlap
     ethr =  5.08E-11,  avg # of iterations =  7.8

     total cpu time spent up to now is       33.0 secs

     total energy              =    -361.58382650 Ry
     estimated scf accuracy    <       0.00000277 Ry

     iteration # 22     ecut=    50.00 Ry     beta= 0.30
     Davidson diagonalization with overlap
     c_bands:  1 eigenvalues not converged
     ethr =  5.08E-11,  avg # of iterations = 12.9

     total cpu time spent up to now is       35.9 secs

     End of self-consistent calculation

          k = 0.0000 0.0000 0.0000 (  1689 PWs)   bands (ev):

    -9.7851  -8.8690   2.6708   3.0388   3.0388   3.1074   3.2660   3.2660
     4.7161   4.7161   4.9878   4.9878   5.3444   8.6844   8.6844   9.3915
     9.5948   9.5948

          k = 0.0000 0.0000 0.1012 (  1695 PWs)   bands (ev):

    -9.7279  -8.9349   2.6302   3.0335   3.0474   3.0474   3.2435   3.2435
     4.7399   4.7399   4.9767   4.9767   5.6212   8.7456   8.7456   8.8568
     9.5344   9.5344

          k = 0.0000 0.0000 0.2024 (  1672 PWs)   bands (ev):

    -9.5688  -9.1114   2.6015   2.8580   3.0759   3.0759   3.1884   3.1884
     4.8023   4.8023   4.9403   4.9403   6.3031   8.0254   8.9130   8.9130
     9.3689   9.3689

          k = 0.0000 0.0000-0.3036 (  1702 PWs)   bands (ev):

    -9.3445  -9.3445   2.6828   2.6828   3.1255   3.1255   3.1255   3.1255
     4.8770   4.8770   4.8770   4.8770   7.1535   7.1535   9.1414   9.1414
     9.1414   9.1414

          k = 0.0000 0.1925 0.0000 (  1687 PWs)   bands (ev):

    -9.5886  -8.7771   2.7695   2.9949   3.1434   3.1633   3.2837   3.4169
     4.6240   4.7114   5.0024   5.0745   5.3105   7.6700   8.2717   8.4730
     9.1817   9.3558

          k = 0.0000 0.1925 0.1012 (  1678 PWs)   bands (ev):

    -9.5368  -8.8340   2.7118   2.8527   3.1555   3.1899   3.2850   3.3914
     4.6640   4.7348   4.9874   5.0353   5.6379   7.7358   8.2956   8.3464
     9.0876   9.2849

          k = 0.0000 0.1925 0.2024 (  1672 PWs)   bands (ev):

    -9.3935  -8.9877   2.5964   2.6870   3.1925   3.1938   3.2617   3.3275
     4.7598   4.7956   4.9420   4.9677   6.3598   7.7361   8.0666   8.5488
     8.7755   9.0902

          k = 0.0000 0.1925-0.3036 (  1676 PWs)   bands (ev):

    -9.1932  -9.1932   2.5820   2.5820   3.2197   3.2197   3.2534   3.2534
     4.8712   4.8712   4.8727   4.8727   7.1438   7.1438   8.3643   8.3643
     8.8214   8.8214

          k = 0.0000 0.3849 0.0000 (  1669 PWs)   bands (ev):

    -9.1438  -8.6169   2.5158   2.9595   3.3170   3.4869   3.7696   3.7842
     4.5351   4.8133   5.0311   5.0643   5.4860   6.0382   7.1548   7.4090
     8.5432   8.8280

          k = 0.0000 0.3849 0.1012 (  1671 PWs)   bands (ev):

    -9.1076  -8.6509   2.4763   2.8108   3.3409   3.4703   3.6903   3.7433
     4.6031   4.8263   5.0128   5.1111   5.6905   6.1699   7.0901   7.5142
     8.5466   8.7386

          k = 0.0000 0.3849 0.2024 (  1669 PWs)   bands (ev):

    -9.0092  -8.7450   2.4037   2.5528   3.4107   3.4627   3.5797   3.6406
     4.7471   4.8624   4.9681   5.0412   6.0606   6.4361   7.1974   7.7903
     8.3679   8.4925

          k = 0.0000 0.3849-0.3036 (  1662 PWs)   bands (ev):

    -8.8760  -8.8760   2.4045   2.4045   3.4996   3.4996   3.5177   3.5177
     4.9047   4.9047   4.9135   4.9135   6.3240   6.3240   7.8335   7.8335
     8.1484   8.1484

          k = 0.0000-0.5774 0.0000 (  1650 PWs)   bands (ev):

    -8.8604  -8.5820   2.6270   2.6976   3.3754   3.7082   3.8724   4.0196
     4.7331   4.9507   5.0573   5.1542   5.4779   5.6303   6.3331   6.9104
     8.0217   8.5313

          k = 0.0000-0.5774 0.1012 (  1648 PWs)   bands (ev):

    -8.8389  -8.5975   2.5601   2.6009   3.4080   3.6802   3.8323   3.9617
     4.8162   4.9541   5.0409   5.1527   5.4781   5.5718   6.6282   7.0399
     8.0937   8.4330

          k = 0.0000-0.5774 0.2024 (  1662 PWs)   bands (ev):

    -8.7822  -8.6424   2.4253   2.4287   3.5025   3.6621   3.7540   3.8174
     4.9578   4.9643   5.0089   5.1315   5.4774   5.5093   7.2555   7.3675
     8.1312   8.1609

          k = 0.0000-0.5774-0.3036 (  1660 PWs)   bands (ev):

    -8.7094  -8.7094   2.3549   2.3549   3.6479   3.6479   3.6898   3.6898
     4.9822   4.9822   5.0683   5.0683   5.4832   5.4832   7.7768   7.7768
     7.8497   7.8497

          k = 0.1667 0.2887 0.0000 (  1683 PWs)   bands (ev):

    -9.2659  -8.6514   2.6815   2.9441   3.3168   3.3328   3.5679   3.7027
     4.5437   4.7320   5.0190   5.1173   5.4332   6.6851   7.1201   7.6640
     8.7831   8.7932

          k = 0.1667 0.2887 0.1012 (  1672 PWs)   bands (ev):

    -9.2247  -8.6922   2.6357   2.8254   3.2961   3.3025   3.5368   3.6702
     4.6008   4.7756   5.0023   5.1173   5.7223   6.7958   7.1400   7.6310
     8.6989   8.7500

          k = 0.1667 0.2887 0.2024 (  1669 PWs)   bands (ev):

    -9.1122  -8.8043   2.5396   2.6038   3.2869   3.2883   3.5031   3.5928
     4.7361   4.8351   4.9583   5.0336   6.3215   7.0325   7.1853   7.7433
     8.4464   8.4993

          k = 0.1667 0.2887-0.3036 (  1676 PWs)   bands (ev):

    -8.9582  -8.9582   2.4992   2.4992   3.2904   3.2904   3.5199   3.5199
     4.8798   4.8798   4.9125   4.9125   6.7531   6.7531   7.8135   7.8135
     8.1548   8.1548

          k = 0.1667 0.4811 0.0000 (  1663 PWs)   bands (ev):

    -8.8728  -8.5762   2.7427   2.9807   3.3314   3.5825   3.9373   4.0149
     4.6256   4.7450   5.0723   5.1903   5.4203   5.9940   6.2310   6.6738
     7.9569   8.2286

          k = 0.1667 0.4811 0.1012 (  1660 PWs)   bands (ev):

    -8.8503  -8.5931   2.6895   2.8755   3.3212   3.5462   3.8676   3.9423
     4.6593   4.8582   5.0660   5.2881   5.3693   6.0507   6.3471   6.8292
     7.9403   8.2061

          k = 0.1667 0.4811 0.2024 (  1663 PWs)   bands (ev):

    -8.7905  -8.6416   2.5800   2.6639   3.3428   3.4854   3.7867   3.8284
     4.7794   4.9086   5.0732   5.2348   5.5459   5.9562   6.7427   7.2674
     7.7307   8.1933

          k = 0.1667 0.4811-0.3036 (  1666 PWs)   bands (ev):

    -8.7132  -8.7132   2.5444   2.5444   3.4127   3.4127   3.7674   3.7674
     4.8789   4.8789   5.1289   5.1289   5.7716   5.7716   7.1827   7.1827
     7.9397   7.9397

          k = 0.3333 0.5774 0.0000 (  1668 PWs)   bands (ev):

    -8.6472  -8.6472   2.9152   3.4236   3.4236   3.5495   4.1554   4.1554
     4.5723   4.7149   4.7149   4.7701   5.4568   5.8472   5.8472   7.3146
     7.3146   7.4398

          k = 0.3333 0.5774 0.1012 (  1668 PWs)   bands (ev):

    -8.6436  -8.6436   2.9418   3.2750   3.2750   3.4759   4.0828   4.0828
     4.5941   4.7595   4.9165   4.9165   5.5958   5.7909   5.7909   7.2979
     7.4760   7.4760

          k = 0.3333 0.5774 0.2024 (  1656 PWs)   bands (ev):

    -8.6364  -8.6364   3.0217   3.0223   3.0223   3.3155   4.0261   4.0261
     4.6394   4.7301   5.2174   5.2174   5.6589   5.6589   5.9593   6.9255
     7.7957   7.7957

          k = 0.3333 0.5774-0.3036 (  1662 PWs)   bands (ev):

    -8.6328  -8.6328   2.9128   2.9128   3.1506   3.1506   4.0107   4.0107
     4.6877   4.6877   5.4138   5.4138   5.5214   5.5214   6.4391   6.4391
     7.9561   7.9561

     highest occupied level (ev):     9.5948

!    total energy              =    -361.58382704 Ry
     estimated scf accuracy    <          3.3E-09 Ry

     The total energy is the sum of the following terms:
     one-electron contribution =    -135.02913870 Ry
     hartree contribution      =     111.49453490 Ry
     xc contribution           =    -109.91970168 Ry
     ewald contribution        =    -228.12952156 Ry

     convergence has been achieved in  22 iterations

     Forces acting on atoms (cartesian axes, Ry/au):

     atom    1 type  1   force =     0.00000000    0.00000000    0.01411041
     atom    2 type  1   force =    -0.00000000   -0.00000000    0.01411041
     atom    3 type  2   force =    -0.00000000   -0.00000000   -0.01411041
     atom    4 type  2   force =     0.00000000   -0.00000000   -0.01411041
     The non-local contrib.  to forces
     atom    1 type  1   force =     0.00000000    0.00000000    0.05522665
     atom    2 type  1   force =     0.00000000    0.00000000    0.05522665
     atom    3 type  2   force =     0.00000000    0.00000000    0.04824538
     atom    4 type  2   force =     0.00000000   -0.00000000    0.04824538
     The ionic contribution  to forces
     atom    1 type  1   force =    -0.00000000    0.00000000    0.52630739
     atom    2 type  1   force =     0.00000000   -0.00000000    0.52630739
     atom    3 type  2   force =    -0.00000000    0.00000000   -0.52630739
     atom    4 type  2   force =     0.00000000   -0.00000000   -0.52630739
     The local contribution  to forces
     atom    1 type  1   force =    -0.00000002    0.00000001   -0.56301203
     atom    2 type  1   force =     0.00000006   -0.00000003   -0.56301202
     atom    3 type  2   force =    -0.00000001    0.00000000    0.46429692
     atom    4 type  2   force =     0.00000002   -0.00000001    0.46429691
     The core correction contribution to forces
     atom    1 type  1   force =    -0.00000000    0.00000000   -0.00441907
     atom    2 type  1   force =     0.00000001   -0.00000000   -0.00441907
     atom    3 type  2   force =     0.00000000   -0.00000000   -0.00034233
     atom    4 type  2   force =    -0.00000000    0.00000000   -0.00034233
     The Hubbard contrib.    to forces
     atom    1 type  1   force =     0.00000000    0.00000000    0.00000000
     atom    2 type  1   force =     0.00000000    0.00000000    0.00000000
     atom    3 type  2   force =     0.00000000    0.00000000    0.00000000
     atom    4 type  2   force =     0.00000000    0.00000000    0.00000000
     The SCF correction term to forces
     atom    1 type  1   force =    -0.00000000    0.00000000    0.00001171
     atom    2 type  1   force =     0.00000000   -0.00000000    0.00001171
     atom    3 type  2   force =    -0.00000000    0.00000000    0.00000126
     atom    4 type  2   force =     0.00000000   -0.00000000    0.00000126

     Total force =     0.028221     Total SCF correction =     0.000017


     Computing stress (Cartesian axis) and pressure

          total   stress  (Ry/bohr**3)                   (kbar)     P=      320.82
   0.00235393   0.00000000   0.00000000          346.27        0.00        0.00
   0.00000000   0.00235393   0.00000000            0.00      346.27        0.00
   0.00000000   0.00000000   0.00183481            0.00        0.00      269.91


     Writing all to output data dir ./ZnO_ANN.save/

     init_run     :      1.68s CPU      1.11s WALL (       1 calls)
     electrons    :     91.06s CPU     34.48s WALL (       1 calls)
     forces       :      0.61s CPU      0.27s WALL (       1 calls)
     stress       :      2.09s CPU      1.12s WALL (       1 calls)

     Called by init_run:
     wfcinit      :      0.95s CPU      0.37s WALL (       1 calls)
     potinit      :      0.21s CPU      0.21s WALL (       1 calls)
     hinit0       :      0.43s CPU      0.43s WALL (       1 calls)

     Called by electrons:
     c_bands      :     79.15s CPU     29.67s WALL (      22 calls)
     sum_band     :      8.92s CPU      3.58s WALL (      22 calls)
     v_of_rho     :      0.69s CPU      0.31s WALL (      23 calls)
     newd         :      2.14s CPU      0.88s WALL (      23 calls)
     mix_rho      :      0.11s CPU      0.05s WALL (      22 calls)

     Called by c_bands:
     init_us_2    :      0.80s CPU      0.29s WALL (    1316 calls)
     init_us_2:cp :      0.79s CPU      0.28s WALL (    1316 calls)
     cegterg      :     77.43s CPU     28.99s WALL (     616 calls)

     Called by *egterg:
     cdiaghg      :     12.86s CPU      4.32s WALL (    4415 calls)
     h_psi        :     53.17s CPU     21.64s WALL (    4443 calls)
     s_psi        :      1.13s CPU      0.35s WALL (    4443 calls)
     g_psi        :      0.40s CPU      0.10s WALL (    3799 calls)

     Called by h_psi:
     h_psi:calbec :      1.67s CPU      0.63s WALL (    4443 calls)
     vloc_psi     :     49.96s CPU     20.50s WALL (    4443 calls)
     add_vuspsi   :      1.10s CPU      0.37s WALL (    4443 calls)

     General routines
     calbec       :      2.02s CPU      0.75s WALL (    5199 calls)
     fft          :      0.59s CPU      0.36s WALL (     322 calls)
     ffts         :      0.13s CPU      0.11s WALL (      45 calls)
     fftw         :     49.01s CPU     20.17s WALL (  116972 calls)
     interpolate  :      0.15s CPU      0.11s WALL (      23 calls)

     Parallel routines

     PWSCF        :   1m35.96s CPU     37.44s WALL


   This run was terminated on:  15:57:26  13Jun2025            

=------------------------------------------------------------------------------=
   JOB DONE.
=------------------------------------------------------------------------------=
Note: The following floating-point exceptions are signalling: IEEE_INVALID_FLAG
