Authorization required, but no authorization protocol specified

Authorization required, but no authorization protocol specified

Authorization required, but no authorization protocol specified

Authorization required, but no authorization protocol specified

Authorization required, but no authorization protocol specified

Authorization required, but no authorization protocol specified

Authorization required, but no authorization protocol specified

Authorization required, but no authorization protocol specified

Authorization required, but no authorization protocol specified

Authorization required, but no authorization protocol specified


     Program PWSCF v.7.2 starts on 13Jun2025 at 18:21:50 

     This program is part of the open-source Quantum ESPRESSO suite
     for quantum simulation of materials; please cite
         "P. Giannozzi et al., J. Phys.:Condens. Matter 21 395502 (2009);
         "P. Giannozzi et al., J. Phys.:Condens. Matter 29 465901 (2017);
         "P. Giannozzi et al., J. Chem. Phys. 152 154105 (2020);
          URL http://www.quantum-espresso.org", 
     in publications or presentations arising from this work. More details at
     http://www.quantum-espresso.org/quote

     Parallel version (MPI), running on     8 processors

     MPI processes distributed on     1 nodes
     120690 MiB available memory on the printing compute node when the environment starts

     Reading input from /home/jvc/QEspresso7.2/ZnO_database_python/SCFs.in/scf-6.43-1.68.in

     Current dimensions of program PWSCF are:
     Max number of different atomic species (ntypx) = 10
     Max number of k-points (npk) =  40000
     Max angular momentum in pseudopotentials (lmaxx) =  4
     file Zn.upf: wavefunction(s)  3D renormalized

     R & G space division:  proc/nbgrp/npool/nimage =       8
     Subspace diagonalization in iterative solution of the eigenvalue problem:
     a serial algorithm will be used


     Parallelization info
     --------------------
     sticks:   dense  smooth     PW     G-vecs:    dense   smooth      PW
     Min         143      71     20                 6521     2309     376
     Max         145      73     21                 6524     2311     385
     Sum        1147     571    163                52179    18475    3033

     Using Slab Decomposition



     bravais-lattice index     =            4
     lattice parameter (alat)  =       6.4260  a.u.
     unit-cell volume          =     385.8166 (a.u.)^3
     number of atoms/cell      =            4
     number of atomic types    =            2
     number of electrons       =        36.00
     number of Kohn-Sham states=           18
     kinetic-energy cutoff     =      50.0000  Ry
     charge density cutoff     =     400.0000  Ry
     scf convergence threshold =      1.0E-08
     mixing beta               =       0.3000
     number of iterations used =            8  plain     mixing
     Exchange-correlation= PBE
                           (   1   4   3   4   0   0   0)

     celldm(1)=   6.425974  celldm(2)=   0.000000  celldm(3)=   1.678933
     celldm(4)=   0.000000  celldm(5)=   0.000000  celldm(6)=   0.000000

     crystal axes: (cart. coord. in units of alat)
               a(1) = (   1.000000   0.000000   0.000000 )  
               a(2) = (  -0.500000   0.866025   0.000000 )  
               a(3) = (   0.000000   0.000000   1.678933 )  

     reciprocal axes: (cart. coord. in units 2 pi/alat)
               b(1) = (  1.000000  0.577350 -0.000000 )  
               b(2) = (  0.000000  1.154701  0.000000 )  
               b(3) = (  0.000000 -0.000000  0.595616 )  


     PseudoPot. # 1 for Zn read from file:
     /home/jvc/QEspresso7.2/ZnO_database/pseudos/Zn.upf
     MD5 check sum: 7f56cabf9682ed8c977c2f7d0c5985c5
     Pseudo is Ultrasoft + core correction, Zval = 12.0
     Generated using &quot;atomic&quot; code by A. Dal Corso  v.6.2.2
     Using radial grid of 1201 points,  6 beta functions with: 
                l(1) =   0
                l(2) =   0
                l(3) =   1
                l(4) =   1
                l(5) =   2
                l(6) =   2
     Q(r) pseudized with 0 coefficients 


     PseudoPot. # 2 for O  read from file:
     /home/jvc/QEspresso7.2/ZnO_database/pseudos/O.upf
     MD5 check sum: 91400c9766925bcf19f520983a725ff0
     Pseudo is Ultrasoft + core correction, Zval =  6.0
     Generated using &quot;atomic&quot; code by A. Dal Corso  v.6.3MaX
     Using radial grid of 1095 points,  4 beta functions with: 
                l(1) =   0
                l(2) =   0
                l(3) =   1
                l(4) =   1
     Q(r) pseudized with 0 coefficients 


     atomic species   valence    mass     pseudopotential
        Zn            12.00    63.38000     Zn( 1.00)
        O              6.00    15.99900     O ( 1.00)

     12 Sym. Ops. (no inversion) found ( 6 have fractional translation)



   Cartesian axes

     site n.     atom                  positions (alat units)
         1           Zn  tau(   1) = (   0.5000000   0.2886751   0.8405301  )
         2           Zn  tau(   2) = (  -0.0000000   0.5773503   0.0010637  )
         3           O   tau(   3) = (   0.5000000   0.2886751   1.4769175  )
         4           O   tau(   4) = (  -0.0000000   0.5773503   0.6374511  )

     number of k points=    28
                       cart. coord. in units 2pi/alat
        k(    1) = (   0.0000000   0.0000000   0.0000000), wk =   0.0092593
        k(    2) = (   0.0000000   0.0000000   0.0992694), wk =   0.0185185
        k(    3) = (   0.0000000   0.0000000   0.1985388), wk =   0.0185185
        k(    4) = (   0.0000000   0.0000000  -0.2978082), wk =   0.0092593
        k(    5) = (   0.0000000   0.1924501   0.0000000), wk =   0.0555556
        k(    6) = (   0.0000000   0.1924501   0.0992694), wk =   0.1111111
        k(    7) = (   0.0000000   0.1924501   0.1985388), wk =   0.1111111
        k(    8) = (   0.0000000   0.1924501  -0.2978082), wk =   0.0555556
        k(    9) = (   0.0000000   0.3849002   0.0000000), wk =   0.0555556
        k(   10) = (   0.0000000   0.3849002   0.0992694), wk =   0.1111111
        k(   11) = (   0.0000000   0.3849002   0.1985388), wk =   0.1111111
        k(   12) = (   0.0000000   0.3849002  -0.2978082), wk =   0.0555556
        k(   13) = (   0.0000000  -0.5773503   0.0000000), wk =   0.0277778
        k(   14) = (   0.0000000  -0.5773503   0.0992694), wk =   0.0555556
        k(   15) = (   0.0000000  -0.5773503   0.1985388), wk =   0.0555556
        k(   16) = (   0.0000000  -0.5773503  -0.2978082), wk =   0.0277778
        k(   17) = (   0.1666667   0.2886751   0.0000000), wk =   0.0555556
        k(   18) = (   0.1666667   0.2886751   0.0992694), wk =   0.1111111
        k(   19) = (   0.1666667   0.2886751   0.1985388), wk =   0.1111111
        k(   20) = (   0.1666667   0.2886751  -0.2978082), wk =   0.0555556
        k(   21) = (   0.1666667   0.4811252   0.0000000), wk =   0.1111111
        k(   22) = (   0.1666667   0.4811252   0.0992694), wk =   0.2222222
        k(   23) = (   0.1666667   0.4811252   0.1985388), wk =   0.2222222
        k(   24) = (   0.1666667   0.4811252  -0.2978082), wk =   0.1111111
        k(   25) = (   0.3333333   0.5773503   0.0000000), wk =   0.0185185
        k(   26) = (   0.3333333   0.5773503   0.0992694), wk =   0.0370370
        k(   27) = (   0.3333333   0.5773503   0.1985388), wk =   0.0370370
        k(   28) = (   0.3333333   0.5773503  -0.2978082), wk =   0.0185185

     Dense  grid:    52179 G-vectors     FFT dimensions: (  45,  45,  72)

     Smooth grid:    18475 G-vectors     FFT dimensions: (  30,  30,  50)

     Estimated max dynamical RAM per process >      29.86 MB

     Estimated total dynamical RAM >     238.89 MB

     Check: negative core charge=   -0.000002

     Initial potential from superposition of free atoms

     starting charge      35.9925, renormalised to      36.0000
     Starting wfcs are   26 randomized atomic wfcs

     total cpu time spent up to now is        1.7 secs

     Self-consistent Calculation

     iteration #  1     ecut=    50.00 Ry     beta= 0.30
     Davidson diagonalization with overlap
     ethr =  1.00E-02,  avg # of iterations =  1.4

     total cpu time spent up to now is        2.6 secs

     total energy              =    -361.42477734 Ry
     estimated scf accuracy    <       0.76893654 Ry

     iteration #  2     ecut=    50.00 Ry     beta= 0.30
     Davidson diagonalization with overlap
     ethr =  2.14E-03,  avg # of iterations =  2.2

     total cpu time spent up to now is        3.7 secs

     total energy              =    -361.54743121 Ry
     estimated scf accuracy    <       0.08259120 Ry

     iteration #  3     ecut=    50.00 Ry     beta= 0.30
     Davidson diagonalization with overlap
     ethr =  2.29E-04,  avg # of iterations =  6.8

     total cpu time spent up to now is        5.5 secs

     total energy              =    -361.56211622 Ry
     estimated scf accuracy    <       0.08972014 Ry

     iteration #  4     ecut=    50.00 Ry     beta= 0.30
     Davidson diagonalization with overlap
     ethr =  2.29E-04,  avg # of iterations =  9.2

     total cpu time spent up to now is        7.9 secs

     total energy              =    -361.63819512 Ry
     estimated scf accuracy    <       0.47932939 Ry

     iteration #  5     ecut=    50.00 Ry     beta= 0.30
     Davidson diagonalization with overlap
     ethr =  2.29E-04,  avg # of iterations =  2.0

     total cpu time spent up to now is        8.8 secs

     total energy              =    -361.60451525 Ry
     estimated scf accuracy    <       0.30405071 Ry

     iteration #  6     ecut=    50.00 Ry     beta= 0.30
     Davidson diagonalization with overlap
     ethr =  2.29E-04,  avg # of iterations =  2.5

     total cpu time spent up to now is        9.9 secs

     total energy              =    -361.57994270 Ry
     estimated scf accuracy    <       0.14490479 Ry

     iteration #  7     ecut=    50.00 Ry     beta= 0.30
     Davidson diagonalization with overlap
     ethr =  2.29E-04,  avg # of iterations =  5.0

     total cpu time spent up to now is       11.2 secs

     total energy              =    -361.59937007 Ry
     estimated scf accuracy    <       0.00734861 Ry

     iteration #  8     ecut=    50.00 Ry     beta= 0.30
     Davidson diagonalization with overlap
     ethr =  2.04E-05,  avg # of iterations =  9.3

     total cpu time spent up to now is       13.5 secs

     total energy              =    -361.62260337 Ry
     estimated scf accuracy    <       0.06697628 Ry

     iteration #  9     ecut=    50.00 Ry     beta= 0.30
     Davidson diagonalization with overlap
     ethr =  2.04E-05,  avg # of iterations =  1.1

     total cpu time spent up to now is       14.4 secs

     total energy              =    -361.62453701 Ry
     estimated scf accuracy    <       0.06456537 Ry

     iteration # 10     ecut=    50.00 Ry     beta= 0.30
     Davidson diagonalization with overlap
     ethr =  2.04E-05,  avg # of iterations =  1.1

     total cpu time spent up to now is       15.3 secs

     total energy              =    -361.59946157 Ry
     estimated scf accuracy    <       0.06906628 Ry

     iteration # 11     ecut=    50.00 Ry     beta= 0.30
     Davidson diagonalization with overlap
     ethr =  2.04E-05,  avg # of iterations =  6.5

     total cpu time spent up to now is       17.1 secs

     total energy              =    -361.60769622 Ry
     estimated scf accuracy    <       0.00292045 Ry

     iteration # 12     ecut=    50.00 Ry     beta= 0.30
     Davidson diagonalization with overlap
     ethr =  8.11E-06,  avg # of iterations =  1.5

     total cpu time spent up to now is       18.0 secs

     total energy              =    -361.60784845 Ry
     estimated scf accuracy    <       0.00263106 Ry

     iteration # 13     ecut=    50.00 Ry     beta= 0.30
     Davidson diagonalization with overlap
     ethr =  7.31E-06,  avg # of iterations =  1.0

     total cpu time spent up to now is       18.9 secs

     total energy              =    -361.60614901 Ry
     estimated scf accuracy    <       0.00265559 Ry

     iteration # 14     ecut=    50.00 Ry     beta= 0.30
     Davidson diagonalization with overlap
     ethr =  7.31E-06,  avg # of iterations =  5.6

     total cpu time spent up to now is       20.5 secs

     total energy              =    -361.60719618 Ry
     estimated scf accuracy    <       0.00223822 Ry

     iteration # 15     ecut=    50.00 Ry     beta= 0.30
     Davidson diagonalization with overlap
     ethr =  6.22E-06,  avg # of iterations =  2.0

     total cpu time spent up to now is       21.5 secs

     total energy              =    -361.60696940 Ry
     estimated scf accuracy    <       0.00065330 Ry

     iteration # 16     ecut=    50.00 Ry     beta= 0.30
     Davidson diagonalization with overlap
     ethr =  1.81E-06,  avg # of iterations =  6.1

     total cpu time spent up to now is       23.1 secs

     total energy              =    -361.60784164 Ry
     estimated scf accuracy    <       0.00069736 Ry

     iteration # 17     ecut=    50.00 Ry     beta= 0.30
     Davidson diagonalization with overlap
     ethr =  1.81E-06,  avg # of iterations =  1.3

     total cpu time spent up to now is       24.0 secs

     total energy              =    -361.60765603 Ry
     estimated scf accuracy    <       0.00108283 Ry

     iteration # 18     ecut=    50.00 Ry     beta= 0.30
     Davidson diagonalization with overlap
     ethr =  1.81E-06,  avg # of iterations =  1.0

     total cpu time spent up to now is       24.9 secs

     total energy              =    -361.60757181 Ry
     estimated scf accuracy    <       0.00075325 Ry

     iteration # 19     ecut=    50.00 Ry     beta= 0.30
     Davidson diagonalization with overlap
     ethr =  1.81E-06,  avg # of iterations =  1.0

     total cpu time spent up to now is       25.8 secs

     total energy              =    -361.60744883 Ry
     estimated scf accuracy    <       0.00054459 Ry

     iteration # 20     ecut=    50.00 Ry     beta= 0.30
     Davidson diagonalization with overlap
     ethr =  1.51E-06,  avg # of iterations =  2.0

     total cpu time spent up to now is       26.8 secs

     total energy              =    -361.60751273 Ry
     estimated scf accuracy    <       0.00013361 Ry

     iteration # 21     ecut=    50.00 Ry     beta= 0.30
     Davidson diagonalization with overlap
     ethr =  3.71E-07,  avg # of iterations =  1.6

     total cpu time spent up to now is       27.7 secs

     total energy              =    -361.60752413 Ry
     estimated scf accuracy    <       0.00014715 Ry

     iteration # 22     ecut=    50.00 Ry     beta= 0.30
     Davidson diagonalization with overlap
     ethr =  3.71E-07,  avg # of iterations =  1.0

     total cpu time spent up to now is       28.6 secs

     total energy              =    -361.60758422 Ry
     estimated scf accuracy    <       0.00015390 Ry

     iteration # 23     ecut=    50.00 Ry     beta= 0.30
     Davidson diagonalization with overlap
     ethr =  3.71E-07,  avg # of iterations =  1.4

     total cpu time spent up to now is       29.6 secs

     total energy              =    -361.60751919 Ry
     estimated scf accuracy    <       0.00027759 Ry

     iteration # 24     ecut=    50.00 Ry     beta= 0.30
     Davidson diagonalization with overlap
     ethr =  3.71E-07,  avg # of iterations =  1.0

     total cpu time spent up to now is       30.5 secs

     total energy              =    -361.60745340 Ry
     estimated scf accuracy    <       0.00016343 Ry

     iteration # 25     ecut=    50.00 Ry     beta= 0.30
     Davidson diagonalization with overlap
     ethr =  3.71E-07,  avg # of iterations =  5.2

     total cpu time spent up to now is       31.8 secs

     total energy              =    -361.60749581 Ry
     estimated scf accuracy    <       0.00000062 Ry

     iteration # 26     ecut=    50.00 Ry     beta= 0.30
     Davidson diagonalization with overlap
     ethr =  1.72E-09,  avg # of iterations = 12.2

     total cpu time spent up to now is       34.8 secs

     total energy              =    -361.60750819 Ry
     estimated scf accuracy    <       0.00002491 Ry

     iteration # 27     ecut=    50.00 Ry     beta= 0.30
     Davidson diagonalization with overlap
     ethr =  1.72E-09,  avg # of iterations =  5.8

     total cpu time spent up to now is       36.3 secs

     total energy              =    -361.60751244 Ry
     estimated scf accuracy    <       0.00004308 Ry

     iteration # 28     ecut=    50.00 Ry     beta= 0.30
     Davidson diagonalization with overlap
     ethr =  1.72E-09,  avg # of iterations =  5.1

     total cpu time spent up to now is       37.8 secs

     total energy              =    -361.60748040 Ry
     estimated scf accuracy    <       0.00005976 Ry

     iteration # 29     ecut=    50.00 Ry     beta= 0.30
     Davidson diagonalization with overlap
     ethr =  1.72E-09,  avg # of iterations = 13.3

     total cpu time spent up to now is       41.1 secs

     total energy              =    -361.60749959 Ry
     estimated scf accuracy    <       0.00001149 Ry

     iteration # 30     ecut=    50.00 Ry     beta= 0.30
     Davidson diagonalization with overlap
     ethr =  1.72E-09,  avg # of iterations =  3.1

     total cpu time spent up to now is       42.2 secs

     total energy              =    -361.60749643 Ry
     estimated scf accuracy    <       0.00000814 Ry

     iteration # 31     ecut=    50.00 Ry     beta= 0.30
     Davidson diagonalization with overlap
     ethr =  1.72E-09,  avg # of iterations =  9.8

     total cpu time spent up to now is       44.6 secs

     total energy              =    -361.60749827 Ry
     estimated scf accuracy    <       0.00000007 Ry

     iteration # 32     ecut=    50.00 Ry     beta= 0.30
     Davidson diagonalization with overlap
     ethr =  2.08E-10,  avg # of iterations =  3.9

     total cpu time spent up to now is       45.7 secs

     total energy              =    -361.60749827 Ry
     estimated scf accuracy    <       0.00000003 Ry

     iteration # 33     ecut=    50.00 Ry     beta= 0.30
     Davidson diagonalization with overlap
     ethr =  7.31E-11,  avg # of iterations =  5.5

     total cpu time spent up to now is       47.3 secs

     total energy              =    -361.60749828 Ry
     estimated scf accuracy    <       0.00000001 Ry

     iteration # 34     ecut=    50.00 Ry     beta= 0.30
     Davidson diagonalization with overlap
     ethr =  3.22E-11,  avg # of iterations =  7.8

     total cpu time spent up to now is       49.3 secs

     total energy              =    -361.60749827 Ry
     estimated scf accuracy    <       0.00000005 Ry

     iteration # 35     ecut=    50.00 Ry     beta= 0.30
     Davidson diagonalization with overlap
     ethr =  3.22E-11,  avg # of iterations =  8.1

     total cpu time spent up to now is       51.3 secs

     total energy              =    -361.60749828 Ry
     estimated scf accuracy    <       0.00000001 Ry

     iteration # 36     ecut=    50.00 Ry     beta= 0.30
     Davidson diagonalization with overlap
     ethr =  3.22E-11,  avg # of iterations =  2.0

     total cpu time spent up to now is       52.3 secs

     End of self-consistent calculation

          k = 0.0000 0.0000 0.0000 (  2287 PWs)   bands (ev):

   -12.0222 -11.5888  -0.2521  -0.2521  -0.2125  -0.1312  -0.1312   0.2253
     0.4858   0.4858   0.6042   0.6042   0.9884   4.3021   4.3021   4.6977
     4.8271   4.8271

          k = 0.0000 0.0000 0.0993 (  2310 PWs)   bands (ev):

   -11.9942 -11.6190  -0.2471  -0.2471  -0.2282  -0.1425  -0.1425   0.0551
     0.4959   0.4959   0.5984   0.5984   1.3009   4.1116   4.3378   4.3378
     4.7925   4.7925

          k = 0.0000 0.0000 0.1985 (  2316 PWs)   bands (ev):

   -11.9171 -11.7005  -0.2566  -0.2305  -0.2305  -0.1704  -0.1704  -0.1498
     0.5219   0.5219   0.5813   0.5813   1.9106   3.3527   4.4349   4.4349
     4.6975   4.6975

          k = 0.0000 0.0000-0.2978 (  2316 PWs)   bands (ev):

   -11.8099 -11.8099  -0.2478  -0.2478  -0.2032  -0.2032  -0.2032  -0.2032
     0.5538   0.5538   0.5538   0.5538   2.6131   2.6131   4.5667   4.5667
     4.5667   4.5667

          k = 0.0000 0.1925 0.0000 (  2289 PWs)   bands (ev):

   -11.9188 -11.5370  -0.3127  -0.1892  -0.1662  -0.0977  -0.0410   0.2757
     0.4481   0.4853   0.6097   0.7175   1.0849   3.4226   3.7344   4.0337
     4.5790   4.6695

          k = 0.0000 0.1925 0.0993 (  2301 PWs)   bands (ev):

   -11.8939 -11.5632  -0.3216  -0.1819  -0.1800  -0.1107  -0.0539   0.1346
     0.4650   0.4949   0.6026   0.6510   1.4173   3.3856   3.6706   4.0771
     4.4964   4.6276

          k = 0.0000 0.1925 0.1985 (  2313 PWs)   bands (ev):

   -11.8253 -11.6344  -0.3358  -0.2419  -0.1600  -0.1233  -0.0865  -0.0311
     0.5055   0.5202   0.5824   0.6014   1.9899   3.0718   3.7634   4.1950
     4.2786   4.5126

          k = 0.0000 0.1925-0.2978 (  2312 PWs)   bands (ev):

   -11.7305 -11.7305  -0.3171  -0.3171  -0.1258  -0.1258  -0.1001  -0.1001
     0.5526   0.5526   0.5547   0.5547   2.5710   2.5710   4.0030   4.0030
     4.3545   4.3545

          k = 0.0000 0.3849 0.0000 (  2312 PWs)   bands (ev):

   -11.6913 -11.4453  -0.3445  -0.1394  -0.0892   0.1192   0.1640   0.3282
     0.4448   0.5359   0.6237   0.7841   1.4885   2.0757   2.7440   3.4938
     4.1691   4.3343

          k = 0.0000 0.3849 0.0993 (  2302 PWs)   bands (ev):

   -11.6745 -11.4614  -0.3554  -0.1728  -0.0745   0.1083   0.1445   0.2582
     0.4589   0.5410   0.6165   0.7298   1.6021   2.1574   2.7836   3.5526
     4.1563   4.2795

          k = 0.0000 0.3849 0.1985 (  2303 PWs)   bands (ev):

   -11.6290 -11.5059  -0.3697  -0.2617  -0.0334   0.0900   0.0929   0.1461
     0.5142   0.5552   0.5982   0.6553   1.7850   2.1392   3.1184   3.7105
     4.0100   4.1290

          k = 0.0000 0.3849-0.2978 (  2308 PWs)   bands (ev):

   -11.5671 -11.5671  -0.3446  -0.3446   0.0271   0.0271   0.0948   0.0948
     0.5757   0.5757   0.5841   0.5841   1.9728   1.9728   3.6280   3.6280
     3.9215   3.9215

          k = 0.0000-0.5774 0.0000 (  2312 PWs)   bands (ev):

   -11.5521 -11.4200  -0.2981  -0.0649  -0.0574   0.2253   0.2765   0.3907
     0.5645   0.5993   0.6395   0.6971   1.2782   1.7386   2.5489   3.2094
     3.7865   4.1567

          k = 0.0000-0.5774 0.0993 (  2296 PWs)   bands (ev):

   -11.5425 -11.4281  -0.3140  -0.1266  -0.0383   0.2267   0.2509   0.3685
     0.5859   0.6006   0.6337   0.6967   1.2612   1.6654   2.7610   3.2771
     3.8438   4.0956

          k = 0.0000-0.5774 0.1985 (  2310 PWs)   bands (ev):

   -11.5169 -11.4508  -0.3402  -0.2462   0.0157   0.1825   0.2365   0.3143
     0.6044   0.6218   0.6328   0.6906   1.2774   1.5113   3.2220   3.4575
     3.8695   3.9279

          k = 0.0000-0.5774-0.2978 (  2312 PWs)   bands (ev):

   -11.4831 -11.4831  -0.3277  -0.3277   0.0954   0.0954   0.2649   0.2649
     0.6113   0.6113   0.6712   0.6712   1.3669   1.3669   3.6578   3.6578
     3.6957   3.6957

          k = 0.1667 0.2887 0.0000 (  2293 PWs)   bands (ev):

   -11.7525 -11.4655  -0.2804  -0.1905  -0.0746  -0.0236   0.1270   0.3394
     0.4133   0.5036   0.6184   0.7824   1.3958   2.7025   2.7598   3.5058
     4.2763   4.3247

          k = 0.1667 0.2887 0.0993 (  2291 PWs)   bands (ev):

   -11.7333 -11.4847  -0.2948  -0.1955  -0.0779  -0.0361   0.1112   0.2239
     0.4395   0.5201   0.6113   0.7202   1.6168   2.6481   2.8799   3.5296
     4.2182   4.2911

          k = 0.1667 0.2887 0.1985 (  2301 PWs)   bands (ev):

   -11.6807 -11.5371  -0.3181  -0.2376  -0.0756  -0.0556   0.0724   0.0781
     0.5013   0.5423   0.5931   0.6475   1.9682   2.4892   3.2297   3.6363
     4.0630   4.1116

          k = 0.1667 0.2887-0.2978 (  2302 PWs)   bands (ev):

   -11.6088 -11.6088  -0.3032  -0.3032  -0.0628  -0.0628   0.0409   0.0409
     0.5610   0.5610   0.5824   0.5824   2.2583   2.2583   3.6707   3.6707
     3.8833   3.8833

          k = 0.1667 0.4811 0.0000 (  2307 PWs)   bands (ev):

   -11.5565 -11.4178  -0.2434  -0.0571   0.0420   0.1961   0.2874   0.3310
     0.4732   0.5358   0.6580   0.8070   1.4339   1.8834   2.5445   2.8422
     3.7701   3.8961

          k = 0.1667 0.4811 0.0993 (  2306 PWs)   bands (ev):

   -11.5465 -11.4263  -0.2442  -0.0755   0.0061   0.1899   0.2586   0.2847
     0.4825   0.5628   0.6586   0.7912   1.4306   1.8537   2.6629   2.9786
     3.7316   3.9128

          k = 0.1667 0.4811 0.1985 (  2305 PWs)   bands (ev):

   -11.5197 -11.4503  -0.2502  -0.1543  -0.0024   0.1592   0.1881   0.2259
     0.5334   0.5804   0.6683   0.7492   1.4821   1.7386   2.9207   3.3253
     3.5593   3.9323

          k = 0.1667 0.4811-0.2978 (  2298 PWs)   bands (ev):

   -11.4843 -11.4843  -0.2313  -0.2313   0.0624   0.0624   0.1943   0.1943
     0.5719   0.5719   0.7005   0.7005   1.5968   1.5968   3.2179   3.2179
     3.7586   3.7586

          k = 0.3333 0.5774 0.0000 (  2319 PWs)   bands (ev):

   -11.4469 -11.4469  -0.2376   0.1061   0.1061   0.3015   0.4451   0.4451
     0.4632   0.5154   0.6983   0.6983   1.6319   1.6319   1.8587   3.3024
     3.3024   3.3746

          k = 0.3333 0.5774 0.0993 (  2307 PWs)   bands (ev):

   -11.4459 -11.4459  -0.2139   0.0658   0.0658   0.2421   0.4138   0.4138
     0.4666   0.5119   0.7399   0.7399   1.5873   1.5873   1.9749   3.2741
     3.4335   3.4335

          k = 0.3333 0.5774 0.1985 (  2304 PWs)   bands (ev):

   -11.4441 -11.4441  -0.1437  -0.0163  -0.0163   0.1089   0.3779   0.3779
     0.4762   0.5025   0.7996   0.7996   1.5142   1.5142   2.2679   3.0044
     3.6817   3.6817

          k = 0.3333 0.5774-0.2978 (  2292 PWs)   bands (ev):

   -11.4432 -11.4432  -0.0566  -0.0566  -0.0314  -0.0314   0.3663   0.3663
     0.4893   0.4893   0.8239   0.8239   1.4833   1.4833   2.6405   2.6405
     3.8014   3.8014

     highest occupied level (ev):     4.8271

!    total energy              =    -361.60749828 Ry
     estimated scf accuracy    <          3.4E-09 Ry

     The total energy is the sum of the following terms:
     one-electron contribution =    -172.19604627 Ry
     hartree contribution      =     124.67130194 Ry
     xc contribution           =    -109.25356380 Ry
     ewald contribution        =    -204.82919015 Ry

     convergence has been achieved in  36 iterations

     Forces acting on atoms (cartesian axes, Ry/au):

     atom    1 type  1   force =     0.00000000    0.00000000    0.00060954
     atom    2 type  1   force =     0.00000000    0.00000000    0.00060954
     atom    3 type  2   force =     0.00000000   -0.00000000   -0.00060954
     atom    4 type  2   force =     0.00000000    0.00000000   -0.00060954
     The non-local contrib.  to forces
     atom    1 type  1   force =     0.00000000    0.00000000    0.09675290
     atom    2 type  1   force =     0.00000000    0.00000000    0.09675290
     atom    3 type  2   force =     0.00000000    0.00000000    0.10775968
     atom    4 type  2   force =     0.00000000    0.00000000    0.10775968
     The ionic contribution  to forces
     atom    1 type  1   force =    -0.00000000    0.00000000    0.78595638
     atom    2 type  1   force =     0.00000000   -0.00000000    0.78595638
     atom    3 type  2   force =    -0.00000000    0.00000000   -0.78595638
     atom    4 type  2   force =     0.00000000   -0.00000000   -0.78595638
     The local contribution  to forces
     atom    1 type  1   force =    -0.00000002    0.00000001   -0.87601906
     atom    2 type  1   force =     0.00000007   -0.00000004   -0.87601906
     atom    3 type  2   force =    -0.00000001    0.00000000    0.67854366
     atom    4 type  2   force =     0.00000002   -0.00000001    0.67854366
     The core correction contribution to forces
     atom    1 type  1   force =    -0.00000000    0.00000000   -0.00608772
     atom    2 type  1   force =     0.00000001   -0.00000001   -0.00608772
     atom    3 type  2   force =     0.00000000   -0.00000000   -0.00095545
     atom    4 type  2   force =    -0.00000000    0.00000000   -0.00095545
     The Hubbard contrib.    to forces
     atom    1 type  1   force =     0.00000000    0.00000000    0.00000000
     atom    2 type  1   force =     0.00000000    0.00000000    0.00000000
     atom    3 type  2   force =     0.00000000    0.00000000    0.00000000
     atom    4 type  2   force =     0.00000000    0.00000000    0.00000000
     The SCF correction term to forces
     atom    1 type  1   force =    -0.00000000    0.00000000    0.00001031
     atom    2 type  1   force =     0.00000000   -0.00000000    0.00001031
     atom    3 type  2   force =     0.00000000   -0.00000000    0.00000221
     atom    4 type  2   force =    -0.00000000    0.00000000    0.00000221

     Total force =     0.001219     Total SCF correction =     0.000015


     Computing stress (Cartesian axis) and pressure

          total   stress  (Ry/bohr**3)                   (kbar)     P=     -146.54
  -0.00090548   0.00000000   0.00000000         -133.20        0.00        0.00
   0.00000000  -0.00090548   0.00000000            0.00     -133.20        0.00
   0.00000000   0.00000000  -0.00117757            0.00        0.00     -173.23


     Writing all to output data dir ./ZnO_ANN.save/

     init_run     :      2.03s CPU      1.35s WALL (       1 calls)
     electrons    :    135.00s CPU     50.62s WALL (       1 calls)
     forces       :      0.76s CPU      0.38s WALL (       1 calls)
     stress       :      2.81s CPU      1.38s WALL (       1 calls)

     Called by init_run:
     wfcinit      :      1.11s CPU      0.44s WALL (       1 calls)
     potinit      :      0.26s CPU      0.26s WALL (       1 calls)
     hinit0       :      0.49s CPU      0.50s WALL (       1 calls)

     Called by electrons:
     c_bands      :    109.05s CPU     40.47s WALL (      36 calls)
     sum_band     :     19.00s CPU      7.34s WALL (      36 calls)
     v_of_rho     :      1.64s CPU      0.70s WALL (      37 calls)
     newd         :      4.97s CPU      1.99s WALL (      37 calls)
     mix_rho      :      0.26s CPU      0.11s WALL (      36 calls)

     Called by c_bands:
     init_us_2    :      1.76s CPU      0.63s WALL (    2100 calls)
     init_us_2:cp :      1.73s CPU      0.63s WALL (    2100 calls)
     cegterg      :    105.17s CPU     38.96s WALL (    1008 calls)

     Called by *egterg:
     cdiaghg      :     15.67s CPU      5.13s WALL (    5363 calls)
     h_psi        :     73.26s CPU     29.87s WALL (    5391 calls)
     s_psi        :      1.66s CPU      0.47s WALL (    5391 calls)
     g_psi        :      0.58s CPU      0.15s WALL (    4355 calls)

     Called by h_psi:
     h_psi:calbec :      2.52s CPU      0.88s WALL (    5391 calls)
     vloc_psi     :     68.45s CPU     28.26s WALL (    5391 calls)
     add_vuspsi   :      1.65s CPU      0.52s WALL (    5391 calls)

     General routines
     calbec       :      3.19s CPU      1.11s WALL (    6539 calls)
     fft          :      1.21s CPU      0.64s WALL (     504 calls)
     ffts         :      0.16s CPU      0.12s WALL (      73 calls)
     fftw         :     68.34s CPU     28.28s WALL (  141530 calls)
     interpolate  :      0.21s CPU      0.15s WALL (      37 calls)

     Parallel routines

     PWSCF        :   2m21.13s CPU     54.22s WALL


   This run was terminated on:  18:22:45  13Jun2025            

=------------------------------------------------------------------------------=
   JOB DONE.
=------------------------------------------------------------------------------=
Note: The following floating-point exceptions are signalling: IEEE_INVALID_FLAG
