Authorization required, but no authorization protocol specified

Authorization required, but no authorization protocol specified

Authorization required, but no authorization protocol specified

Authorization required, but no authorization protocol specified

Authorization required, but no authorization protocol specified

Authorization required, but no authorization protocol specified

Authorization required, but no authorization protocol specified

Authorization required, but no authorization protocol specified

Authorization required, but no authorization protocol specified

Authorization required, but no authorization protocol specified


     Program PWSCF v.7.2 starts on 13Jun2025 at 17:38:14 

     This program is part of the open-source Quantum ESPRESSO suite
     for quantum simulation of materials; please cite
         "P. Giannozzi et al., J. Phys.:Condens. Matter 21 395502 (2009);
         "P. Giannozzi et al., J. Phys.:Condens. Matter 29 465901 (2017);
         "P. Giannozzi et al., J. Chem. Phys. 152 154105 (2020);
          URL http://www.quantum-espresso.org", 
     in publications or presentations arising from this work. More details at
     http://www.quantum-espresso.org/quote

     Parallel version (MPI), running on     8 processors

     MPI processes distributed on     1 nodes
     120711 MiB available memory on the printing compute node when the environment starts

     Reading input from /home/jvc/QEspresso7.2/ZnO_database_python/SCFs.in/scf-6.30-1.49.in

     Current dimensions of program PWSCF are:
     Max number of different atomic species (ntypx) = 10
     Max number of k-points (npk) =  40000
     Max angular momentum in pseudopotentials (lmaxx) =  4
     file Zn.upf: wavefunction(s)  3D renormalized

     R & G space division:  proc/nbgrp/npool/nimage =       8
     Subspace diagonalization in iterative solution of the eigenvalue problem:
     a serial algorithm will be used


     Parallelization info
     --------------------
     sticks:   dense  smooth     PW     G-vecs:    dense   smooth      PW
     Min         137      68     20                 5424     1924     322
     Max         138      69     21                 5425     1929     329
     Sum        1099     547    163                43397    15409    2597

     Using Slab Decomposition



     bravais-lattice index     =            4
     lattice parameter (alat)  =       6.3024  a.u.
     unit-cell volume          =     321.9852 (a.u.)^3
     number of atoms/cell      =            4
     number of atomic types    =            2
     number of electrons       =        36.00
     number of Kohn-Sham states=           18
     kinetic-energy cutoff     =      50.0000  Ry
     charge density cutoff     =     400.0000  Ry
     scf convergence threshold =      1.0E-08
     mixing beta               =       0.3000
     number of iterations used =            8  plain     mixing
     Exchange-correlation= PBE
                           (   1   4   3   4   0   0   0)

     celldm(1)=   6.302398  celldm(2)=   0.000000  celldm(3)=   1.485210
     celldm(4)=   0.000000  celldm(5)=   0.000000  celldm(6)=   0.000000

     crystal axes: (cart. coord. in units of alat)
               a(1) = (   1.000000   0.000000   0.000000 )  
               a(2) = (  -0.500000   0.866025   0.000000 )  
               a(3) = (   0.000000   0.000000   1.485210 )  

     reciprocal axes: (cart. coord. in units 2 pi/alat)
               b(1) = (  1.000000  0.577350 -0.000000 )  
               b(2) = (  0.000000  1.154701  0.000000 )  
               b(3) = (  0.000000 -0.000000  0.673306 )  


     PseudoPot. # 1 for Zn read from file:
     /home/jvc/QEspresso7.2/ZnO_database/pseudos/Zn.upf
     MD5 check sum: 7f56cabf9682ed8c977c2f7d0c5985c5
     Pseudo is Ultrasoft + core correction, Zval = 12.0
     Generated using &quot;atomic&quot; code by A. Dal Corso  v.6.2.2
     Using radial grid of 1201 points,  6 beta functions with: 
                l(1) =   0
                l(2) =   0
                l(3) =   1
                l(4) =   1
                l(5) =   2
                l(6) =   2
     Q(r) pseudized with 0 coefficients 


     PseudoPot. # 2 for O  read from file:
     /home/jvc/QEspresso7.2/ZnO_database/pseudos/O.upf
     MD5 check sum: 91400c9766925bcf19f520983a725ff0
     Pseudo is Ultrasoft + core correction, Zval =  6.0
     Generated using &quot;atomic&quot; code by A. Dal Corso  v.6.3MaX
     Using radial grid of 1095 points,  4 beta functions with: 
                l(1) =   0
                l(2) =   0
                l(3) =   1
                l(4) =   1
     Q(r) pseudized with 0 coefficients 


     atomic species   valence    mass     pseudopotential
        Zn            12.00    63.38000     Zn( 1.00)
        O              6.00    15.99900     O ( 1.00)

     12 Sym. Ops. (no inversion) found ( 6 have fractional translation)



   Cartesian axes

     site n.     atom                  positions (alat units)
         1           Zn  tau(   1) = (   0.5000000   0.2886751   0.7435459  )
         2           Zn  tau(   2) = (  -0.0000000   0.5773503   0.0009410  )
         3           O   tau(   3) = (   0.5000000   0.2886751   1.3065039  )
         4           O   tau(   4) = (  -0.0000000   0.5773503   0.5638991  )

     number of k points=    28
                       cart. coord. in units 2pi/alat
        k(    1) = (   0.0000000   0.0000000   0.0000000), wk =   0.0092593
        k(    2) = (   0.0000000   0.0000000   0.1122176), wk =   0.0185185
        k(    3) = (   0.0000000   0.0000000   0.2244352), wk =   0.0185185
        k(    4) = (   0.0000000   0.0000000  -0.3366528), wk =   0.0092593
        k(    5) = (   0.0000000   0.1924501   0.0000000), wk =   0.0555556
        k(    6) = (   0.0000000   0.1924501   0.1122176), wk =   0.1111111
        k(    7) = (   0.0000000   0.1924501   0.2244352), wk =   0.1111111
        k(    8) = (   0.0000000   0.1924501  -0.3366528), wk =   0.0555556
        k(    9) = (   0.0000000   0.3849002   0.0000000), wk =   0.0555556
        k(   10) = (   0.0000000   0.3849002   0.1122176), wk =   0.1111111
        k(   11) = (   0.0000000   0.3849002   0.2244352), wk =   0.1111111
        k(   12) = (   0.0000000   0.3849002  -0.3366528), wk =   0.0555556
        k(   13) = (   0.0000000  -0.5773503   0.0000000), wk =   0.0277778
        k(   14) = (   0.0000000  -0.5773503   0.1122176), wk =   0.0555556
        k(   15) = (   0.0000000  -0.5773503   0.2244352), wk =   0.0555556
        k(   16) = (   0.0000000  -0.5773503  -0.3366528), wk =   0.0277778
        k(   17) = (   0.1666667   0.2886751   0.0000000), wk =   0.0555556
        k(   18) = (   0.1666667   0.2886751   0.1122176), wk =   0.1111111
        k(   19) = (   0.1666667   0.2886751   0.2244352), wk =   0.1111111
        k(   20) = (   0.1666667   0.2886751  -0.3366528), wk =   0.0555556
        k(   21) = (   0.1666667   0.4811252   0.0000000), wk =   0.1111111
        k(   22) = (   0.1666667   0.4811252   0.1122176), wk =   0.2222222
        k(   23) = (   0.1666667   0.4811252   0.2244352), wk =   0.2222222
        k(   24) = (   0.1666667   0.4811252  -0.3366528), wk =   0.1111111
        k(   25) = (   0.3333333   0.5773503   0.0000000), wk =   0.0185185
        k(   26) = (   0.3333333   0.5773503   0.1122176), wk =   0.0370370
        k(   27) = (   0.3333333   0.5773503   0.2244352), wk =   0.0370370
        k(   28) = (   0.3333333   0.5773503  -0.3366528), wk =   0.0185185

     Dense  grid:    43397 G-vectors     FFT dimensions: (  45,  45,  60)

     Smooth grid:    15409 G-vectors     FFT dimensions: (  30,  30,  48)

     Estimated max dynamical RAM per process >      25.46 MB

     Estimated total dynamical RAM >     203.67 MB

     Check: negative core charge=   -0.000002

     Initial potential from superposition of free atoms

     starting charge      35.9925, renormalised to      36.0000
     Starting wfcs are   26 randomized atomic wfcs

     total cpu time spent up to now is        1.5 secs

     Self-consistent Calculation

     iteration #  1     ecut=    50.00 Ry     beta= 0.30
     Davidson diagonalization with overlap
     ethr =  1.00E-02,  avg # of iterations =  2.0

     total cpu time spent up to now is        2.4 secs

     total energy              =    -361.46549265 Ry
     estimated scf accuracy    <       0.69694032 Ry

     iteration #  2     ecut=    50.00 Ry     beta= 0.30
     Davidson diagonalization with overlap
     ethr =  1.94E-03,  avg # of iterations =  2.0

     total cpu time spent up to now is        3.4 secs

     total energy              =    -361.55915840 Ry
     estimated scf accuracy    <       0.09560083 Ry

     iteration #  3     ecut=    50.00 Ry     beta= 0.30
     Davidson diagonalization with overlap
     ethr =  2.66E-04,  avg # of iterations =  6.3

     total cpu time spent up to now is        5.0 secs

     total energy              =    -361.59264533 Ry
     estimated scf accuracy    <       0.06558522 Ry

     iteration #  4     ecut=    50.00 Ry     beta= 0.30
     Davidson diagonalization with overlap
     ethr =  1.82E-04,  avg # of iterations =  7.6

     total cpu time spent up to now is        6.9 secs

     total energy              =    -361.63585116 Ry
     estimated scf accuracy    <       0.17620343 Ry

     iteration #  5     ecut=    50.00 Ry     beta= 0.30
     Davidson diagonalization with overlap
     ethr =  1.82E-04,  avg # of iterations =  1.1

     total cpu time spent up to now is        7.7 secs

     total energy              =    -361.55987708 Ry
     estimated scf accuracy    <       0.10531151 Ry

     iteration #  6     ecut=    50.00 Ry     beta= 0.30
     Davidson diagonalization with overlap
     ethr =  1.82E-04,  avg # of iterations =  7.4

     total cpu time spent up to now is        9.5 secs

     total energy              =    -361.61213215 Ry
     estimated scf accuracy    <       0.17829115 Ry

     iteration #  7     ecut=    50.00 Ry     beta= 0.30
     Davidson diagonalization with overlap
     ethr =  1.82E-04,  avg # of iterations =  2.0

     total cpu time spent up to now is       10.4 secs

     total energy              =    -361.61459327 Ry
     estimated scf accuracy    <       0.06877006 Ry

     iteration #  8     ecut=    50.00 Ry     beta= 0.30
     Davidson diagonalization with overlap
     ethr =  1.82E-04,  avg # of iterations =  2.0

     total cpu time spent up to now is       11.3 secs

     total energy              =    -361.62049031 Ry
     estimated scf accuracy    <       0.03496632 Ry

     iteration #  9     ecut=    50.00 Ry     beta= 0.30
     Davidson diagonalization with overlap
     ethr =  9.71E-05,  avg # of iterations =  2.0

     total cpu time spent up to now is       12.1 secs

     total energy              =    -361.62268061 Ry
     estimated scf accuracy    <       0.02398773 Ry

     iteration # 10     ecut=    50.00 Ry     beta= 0.30
     Davidson diagonalization with overlap
     ethr =  6.66E-05,  avg # of iterations =  2.1

     total cpu time spent up to now is       13.0 secs

     total energy              =    -361.61599457 Ry
     estimated scf accuracy    <       0.01753848 Ry

     iteration # 11     ecut=    50.00 Ry     beta= 0.30
     Davidson diagonalization with overlap
     ethr =  4.87E-05,  avg # of iterations =  4.5

     total cpu time spent up to now is       14.3 secs

     total energy              =    -361.62296290 Ry
     estimated scf accuracy    <       0.00034567 Ry

     iteration # 12     ecut=    50.00 Ry     beta= 0.30
     Davidson diagonalization with overlap
     ethr =  9.60E-07,  avg # of iterations =  9.1

     total cpu time spent up to now is       16.3 secs

     total energy              =    -361.62414158 Ry
     estimated scf accuracy    <       0.00531328 Ry

     iteration # 13     ecut=    50.00 Ry     beta= 0.30
     Davidson diagonalization with overlap
     ethr =  9.60E-07,  avg # of iterations =  1.0

     total cpu time spent up to now is       17.1 secs

     total energy              =    -361.62318688 Ry
     estimated scf accuracy    <       0.00475715 Ry

     iteration # 14     ecut=    50.00 Ry     beta= 0.30
     Davidson diagonalization with overlap
     ethr =  9.60E-07,  avg # of iterations =  4.8

     total cpu time spent up to now is       18.5 secs

     total energy              =    -361.62293137 Ry
     estimated scf accuracy    <       0.00177129 Ry

     iteration # 15     ecut=    50.00 Ry     beta= 0.30
     Davidson diagonalization with overlap
     ethr =  9.60E-07,  avg # of iterations =  4.8

     total cpu time spent up to now is       19.6 secs

     total energy              =    -361.62311310 Ry
     estimated scf accuracy    <       0.00054422 Ry

     iteration # 16     ecut=    50.00 Ry     beta= 0.30
     Davidson diagonalization with overlap
     ethr =  9.60E-07,  avg # of iterations =  1.3

     total cpu time spent up to now is       20.4 secs

     total energy              =    -361.62330147 Ry
     estimated scf accuracy    <       0.00058653 Ry

     iteration # 17     ecut=    50.00 Ry     beta= 0.30
     Davidson diagonalization with overlap
     ethr =  9.60E-07,  avg # of iterations =  1.5

     total cpu time spent up to now is       21.3 secs

     total energy              =    -361.62467675 Ry
     estimated scf accuracy    <       0.00095509 Ry

     iteration # 18     ecut=    50.00 Ry     beta= 0.30
     Davidson diagonalization with overlap
     ethr =  9.60E-07,  avg # of iterations =  8.4

     total cpu time spent up to now is       23.3 secs

     total energy              =    -361.62174879 Ry
     estimated scf accuracy    <       0.00961731 Ry

     iteration # 19     ecut=    50.00 Ry     beta= 0.30
     Davidson diagonalization with overlap
     ethr =  9.60E-07,  avg # of iterations =  9.0

     total cpu time spent up to now is       25.5 secs

     total energy              =    -361.62296452 Ry
     estimated scf accuracy    <       0.00018016 Ry

     iteration # 20     ecut=    50.00 Ry     beta= 0.30
     Davidson diagonalization with overlap
     ethr =  5.00E-07,  avg # of iterations =  4.5

     total cpu time spent up to now is       26.6 secs

     total energy              =    -361.62300011 Ry
     estimated scf accuracy    <       0.00001186 Ry

     iteration # 21     ecut=    50.00 Ry     beta= 0.30
     Davidson diagonalization with overlap
     ethr =  3.29E-08,  avg # of iterations = 10.8

     total cpu time spent up to now is       29.1 secs

     total energy              =    -361.62289841 Ry
     estimated scf accuracy    <       0.00036037 Ry

     iteration # 22     ecut=    50.00 Ry     beta= 0.30
     Davidson diagonalization with overlap
     ethr =  3.29E-08,  avg # of iterations = 11.2

     total cpu time spent up to now is       31.8 secs

     total energy              =    -361.62297311 Ry
     estimated scf accuracy    <       0.00008783 Ry

     iteration # 23     ecut=    50.00 Ry     beta= 0.30
     Davidson diagonalization with overlap
     ethr =  3.29E-08,  avg # of iterations = 10.8

     total cpu time spent up to now is       34.2 secs

     total energy              =    -361.62311727 Ry
     estimated scf accuracy    <       0.00016663 Ry

     iteration # 24     ecut=    50.00 Ry     beta= 0.30
     Davidson diagonalization with overlap
     ethr =  3.29E-08,  avg # of iterations =  6.7

     total cpu time spent up to now is       35.9 secs

     total energy              =    -361.62295191 Ry
     estimated scf accuracy    <       0.00041379 Ry

     iteration # 25     ecut=    50.00 Ry     beta= 0.30
     Davidson diagonalization with overlap
     ethr =  3.29E-08,  avg # of iterations =  9.9

     total cpu time spent up to now is       38.3 secs

     total energy              =    -361.62301786 Ry
     estimated scf accuracy    <       0.00000111 Ry

     iteration # 26     ecut=    50.00 Ry     beta= 0.30
     Davidson diagonalization with overlap
     ethr =  3.08E-09,  avg # of iterations =  9.8

     total cpu time spent up to now is       40.5 secs

     total energy              =    -361.62301684 Ry
     estimated scf accuracy    <       0.00001313 Ry

     iteration # 27     ecut=    50.00 Ry     beta= 0.30
     Davidson diagonalization with overlap
     ethr =  3.08E-09,  avg # of iterations =  7.8

     total cpu time spent up to now is       42.4 secs

     total energy              =    -361.62301878 Ry
     estimated scf accuracy    <       0.00000016 Ry

     iteration # 28     ecut=    50.00 Ry     beta= 0.30
     Davidson diagonalization with overlap
     ethr =  4.57E-10,  avg # of iterations =  4.4

     total cpu time spent up to now is       43.5 secs

     total energy              =    -361.62301882 Ry
     estimated scf accuracy    <       0.00000004 Ry

     iteration # 29     ecut=    50.00 Ry     beta= 0.30
     Davidson diagonalization with overlap
     ethr =  1.16E-10,  avg # of iterations =  4.1

     total cpu time spent up to now is       44.6 secs

     End of self-consistent calculation

          k = 0.0000 0.0000 0.0000 (  1935 PWs)   bands (ev):

   -10.8559 -10.0100   1.5857   1.5930   1.5930   1.7817   1.8339   1.8339
     2.6964   2.6964   2.9601   2.9601   3.1687   6.1688   6.1688   7.1712
     7.1712   7.2366

          k = 0.0000 0.0000 0.1122 (  1923 PWs)   bands (ev):

   -10.8012 -10.0683   1.5152   1.5655   1.5969   1.5969   1.8035   1.8035
     2.7250   2.7250   2.9556   2.9556   3.5797   6.2392   6.2392   6.6858
     7.1080   7.1080

          k = 0.0000 0.0000 0.2244 (  1917 PWs)   bands (ev):

   -10.6501 -10.2266   1.3118   1.3609   1.6161   1.6161   1.7333   1.7333
     2.7950   2.7950   2.9303   2.9303   4.3694   5.9495   6.4296   6.4296
     6.9320   6.9320

          k = 0.0000 0.0000-0.3367 (  1894 PWs)   bands (ev):

   -10.4402 -10.4402   1.2533   1.2533   1.6628   1.6628   1.6628   1.6628
     2.8735   2.8735   2.8735   2.8735   5.1879   5.1879   6.6846   6.6846
     6.6846   6.6846

          k = 0.0000 0.1925 0.0000 (  1918 PWs)   bands (ev):

   -10.7218  -9.9732   1.4339   1.6595   1.6824   1.7662   1.9478   2.0345
     2.6461   2.7006   2.9783   2.9961   3.2231   5.3574   5.8191   6.0954
     7.0144   7.0347

          k = 0.0000 0.1925 0.1122 (  1915 PWs)   bands (ev):

   -10.6722 -10.0234   1.3828   1.5767   1.6670   1.6885   1.8939   1.9139
     2.6889   2.7268   2.9686   2.9959   3.6503   5.4469   5.9048   5.9203
     6.9394   7.0035

          k = 0.0000 0.1925 0.2244 (  1917 PWs)   bands (ev):

   -10.5360 -10.1608   1.2577   1.3003   1.6743   1.6953   1.7872   1.8351
     2.7814   2.7928   2.9338   2.9580   4.3894   5.4548   5.8396   6.1344
     6.7311   6.7548

          k = 0.0000 0.1925-0.3367 (  1914 PWs)   bands (ev):

   -10.3487 -10.3487   1.1916   1.1916   1.7117   1.7117   1.7531   1.7531
     2.8708   2.8708   2.8817   2.8817   5.0125   5.0125   6.2894   6.2894
     6.4380   6.4380

          k = 0.0000 0.3849 0.0000 (  1924 PWs)   bands (ev):

   -10.4146  -9.9274   1.2937   1.6732   1.7598   1.8976   2.2332   2.3171
     2.6861   2.7845   3.0039   3.0465   3.3948   4.1483   4.9937   5.1026
     6.4601   6.6630

          k = 0.0000 0.3849 0.1122 (  1930 PWs)   bands (ev):

   -10.3795  -9.9569   1.2388   1.5322   1.7801   1.8633   2.1328   2.1857
     2.7071   2.7983   2.9856   3.0743   3.6409   4.3498   4.9508   5.2245
     6.5491   6.5685

          k = 0.0000 0.3849 0.2244 (  1923 PWs)   bands (ev):

   -10.2850 -10.0402   1.1266   1.2467   1.8370   1.8419   1.9598   2.0713
     2.8110   2.8360   2.9414   3.0218   3.9442   4.4163   5.3828   5.5375
     6.3058   6.5289

          k = 0.0000 0.3849-0.3367 (  1920 PWs)   bands (ev):

   -10.1598 -10.1598   1.0943   1.0943   1.8682   1.8682   1.9438   1.9438
     2.8877   2.8877   2.9268   2.9268   4.1984   4.1984   5.9333   5.9333
     6.1020   6.1020

          k = 0.0000-0.5774 0.0000 (  1924 PWs)   bands (ev):

   -10.2117  -9.9478   1.3364   1.6354   1.7898   2.0479   2.1751   2.4210
     2.7543   2.8844   3.0141   3.0596   3.5997   3.8692   4.4322   4.6981
     6.0157   6.4701

          k = 0.0000-0.5774 0.1122 (  1924 PWs)   bands (ev):

   -10.1899  -9.9608   1.2682   1.4718   1.8183   2.0149   2.1288   2.3603
     2.8332   2.8881   2.9877   3.0597   3.5432   3.8078   4.8008   4.8496
     6.1697   6.3666

          k = 0.0000-0.5774 0.2244 (  1912 PWs)   bands (ev):

   -10.1329 -10.0001   1.1282   1.1970   1.9038   1.9872   2.0473   2.2106
     2.8988   2.9458   2.9462   3.0510   3.5318   3.6960   5.2197   5.5155
     6.0787   6.3416

          k = 0.0000-0.5774-0.3367 (  1936 PWs)   bands (ev):

   -10.0621 -10.0621   1.0684   1.0684   1.9956   1.9956   2.0410   2.0410
     2.9167   2.9167   3.0172   3.0172   3.5957   3.5957   5.6670   5.6670
     6.1270   6.1270

          k = 0.1667 0.2887 0.0000 (  1923 PWs)   bands (ev):

   -10.4995  -9.9328   1.3845   1.5918   1.7793   1.8476   2.1558   2.3217
     2.6058   2.7326   2.9974   3.0231   3.3863   4.6527   4.8201   5.4445
     6.6213   6.6499

          k = 0.1667 0.2887 0.1122 (  1929 PWs)   bands (ev):

   -10.4599  -9.9684   1.3252   1.5155   1.7581   1.8052   2.0693   2.1119
     2.6597   2.7784   2.9829   3.0561   3.7270   4.8422   4.8532   5.3899
     6.5218   6.7122

          k = 0.1667 0.2887 0.2244 (  1921 PWs)   bands (ev):

   -10.3524 -10.0678   1.1985   1.2759   1.7453   1.7851   1.9122   2.0110
     2.7772   2.8281   2.9457   3.0083   4.1960   4.7611   5.4319   5.5172
     6.2515   6.6301

          k = 0.1667 0.2887-0.3367 (  1918 PWs)   bands (ev):

   -10.2081 -10.2081   1.1455   1.1455   1.7699   1.7699   1.9146   1.9146
     2.8725   2.8725   2.9221   2.9221   4.5167   4.5167   5.8578   5.8578
     6.1737   6.1737

          k = 0.1667 0.4811 0.0000 (  1927 PWs)   bands (ev):

   -10.2192  -9.9427   1.4336   1.6712   1.8513   1.9607   2.3268   2.4599
     2.7270   2.7562   3.0182   3.1520   3.3898   3.9523   4.3410   4.6999
     5.9894   6.1958

          k = 0.1667 0.4811 0.1122 (  1927 PWs)   bands (ev):

   -10.1966  -9.9567   1.3722   1.5789   1.7797   1.9492   2.2177   2.3577
     2.7233   2.8464   3.0072   3.1677   3.4463   4.0455   4.3799   4.9817
     6.0206   6.2011

          k = 0.1667 0.4811 0.2244 (  1923 PWs)   bands (ev):

   -10.1375  -9.9985   1.2317   1.3162   1.7983   1.9210   2.0990   2.1866
     2.8017   2.8698   3.0198   3.1307   3.6090   3.9569   4.7352   5.5776
     5.7536   6.3738

          k = 0.1667 0.4811-0.3367 (  1922 PWs)   bands (ev):

   -10.0637 -10.0637   1.1756   1.1756   1.8752   1.8752   2.0765   2.0765
     2.8535   2.8535   3.0697   3.0697   3.7892   3.7892   5.2202   5.2202
     6.2078   6.2078

          k = 0.3333 0.5774 0.0000 (  1929 PWs)   bands (ev):

   -10.0361 -10.0361   1.5362   1.7921   1.7921   2.4723   2.4723   2.4788
     2.6590   2.8199   2.8846   2.8846   3.2722   3.7891   3.7891   5.3495
     5.3495   5.7304

          k = 0.3333 0.5774 0.1122 (  1923 PWs)   bands (ev):

   -10.0311 -10.0311   1.5644   1.6743   1.6743   2.2967   2.3441   2.3441
     2.6805   2.8108   3.0275   3.0275   3.5297   3.7431   3.7431   5.5786
     5.5931   5.5931

          k = 0.3333 0.5774 0.2244 (  1923 PWs)   bands (ev):

   -10.0211 -10.0211   1.4396   1.4396   1.6519   2.0246   2.2380   2.2380
     2.7116   2.7849   3.1835   3.1835   3.6765   3.6765   4.0435   5.1732
     6.0433   6.0433

          k = 0.3333 0.5774-0.3367 (  1944 PWs)   bands (ev):

   -10.0160 -10.0160   1.3295   1.3295   1.8039   1.8039   2.2082   2.2082
     2.7487   2.7487   3.2395   3.2395   3.6498   3.6498   4.6244   4.6244
     6.2580   6.2580

     highest occupied level (ev):     7.2366

!    total energy              =    -361.62301882 Ry
     estimated scf accuracy    <          8.2E-09 Ry

     The total energy is the sum of the following terms:
     one-electron contribution =    -152.76666724 Ry
     hartree contribution      =     117.81763968 Ry
     xc contribution           =    -109.60786620 Ry
     ewald contribution        =    -217.06612507 Ry

     convergence has been achieved in  29 iterations

     Forces acting on atoms (cartesian axes, Ry/au):

     atom    1 type  1   force =     0.00000000   -0.00000000   -0.03965858
     atom    2 type  1   force =     0.00000000    0.00000000   -0.03965858
     atom    3 type  2   force =     0.00000000    0.00000000    0.03965858
     atom    4 type  2   force =     0.00000000    0.00000000    0.03965858
     The non-local contrib.  to forces
     atom    1 type  1   force =     0.00000000   -0.00000000   -0.25082903
     atom    2 type  1   force =     0.00000000   -0.00000000   -0.25082903
     atom    3 type  2   force =     0.00000000    0.00000000   -0.18534658
     atom    4 type  2   force =     0.00000000   -0.00000000   -0.18534658
     The ionic contribution  to forces
     atom    1 type  1   force =    -0.00000000    0.00000000   -1.68049310
     atom    2 type  1   force =     0.00000000   -0.00000000   -1.68049310
     atom    3 type  2   force =    -0.00000000    0.00000000    1.68049310
     atom    4 type  2   force =     0.00000000   -0.00000000    1.68049310
     The local contribution  to forces
     atom    1 type  1   force =    -0.00000002    0.00000001    1.87233889
     atom    2 type  1   force =     0.00000007   -0.00000004    1.87233890
     atom    3 type  2   force =    -0.00000001    0.00000000   -1.45683053
     atom    4 type  2   force =     0.00000002   -0.00000001   -1.45683055
     The core correction contribution to forces
     atom    1 type  1   force =    -0.00000000    0.00000000    0.01934857
     atom    2 type  1   force =     0.00000001   -0.00000000    0.01934857
     atom    3 type  2   force =     0.00000000   -0.00000000    0.00133713
     atom    4 type  2   force =    -0.00000000    0.00000000    0.00133713
     The Hubbard contrib.    to forces
     atom    1 type  1   force =     0.00000000    0.00000000    0.00000000
     atom    2 type  1   force =     0.00000000    0.00000000    0.00000000
     atom    3 type  2   force =     0.00000000    0.00000000    0.00000000
     atom    4 type  2   force =     0.00000000    0.00000000    0.00000000
     The SCF correction term to forces
     atom    1 type  1   force =    -0.00000000    0.00000000   -0.00002354
     atom    2 type  1   force =     0.00000000   -0.00000000   -0.00002354
     atom    3 type  2   force =    -0.00000000    0.00000000    0.00000584
     atom    4 type  2   force =     0.00000000   -0.00000000    0.00000584

     Total force =     0.079317     Total SCF correction =     0.000034


     Computing stress (Cartesian axis) and pressure

          total   stress  (Ry/bohr**3)                   (kbar)     P=       47.75
  -0.00014972   0.00000000  -0.00000000          -22.02        0.00       -0.00
   0.00000000  -0.00014972  -0.00000000            0.00      -22.02       -0.00
  -0.00000000  -0.00000000   0.00127317           -0.00       -0.00      187.29


     Writing all to output data dir ./ZnO_ANN.save/

     init_run     :      1.76s CPU      1.18s WALL (       1 calls)
     electrons    :    115.10s CPU     43.08s WALL (       1 calls)
     forces       :      0.63s CPU      0.30s WALL (       1 calls)
     stress       :      2.28s CPU      1.14s WALL (       1 calls)

     Called by init_run:
     wfcinit      :      0.97s CPU      0.39s WALL (       1 calls)
     potinit      :      0.25s CPU      0.26s WALL (       1 calls)
     hinit0       :      0.41s CPU      0.41s WALL (       1 calls)

     Called by electrons:
     c_bands      :     97.27s CPU     36.04s WALL (      29 calls)
     sum_band     :     13.12s CPU      5.14s WALL (      29 calls)
     v_of_rho     :      1.17s CPU      0.50s WALL (      30 calls)
     newd         :      3.30s CPU      1.32s WALL (      30 calls)
     mix_rho      :      0.18s CPU      0.08s WALL (      29 calls)

     Called by c_bands:
     init_us_2    :      1.18s CPU      0.42s WALL (    1708 calls)
     init_us_2:cp :      1.16s CPU      0.41s WALL (    1708 calls)
     cegterg      :     94.68s CPU     35.03s WALL (     812 calls)

     Called by *egterg:
     cdiaghg      :     15.09s CPU      5.03s WALL (    5265 calls)
     h_psi        :     64.87s CPU     26.26s WALL (    5293 calls)
     s_psi        :      1.45s CPU      0.43s WALL (    5293 calls)
     g_psi        :      0.51s CPU      0.13s WALL (    4453 calls)

     Called by h_psi:
     h_psi:calbec :      2.18s CPU      0.80s WALL (    5293 calls)
     vloc_psi     :     60.73s CPU     24.84s WALL (    5293 calls)
     add_vuspsi   :      1.42s CPU      0.47s WALL (    5293 calls)

     General routines
     calbec       :      2.66s CPU      0.96s WALL (    6245 calls)
     fft          :      0.81s CPU      0.44s WALL (     413 calls)
     ffts         :      0.17s CPU      0.15s WALL (      59 calls)
     fftw         :     59.23s CPU     24.29s WALL (  136850 calls)
     interpolate  :      0.20s CPU      0.16s WALL (      30 calls)

     Parallel routines

     PWSCF        :   2m 0.32s CPU     46.17s WALL


   This run was terminated on:  17:39: 0  13Jun2025            

=------------------------------------------------------------------------------=
   JOB DONE.
=------------------------------------------------------------------------------=
Note: The following floating-point exceptions are signalling: IEEE_INVALID_FLAG
