Authorization required, but no authorization protocol specified

Authorization required, but no authorization protocol specified

Authorization required, but no authorization protocol specified

Authorization required, but no authorization protocol specified

Authorization required, but no authorization protocol specified

Authorization required, but no authorization protocol specified

Authorization required, but no authorization protocol specified

Authorization required, but no authorization protocol specified

Authorization required, but no authorization protocol specified

Authorization required, but no authorization protocol specified


     Program PWSCF v.7.2 starts on 13Jun2025 at 18: 7:26 

     This program is part of the open-source Quantum ESPRESSO suite
     for quantum simulation of materials; please cite
         "P. Giannozzi et al., J. Phys.:Condens. Matter 21 395502 (2009);
         "P. Giannozzi et al., J. Phys.:Condens. Matter 29 465901 (2017);
         "P. Giannozzi et al., J. Chem. Phys. 152 154105 (2020);
          URL http://www.quantum-espresso.org", 
     in publications or presentations arising from this work. More details at
     http://www.quantum-espresso.org/quote

     Parallel version (MPI), running on     8 processors

     MPI processes distributed on     1 nodes
     120696 MiB available memory on the printing compute node when the environment starts

     Reading input from /home/jvc/QEspresso7.2/ZnO_database_python/SCFs.in/scf-6.36-1.73.in

     Current dimensions of program PWSCF are:
     Max number of different atomic species (ntypx) = 10
     Max number of k-points (npk) =  40000
     Max angular momentum in pseudopotentials (lmaxx) =  4
     file Zn.upf: wavefunction(s)  3D renormalized

     R & G space division:  proc/nbgrp/npool/nimage =       8
     Subspace diagonalization in iterative solution of the eigenvalue problem:
     a serial algorithm will be used


     Parallelization info
     --------------------
     sticks:   dense  smooth     PW     G-vecs:    dense   smooth      PW
     Min         140      69     20                 6504     2305     382
     Max         141      70     21                 6507     2312     387
     Sum        1123     559    163                52047    18487    3069

     Using Slab Decomposition



     bravais-lattice index     =            4
     lattice parameter (alat)  =       6.3642  a.u.
     unit-cell volume          =     385.6053 (a.u.)^3
     number of atoms/cell      =            4
     number of atomic types    =            2
     number of electrons       =        36.00
     number of Kohn-Sham states=           18
     kinetic-energy cutoff     =      50.0000  Ry
     charge density cutoff     =     400.0000  Ry
     scf convergence threshold =      1.0E-08
     mixing beta               =       0.3000
     number of iterations used =            8  plain     mixing
     Exchange-correlation= PBE
                           (   1   4   3   4   0   0   0)

     celldm(1)=   6.364186  celldm(2)=   0.000000  celldm(3)=   1.727363
     celldm(4)=   0.000000  celldm(5)=   0.000000  celldm(6)=   0.000000

     crystal axes: (cart. coord. in units of alat)
               a(1) = (   1.000000   0.000000   0.000000 )  
               a(2) = (  -0.500000   0.866025   0.000000 )  
               a(3) = (   0.000000   0.000000   1.727363 )  

     reciprocal axes: (cart. coord. in units 2 pi/alat)
               b(1) = (  1.000000  0.577350 -0.000000 )  
               b(2) = (  0.000000  1.154701  0.000000 )  
               b(3) = (  0.000000 -0.000000  0.578917 )  


     PseudoPot. # 1 for Zn read from file:
     /home/jvc/QEspresso7.2/ZnO_database/pseudos/Zn.upf
     MD5 check sum: 7f56cabf9682ed8c977c2f7d0c5985c5
     Pseudo is Ultrasoft + core correction, Zval = 12.0
     Generated using &quot;atomic&quot; code by A. Dal Corso  v.6.2.2
     Using radial grid of 1201 points,  6 beta functions with: 
                l(1) =   0
                l(2) =   0
                l(3) =   1
                l(4) =   1
                l(5) =   2
                l(6) =   2
     Q(r) pseudized with 0 coefficients 


     PseudoPot. # 2 for O  read from file:
     /home/jvc/QEspresso7.2/ZnO_database/pseudos/O.upf
     MD5 check sum: 91400c9766925bcf19f520983a725ff0
     Pseudo is Ultrasoft + core correction, Zval =  6.0
     Generated using &quot;atomic&quot; code by A. Dal Corso  v.6.3MaX
     Using radial grid of 1095 points,  4 beta functions with: 
                l(1) =   0
                l(2) =   0
                l(3) =   1
                l(4) =   1
     Q(r) pseudized with 0 coefficients 


     atomic species   valence    mass     pseudopotential
        Zn            12.00    63.38000     Zn( 1.00)
        O              6.00    15.99900     O ( 1.00)

     12 Sym. Ops. (no inversion) found ( 6 have fractional translation)



   Cartesian axes

     site n.     atom                  positions (alat units)
         1           Zn  tau(   1) = (   0.5000000   0.2886751   0.8647762  )
         2           Zn  tau(   2) = (  -0.0000000   0.5773503   0.0010944  )
         3           O   tau(   3) = (   0.5000000   0.2886751   1.5195209  )
         4           O   tau(   4) = (  -0.0000000   0.5773503   0.6558392  )

     number of k points=    28
                       cart. coord. in units 2pi/alat
        k(    1) = (   0.0000000   0.0000000   0.0000000), wk =   0.0092593
        k(    2) = (   0.0000000   0.0000000   0.0964862), wk =   0.0185185
        k(    3) = (   0.0000000   0.0000000   0.1929723), wk =   0.0185185
        k(    4) = (   0.0000000   0.0000000  -0.2894585), wk =   0.0092593
        k(    5) = (   0.0000000   0.1924501   0.0000000), wk =   0.0555556
        k(    6) = (   0.0000000   0.1924501   0.0964862), wk =   0.1111111
        k(    7) = (   0.0000000   0.1924501   0.1929723), wk =   0.1111111
        k(    8) = (   0.0000000   0.1924501  -0.2894585), wk =   0.0555556
        k(    9) = (   0.0000000   0.3849002   0.0000000), wk =   0.0555556
        k(   10) = (   0.0000000   0.3849002   0.0964862), wk =   0.1111111
        k(   11) = (   0.0000000   0.3849002   0.1929723), wk =   0.1111111
        k(   12) = (   0.0000000   0.3849002  -0.2894585), wk =   0.0555556
        k(   13) = (   0.0000000  -0.5773503   0.0000000), wk =   0.0277778
        k(   14) = (   0.0000000  -0.5773503   0.0964862), wk =   0.0555556
        k(   15) = (   0.0000000  -0.5773503   0.1929723), wk =   0.0555556
        k(   16) = (   0.0000000  -0.5773503  -0.2894585), wk =   0.0277778
        k(   17) = (   0.1666667   0.2886751   0.0000000), wk =   0.0555556
        k(   18) = (   0.1666667   0.2886751   0.0964862), wk =   0.1111111
        k(   19) = (   0.1666667   0.2886751   0.1929723), wk =   0.1111111
        k(   20) = (   0.1666667   0.2886751  -0.2894585), wk =   0.0555556
        k(   21) = (   0.1666667   0.4811252   0.0000000), wk =   0.1111111
        k(   22) = (   0.1666667   0.4811252   0.0964862), wk =   0.2222222
        k(   23) = (   0.1666667   0.4811252   0.1929723), wk =   0.2222222
        k(   24) = (   0.1666667   0.4811252  -0.2894585), wk =   0.1111111
        k(   25) = (   0.3333333   0.5773503   0.0000000), wk =   0.0185185
        k(   26) = (   0.3333333   0.5773503   0.0964862), wk =   0.0370370
        k(   27) = (   0.3333333   0.5773503   0.1929723), wk =   0.0370370
        k(   28) = (   0.3333333   0.5773503  -0.2894585), wk =   0.0185185

     Dense  grid:    52047 G-vectors     FFT dimensions: (  45,  45,  72)

     Smooth grid:    18487 G-vectors     FFT dimensions: (  30,  30,  50)

     Estimated max dynamical RAM per process >      29.80 MB

     Estimated total dynamical RAM >     238.41 MB

     Check: negative core charge=   -0.000002

     Initial potential from superposition of free atoms

     starting charge      35.9925, renormalised to      36.0000
     Starting wfcs are   26 randomized atomic wfcs

     total cpu time spent up to now is        1.7 secs

     Self-consistent Calculation

     iteration #  1     ecut=    50.00 Ry     beta= 0.30
     Davidson diagonalization with overlap
     ethr =  1.00E-02,  avg # of iterations =  1.4

     total cpu time spent up to now is        2.6 secs

     total energy              =    -361.42291942 Ry
     estimated scf accuracy    <       0.76773032 Ry

     iteration #  2     ecut=    50.00 Ry     beta= 0.30
     Davidson diagonalization with overlap
     ethr =  2.13E-03,  avg # of iterations =  2.0

     total cpu time spent up to now is        3.6 secs

     total energy              =    -361.54194743 Ry
     estimated scf accuracy    <       0.08643040 Ry

     iteration #  3     ecut=    50.00 Ry     beta= 0.30
     Davidson diagonalization with overlap
     ethr =  2.40E-04,  avg # of iterations =  6.7

     total cpu time spent up to now is        5.4 secs

     total energy              =    -361.55778231 Ry
     estimated scf accuracy    <       0.09322313 Ry

     iteration #  4     ecut=    50.00 Ry     beta= 0.30
     Davidson diagonalization with overlap
     ethr =  2.40E-04,  avg # of iterations =  8.8

     total cpu time spent up to now is        7.7 secs

     total energy              =    -361.62661787 Ry
     estimated scf accuracy    <       0.37628535 Ry

     iteration #  5     ecut=    50.00 Ry     beta= 0.30
     Davidson diagonalization with overlap
     ethr =  2.40E-04,  avg # of iterations =  2.0

     total cpu time spent up to now is        8.6 secs

     total energy              =    -361.50429652 Ry
     estimated scf accuracy    <       0.23478517 Ry

     iteration #  6     ecut=    50.00 Ry     beta= 0.30
     Davidson diagonalization with overlap
     ethr =  2.40E-04,  avg # of iterations =  6.4

     total cpu time spent up to now is       10.3 secs

     total energy              =    -361.61543633 Ry
     estimated scf accuracy    <       0.07304358 Ry

     iteration #  7     ecut=    50.00 Ry     beta= 0.30
     Davidson diagonalization with overlap
     ethr =  2.03E-04,  avg # of iterations =  1.0

     total cpu time spent up to now is       11.2 secs

     total energy              =    -361.60833898 Ry
     estimated scf accuracy    <       0.05521375 Ry

     iteration #  8     ecut=    50.00 Ry     beta= 0.30
     Davidson diagonalization with overlap
     ethr =  1.53E-04,  avg # of iterations =  1.1

     total cpu time spent up to now is       12.1 secs

     total energy              =    -361.60931225 Ry
     estimated scf accuracy    <       0.03250875 Ry

     iteration #  9     ecut=    50.00 Ry     beta= 0.30
     Davidson diagonalization with overlap
     ethr =  9.03E-05,  avg # of iterations =  1.0

     total cpu time spent up to now is       13.0 secs

     total energy              =    -361.61039523 Ry
     estimated scf accuracy    <       0.03192006 Ry

     iteration # 10     ecut=    50.00 Ry     beta= 0.30
     Davidson diagonalization with overlap
     ethr =  8.87E-05,  avg # of iterations =  1.0

     total cpu time spent up to now is       13.9 secs

     total energy              =    -361.60777424 Ry
     estimated scf accuracy    <       0.02942269 Ry

     iteration # 11     ecut=    50.00 Ry     beta= 0.30
     Davidson diagonalization with overlap
     ethr =  8.17E-05,  avg # of iterations =  1.0

     total cpu time spent up to now is       14.8 secs

     total energy              =    -361.60674130 Ry
     estimated scf accuracy    <       0.02152863 Ry

     iteration # 12     ecut=    50.00 Ry     beta= 0.30
     Davidson diagonalization with overlap
     ethr =  5.98E-05,  avg # of iterations =  1.1

     total cpu time spent up to now is       15.7 secs

     total energy              =    -361.59779334 Ry
     estimated scf accuracy    <       0.01643943 Ry

     iteration # 13     ecut=    50.00 Ry     beta= 0.30
     Davidson diagonalization with overlap
     ethr =  4.57E-05,  avg # of iterations =  5.1

     total cpu time spent up to now is       17.2 secs

     total energy              =    -361.60663754 Ry
     estimated scf accuracy    <       0.00588072 Ry

     iteration # 14     ecut=    50.00 Ry     beta= 0.30
     Davidson diagonalization with overlap
     ethr =  1.63E-05,  avg # of iterations =  1.3

     total cpu time spent up to now is       18.1 secs

     total energy              =    -361.60915253 Ry
     estimated scf accuracy    <       0.00627709 Ry

     iteration # 15     ecut=    50.00 Ry     beta= 0.30
     Davidson diagonalization with overlap
     ethr =  1.63E-05,  avg # of iterations =  2.3

     total cpu time spent up to now is       19.1 secs

     total energy              =    -361.61105688 Ry
     estimated scf accuracy    <       0.01370739 Ry

     iteration # 16     ecut=    50.00 Ry     beta= 0.30
     Davidson diagonalization with overlap
     ethr =  1.63E-05,  avg # of iterations =  2.0

     total cpu time spent up to now is       20.1 secs

     total energy              =    -361.61023376 Ry
     estimated scf accuracy    <       0.01909207 Ry

     iteration # 17     ecut=    50.00 Ry     beta= 0.30
     Davidson diagonalization with overlap
     ethr =  1.63E-05,  avg # of iterations =  1.2

     total cpu time spent up to now is       21.0 secs

     total energy              =    -361.60795525 Ry
     estimated scf accuracy    <       0.01790674 Ry

     iteration # 18     ecut=    50.00 Ry     beta= 0.30
     Davidson diagonalization with overlap
     ethr =  1.63E-05,  avg # of iterations =  1.0

     total cpu time spent up to now is       21.8 secs

     total energy              =    -361.59901457 Ry
     estimated scf accuracy    <       0.01383717 Ry

     iteration # 19     ecut=    50.00 Ry     beta= 0.30
     Davidson diagonalization with overlap
     ethr =  1.63E-05,  avg # of iterations =  6.9

     total cpu time spent up to now is       23.7 secs

     total energy              =    -361.60423924 Ry
     estimated scf accuracy    <       0.00912558 Ry

     iteration # 20     ecut=    50.00 Ry     beta= 0.30
     Davidson diagonalization with overlap
     ethr =  1.63E-05,  avg # of iterations =  2.0

     total cpu time spent up to now is       24.6 secs

     total energy              =    -361.60326205 Ry
     estimated scf accuracy    <       0.00334268 Ry

     iteration # 21     ecut=    50.00 Ry     beta= 0.30
     Davidson diagonalization with overlap
     ethr =  9.29E-06,  avg # of iterations =  5.0

     total cpu time spent up to now is       26.1 secs

     total energy              =    -361.60510134 Ry
     estimated scf accuracy    <       0.00069285 Ry

     iteration # 22     ecut=    50.00 Ry     beta= 0.30
     Davidson diagonalization with overlap
     ethr =  1.92E-06,  avg # of iterations =  2.1

     total cpu time spent up to now is       27.0 secs

     total energy              =    -361.60503366 Ry
     estimated scf accuracy    <       0.00065366 Ry

     iteration # 23     ecut=    50.00 Ry     beta= 0.30
     Davidson diagonalization with overlap
     ethr =  1.82E-06,  avg # of iterations =  1.2

     total cpu time spent up to now is       27.9 secs

     total energy              =    -361.60492819 Ry
     estimated scf accuracy    <       0.00041478 Ry

     iteration # 24     ecut=    50.00 Ry     beta= 0.30
     Davidson diagonalization with overlap
     ethr =  1.15E-06,  avg # of iterations =  2.0

     total cpu time spent up to now is       28.9 secs

     total energy              =    -361.60488331 Ry
     estimated scf accuracy    <       0.00011176 Ry

     iteration # 25     ecut=    50.00 Ry     beta= 0.30
     Davidson diagonalization with overlap
     ethr =  3.10E-07,  avg # of iterations =  7.7

     total cpu time spent up to now is       30.9 secs

     total energy              =    -361.60503919 Ry
     estimated scf accuracy    <       0.00033947 Ry

     iteration # 26     ecut=    50.00 Ry     beta= 0.30
     Davidson diagonalization with overlap
     ethr =  3.10E-07,  avg # of iterations =  1.0

     total cpu time spent up to now is       31.8 secs

     total energy              =    -361.60495490 Ry
     estimated scf accuracy    <       0.00027882 Ry

     iteration # 27     ecut=    50.00 Ry     beta= 0.30
     Davidson diagonalization with overlap
     ethr =  3.10E-07,  avg # of iterations =  3.1

     total cpu time spent up to now is       32.9 secs

     total energy              =    -361.60497148 Ry
     estimated scf accuracy    <       0.00010083 Ry

     iteration # 28     ecut=    50.00 Ry     beta= 0.30
     Davidson diagonalization with overlap
     ethr =  2.80E-07,  avg # of iterations =  2.0

     total cpu time spent up to now is       33.9 secs

     total energy              =    -361.60498044 Ry
     estimated scf accuracy    <       0.00006513 Ry

     iteration # 29     ecut=    50.00 Ry     beta= 0.30
     Davidson diagonalization with overlap
     ethr =  1.81E-07,  avg # of iterations =  1.9

     total cpu time spent up to now is       34.8 secs

     total energy              =    -361.60497604 Ry
     estimated scf accuracy    <       0.00005184 Ry

     iteration # 30     ecut=    50.00 Ry     beta= 0.30
     Davidson diagonalization with overlap
     ethr =  1.44E-07,  avg # of iterations =  2.0

     total cpu time spent up to now is       35.8 secs

     total energy              =    -361.60498327 Ry
     estimated scf accuracy    <       0.00002752 Ry

     iteration # 31     ecut=    50.00 Ry     beta= 0.30
     Davidson diagonalization with overlap
     ethr =  7.64E-08,  avg # of iterations =  2.1

     total cpu time spent up to now is       36.8 secs

     total energy              =    -361.60498346 Ry
     estimated scf accuracy    <       0.00002740 Ry

     iteration # 32     ecut=    50.00 Ry     beta= 0.30
     Davidson diagonalization with overlap
     ethr =  7.61E-08,  avg # of iterations =  1.6

     total cpu time spent up to now is       37.7 secs

     total energy              =    -361.60498259 Ry
     estimated scf accuracy    <       0.00002178 Ry

     iteration # 33     ecut=    50.00 Ry     beta= 0.30
     Davidson diagonalization with overlap
     ethr =  6.05E-08,  avg # of iterations =  1.6

     total cpu time spent up to now is       38.6 secs

     total energy              =    -361.60498342 Ry
     estimated scf accuracy    <       0.00001638 Ry

     iteration # 34     ecut=    50.00 Ry     beta= 0.30
     Davidson diagonalization with overlap
     ethr =  4.55E-08,  avg # of iterations =  2.0

     total cpu time spent up to now is       39.6 secs

     total energy              =    -361.60498757 Ry
     estimated scf accuracy    <       0.00001304 Ry

     iteration # 35     ecut=    50.00 Ry     beta= 0.30
     Davidson diagonalization with overlap
     ethr =  3.62E-08,  avg # of iterations =  1.6

     total cpu time spent up to now is       40.5 secs

     total energy              =    -361.60498177 Ry
     estimated scf accuracy    <       0.00001867 Ry

     iteration # 36     ecut=    50.00 Ry     beta= 0.30
     Davidson diagonalization with overlap
     ethr =  3.62E-08,  avg # of iterations =  2.7

     total cpu time spent up to now is       41.5 secs

     total energy              =    -361.60497978 Ry
     estimated scf accuracy    <       0.00000627 Ry

     iteration # 37     ecut=    50.00 Ry     beta= 0.30
     Davidson diagonalization with overlap
     ethr =  1.74E-08,  avg # of iterations =  5.9

     total cpu time spent up to now is       43.1 secs

     total energy              =    -361.60498366 Ry
     estimated scf accuracy    <       0.00000330 Ry

     iteration # 38     ecut=    50.00 Ry     beta= 0.30
     Davidson diagonalization with overlap
     ethr =  9.16E-09,  avg # of iterations =  1.2

     total cpu time spent up to now is       44.0 secs

     total energy              =    -361.60498339 Ry
     estimated scf accuracy    <       0.00000168 Ry

     iteration # 39     ecut=    50.00 Ry     beta= 0.30
     Davidson diagonalization with overlap
     ethr =  4.67E-09,  avg # of iterations =  2.0

     total cpu time spent up to now is       45.0 secs

     total energy              =    -361.60498357 Ry
     estimated scf accuracy    <       0.00000036 Ry

     iteration # 40     ecut=    50.00 Ry     beta= 0.30
     Davidson diagonalization with overlap
     ethr =  9.93E-10,  avg # of iterations =  4.3

     total cpu time spent up to now is       46.2 secs

     total energy              =    -361.60498376 Ry
     estimated scf accuracy    <       0.00000013 Ry

     iteration # 41     ecut=    50.00 Ry     beta= 0.30
     Davidson diagonalization with overlap
     ethr =  3.63E-10,  avg # of iterations = 12.1

     total cpu time spent up to now is       49.2 secs

     total energy              =    -361.60498462 Ry
     estimated scf accuracy    <       0.00000919 Ry

     iteration # 42     ecut=    50.00 Ry     beta= 0.30
     Davidson diagonalization with overlap
     ethr =  3.63E-10,  avg # of iterations =  6.1

     total cpu time spent up to now is       50.8 secs

     total energy              =    -361.60498539 Ry
     estimated scf accuracy    <       0.00000497 Ry

     iteration # 43     ecut=    50.00 Ry     beta= 0.30
     Davidson diagonalization with overlap
     ethr =  3.63E-10,  avg # of iterations =  4.8

     total cpu time spent up to now is       52.1 secs

     total energy              =    -361.60498276 Ry
     estimated scf accuracy    <       0.00000708 Ry

     iteration # 44     ecut=    50.00 Ry     beta= 0.30
     Davidson diagonalization with overlap
     ethr =  3.63E-10,  avg # of iterations = 11.1

     total cpu time spent up to now is       54.8 secs

     total energy              =    -361.60498366 Ry
     estimated scf accuracy    <       0.00000013 Ry

     iteration # 45     ecut=    50.00 Ry     beta= 0.30
     Davidson diagonalization with overlap
     ethr =  3.55E-10,  avg # of iterations =  1.6

     total cpu time spent up to now is       55.8 secs

     total energy              =    -361.60498360 Ry
     estimated scf accuracy    <       0.00000011 Ry

     iteration # 46     ecut=    50.00 Ry     beta= 0.30
     Davidson diagonalization with overlap
     ethr =  2.94E-10,  avg # of iterations =  5.2

     total cpu time spent up to now is       57.2 secs

     total energy              =    -361.60498365 Ry
     estimated scf accuracy    <       0.00000003 Ry

     iteration # 47     ecut=    50.00 Ry     beta= 0.30
     Davidson diagonalization with overlap
     ethr =  8.60E-11,  avg # of iterations =  1.6

     total cpu time spent up to now is       58.1 secs

     total energy              =    -361.60498364 Ry
     estimated scf accuracy    <       0.00000002 Ry

     iteration # 48     ecut=    50.00 Ry     beta= 0.30
     Davidson diagonalization with overlap
     ethr =  5.71E-11,  avg # of iterations =  4.5

     total cpu time spent up to now is       59.4 secs

     End of self-consistent calculation

          k = 0.0000 0.0000 0.0000 (  2311 PWs)   bands (ev):

   -12.0290 -11.6262  -0.2657  -0.2657  -0.2154  -0.1550  -0.1550   0.1573
     0.4938   0.4938   0.5995   0.5995   1.0313   4.3841   4.3841   4.6480
     4.8594   4.8594

          k = 0.0000 0.0000 0.0965 (  2299 PWs)   bands (ev):

   -12.0030 -11.6543  -0.2602  -0.2602  -0.2288  -0.1646  -0.1646   0.0231
     0.5025   0.5025   0.5945   0.5945   1.3066   4.0731   4.4163   4.4163
     4.8279   4.8279

          k = 0.0000 0.0000 0.1930 (  2299 PWs)   bands (ev):

   -11.9314 -11.7301  -0.2507  -0.2442  -0.2442  -0.1891  -0.1891  -0.1526
     0.5251   0.5251   0.5783   0.5783   1.8824   3.3104   4.5039   4.5039
     4.7415   4.7415

          k = 0.0000 0.0000-0.2895 (  2244 PWs)   bands (ev):

   -11.8318 -11.8318  -0.2401  -0.2401  -0.2184  -0.2184  -0.2184  -0.2184
     0.5540   0.5540   0.5540   0.5540   2.5709   2.5709   4.6231   4.6231
     4.6231   4.6231

          k = 0.0000 0.1925 0.0000 (  2297 PWs)   bands (ev):

   -11.9220 -11.5674  -0.3293  -0.1992  -0.1781  -0.1117  -0.0629   0.2339
     0.4537   0.4928   0.6046   0.6972   1.1269   3.4646   3.7612   4.1161
     4.5571   4.6932

          k = 0.0000 0.1925 0.0965 (  2297 PWs)   bands (ev):

   -11.8989 -11.5918  -0.3356  -0.1947  -0.1920  -0.1194  -0.0743   0.1171
     0.4689   0.5013   0.5979   0.6440   1.4227   3.4079   3.7109   4.1553
     4.4692   4.6550

          k = 0.0000 0.1925 0.1930 (  2291 PWs)   bands (ev):

   -11.8353 -11.6580  -0.3437  -0.2556  -0.1709  -0.1227  -0.1033  -0.0298
     0.5058   0.5237   0.5794   0.5961   1.9732   3.0730   3.7961   4.2580
     4.2618   4.5502

          k = 0.0000 0.1925-0.2895 (  2298 PWs)   bands (ev):

   -11.7473 -11.7473  -0.3229  -0.3229  -0.1391  -0.1391  -0.0977  -0.0977
     0.5512   0.5512   0.5524   0.5524   2.5563   2.5563   4.0078   4.0078
     4.4064   4.4064

          k = 0.0000 0.3849 0.0000 (  2306 PWs)   bands (ev):

   -11.6879 -11.4600  -0.3636  -0.1617  -0.0925   0.1242   0.1424   0.3274
     0.4384   0.5440   0.6205   0.7767   1.5109   2.0750   2.7526   3.5748
     4.1645   4.3414

          k = 0.0000 0.3849 0.0965 (  2306 PWs)   bands (ev):

   -11.6725 -11.4750  -0.3711  -0.1928  -0.0787   0.1157   0.1246   0.2645
     0.4549   0.5485   0.6143   0.7242   1.6219   2.1453   2.7916   3.6279
     4.1364   4.2910

          k = 0.0000 0.3849 0.1930 (  2299 PWs)   bands (ev):

   -11.6305 -11.5164  -0.3780  -0.2731  -0.0398   0.0774   0.1026   0.1611
     0.5088   0.5610   0.5985   0.6490   1.8034   2.1372   3.0955   3.7711
     3.9663   4.1531

          k = 0.0000 0.3849-0.2895 (  2304 PWs)   bands (ev):

   -11.5733 -11.5733  -0.3497  -0.3497   0.0167   0.0167   0.1100   0.1100
     0.5774   0.5774   0.5789   0.5789   1.9849   1.9849   3.5811   3.5811
     3.9634   3.9634

          k = 0.0000-0.5774 0.0000 (  2296 PWs)   bands (ev):

   -11.5467 -11.4250  -0.3083  -0.1045  -0.0580   0.2339   0.2520   0.4161
     0.5818   0.6086   0.6416   0.7021   1.2519   1.6989   2.5808   3.2892
     3.7845   4.1549

          k = 0.0000-0.5774 0.0965 (  2304 PWs)   bands (ev):

   -11.5380 -11.4325  -0.3215  -0.1554  -0.0404   0.2281   0.2379   0.3969
     0.5952   0.6096   0.6370   0.7007   1.2423   1.6326   2.7733   3.3504
     3.8274   4.0987

          k = 0.0000-0.5774 0.1930 (  2308 PWs)   bands (ev):

   -11.5146 -11.4537  -0.3420  -0.2567   0.0106   0.1653   0.2538   0.3428
     0.6130   0.6276   0.6347   0.6931   1.2643   1.4894   3.2013   3.5140
     3.8306   3.9445

          k = 0.0000-0.5774-0.2895 (  2348 PWs)   bands (ev):

   -11.4836 -11.4836  -0.3287  -0.3287   0.0845   0.0845   0.2884   0.2884
     0.6187   0.6187   0.6719   0.6719   1.3516   1.3516   3.6160   3.6160
     3.7314   3.7314

          k = 0.1667 0.2887 0.0000 (  2305 PWs)   bands (ev):

   -11.7507 -11.4845  -0.2967  -0.2019  -0.0760  -0.0427   0.1097   0.3173
     0.4166   0.5115   0.6142   0.7724   1.4236   2.7170   2.7893   3.5650
     4.2809   4.3203

          k = 0.1667 0.2887 0.0965 (  2297 PWs)   bands (ev):

   -11.7329 -11.5023  -0.3076  -0.2073  -0.0789  -0.0540   0.0966   0.2198
     0.4407   0.5254   0.6080   0.7148   1.6313   2.6630   2.8962   3.5898
     4.2276   4.2716

          k = 0.1667 0.2887 0.1930 (  2295 PWs)   bands (ev):

   -11.6843 -11.5511  -0.3231  -0.2460  -0.0782  -0.0702   0.0655   0.0892
     0.4988   0.5460   0.5918   0.6417   1.9810   2.5069   3.2120   3.6852
     4.0738   4.0855

          k = 0.1667 0.2887-0.2895 (  2282 PWs)   bands (ev):

   -11.6178 -11.6178  -0.3050  -0.3050  -0.0721  -0.0721   0.0462   0.0462
     0.5606   0.5606   0.5791   0.5791   2.2766   2.2766   3.6333   3.6333
     3.9155   3.9155

          k = 0.1667 0.4811 0.0000 (  2311 PWs)   bands (ev):

   -11.5512 -11.4230  -0.2540  -0.0527   0.0154   0.2034   0.2702   0.3280
     0.4697   0.5438   0.6632   0.8113   1.4359   1.8683   2.5743   2.8860
     3.7575   3.8993

          k = 0.1667 0.4811 0.0965 (  2304 PWs)   bands (ev):

   -11.5421 -11.4310  -0.2527  -0.0765  -0.0065   0.1992   0.2416   0.2878
     0.4815   0.5679   0.6639   0.7941   1.4360   1.8398   2.6943   3.0006
     3.7160   3.9094

          k = 0.1667 0.4811 0.1930 (  2301 PWs)   bands (ev):

   -11.5176 -11.4534  -0.2510  -0.1558  -0.0022   0.1517   0.1961   0.2344
     0.5332   0.5855   0.6721   0.7497   1.4872   1.7328   2.9502   3.3023
     3.5609   3.9024

          k = 0.1667 0.4811-0.2895 (  2302 PWs)   bands (ev):

   -11.4850 -11.4850  -0.2271  -0.2271   0.0581   0.0581   0.2052   0.2052
     0.5754   0.5754   0.7010   0.7010   1.5977   1.5977   3.2291   3.2291
     3.7235   3.7235

          k = 0.3333 0.5774 0.0000 (  2313 PWs)   bands (ev):

   -11.4440 -11.4440  -0.2493   0.1245   0.1245   0.2486   0.4527   0.4527
     0.4601   0.5129   0.7081   0.7081   1.6072   1.6072   1.9192   3.3236
     3.3236   3.3256

          k = 0.3333 0.5774 0.0965 (  2319 PWs)   bands (ev):

   -11.4433 -11.4433  -0.2267   0.0876   0.0876   0.1954   0.4268   0.4268
     0.4651   0.5096   0.7471   0.7471   1.5679   1.5679   2.0235   3.2313
     3.4377   3.4377

          k = 0.3333 0.5774 0.1930 (  2313 PWs)   bands (ev):

   -11.4419 -11.4419  -0.1601   0.0138   0.0138   0.0751   0.3969   0.3969
     0.4759   0.5008   0.8057   0.8057   1.5010   1.5010   2.2915   2.9783
     3.6563   3.6563

          k = 0.3333 0.5774-0.2895 (  2316 PWs)   bands (ev):

   -11.4412 -11.4412  -0.0546  -0.0546  -0.0224  -0.0224   0.3871   0.3871
     0.4886   0.4886   0.8301   0.8301   1.4715   1.4715   2.6377   2.6377
     3.7625   3.7625

     highest occupied level (ev):     4.8594

!    total energy              =    -361.60498364 Ry
     estimated scf accuracy    <          2.4E-11 Ry

     The total energy is the sum of the following terms:
     one-electron contribution =    -172.36434840 Ry
     hartree contribution      =     124.75838244 Ry
     xc contribution           =    -109.25692885 Ry
     ewald contribution        =    -204.74208884 Ry

     convergence has been achieved in  48 iterations

     Forces acting on atoms (cartesian axes, Ry/au):

     atom    1 type  1   force =     0.00000000    0.00000000   -0.00015456
     atom    2 type  1   force =     0.00000000    0.00000000   -0.00015456
     atom    3 type  2   force =     0.00000000   -0.00000000    0.00015456
     atom    4 type  2   force =     0.00000000   -0.00000000    0.00015456
     The non-local contrib.  to forces
     atom    1 type  1   force =    -0.00000000   -0.00000000    0.16815178
     atom    2 type  1   force =     0.00000000    0.00000000    0.16815178
     atom    3 type  2   force =     0.00000000   -0.00000000    0.18177083
     atom    4 type  2   force =     0.00000000   -0.00000000    0.18177083
     The ionic contribution  to forces
     atom    1 type  1   force =    -0.00000000    0.00000000    1.31764746
     atom    2 type  1   force =     0.00000000   -0.00000000    1.31764746
     atom    3 type  2   force =    -0.00000000    0.00000000   -1.31764746
     atom    4 type  2   force =     0.00000000   -0.00000000   -1.31764746
     The local contribution  to forces
     atom    1 type  1   force =    -0.00000002    0.00000001   -1.47539317
     atom    2 type  1   force =     0.00000007   -0.00000004   -1.47539316
     atom    3 type  2   force =    -0.00000001    0.00000000    1.13763324
     atom    4 type  2   force =     0.00000002   -0.00000001    1.13763323
     The core correction contribution to forces
     atom    1 type  1   force =    -0.00000000    0.00000000   -0.01055915
     atom    2 type  1   force =     0.00000001   -0.00000001   -0.01055915
     atom    3 type  2   force =     0.00000000   -0.00000000   -0.00160901
     atom    4 type  2   force =    -0.00000000    0.00000000   -0.00160901
     The Hubbard contrib.    to forces
     atom    1 type  1   force =     0.00000000    0.00000000    0.00000000
     atom    2 type  1   force =     0.00000000    0.00000000    0.00000000
     atom    3 type  2   force =     0.00000000    0.00000000    0.00000000
     atom    4 type  2   force =     0.00000000    0.00000000    0.00000000
     The SCF correction term to forces
     atom    1 type  1   force =     0.00000000   -0.00000000   -0.00000496
     atom    2 type  1   force =    -0.00000000    0.00000000   -0.00000496
     atom    3 type  2   force =     0.00000000   -0.00000000    0.00000349
     atom    4 type  2   force =    -0.00000000    0.00000000    0.00000349

     Total force =     0.000309     Total SCF correction =     0.000009


     Computing stress (Cartesian axis) and pressure

          total   stress  (Ry/bohr**3)                   (kbar)     P=     -142.38
  -0.00081307   0.00000000   0.00000000         -119.61        0.00        0.00
   0.00000000  -0.00081307   0.00000000            0.00     -119.61        0.00
   0.00000000   0.00000000  -0.00127755            0.00        0.00     -187.93


     Writing all to output data dir ./ZnO_ANN.save/

     init_run     :      2.00s CPU      1.32s WALL (       1 calls)
     electrons    :    153.99s CPU     57.77s WALL (       1 calls)
     forces       :      0.73s CPU      0.36s WALL (       1 calls)
     stress       :      2.66s CPU      1.34s WALL (       1 calls)

     Called by init_run:
     wfcinit      :      1.12s CPU      0.44s WALL (       1 calls)
     potinit      :      0.25s CPU      0.25s WALL (       1 calls)
     hinit0       :      0.47s CPU      0.48s WALL (       1 calls)

     Called by electrons:
     c_bands      :    119.82s CPU     44.41s WALL (      48 calls)
     sum_band     :     25.05s CPU      9.68s WALL (      48 calls)
     v_of_rho     :      2.14s CPU      0.93s WALL (      49 calls)
     newd         :      6.43s CPU      2.57s WALL (      49 calls)
     mix_rho      :      0.37s CPU      0.15s WALL (      48 calls)

     Called by c_bands:
     init_us_2    :      2.32s CPU      0.82s WALL (    2772 calls)
     init_us_2:cp :      2.28s CPU      0.81s WALL (    2772 calls)
     cegterg      :    114.55s CPU     42.36s WALL (    1344 calls)

     Called by *egterg:
     cdiaghg      :     16.21s CPU      5.23s WALL (    5699 calls)
     h_psi        :     81.00s CPU     32.95s WALL (    5727 calls)
     s_psi        :      1.81s CPU      0.51s WALL (    5727 calls)
     g_psi        :      0.61s CPU      0.15s WALL (    4355 calls)

     Called by h_psi:
     h_psi:calbec :      2.55s CPU      0.90s WALL (    5727 calls)
     vloc_psi     :     75.98s CPU     31.27s WALL (    5727 calls)
     add_vuspsi   :      1.79s CPU      0.57s WALL (    5727 calls)

     General routines
     calbec       :      3.37s CPU      1.17s WALL (    7211 calls)
     fft          :      1.42s CPU      0.71s WALL (     660 calls)
     ffts         :      0.18s CPU      0.13s WALL (      97 calls)
     fftw         :     77.62s CPU     32.02s WALL (  162456 calls)
     interpolate  :      0.25s CPU      0.16s WALL (      49 calls)

     Parallel routines

     PWSCF        :   2m39.92s CPU   1m 1.27s WALL


   This run was terminated on:  18: 8:27  13Jun2025            

=------------------------------------------------------------------------------=
   JOB DONE.
=------------------------------------------------------------------------------=
Note: The following floating-point exceptions are signalling: IEEE_INVALID_FLAG
