Authorization required, but no authorization protocol specified

Authorization required, but no authorization protocol specified

Authorization required, but no authorization protocol specified

Authorization required, but no authorization protocol specified

Authorization required, but no authorization protocol specified

Authorization required, but no authorization protocol specified

Authorization required, but no authorization protocol specified

Authorization required, but no authorization protocol specified

Authorization required, but no authorization protocol specified

Authorization required, but no authorization protocol specified


     Program PWSCF v.7.2 starts on 13Jun2025 at 17:29:42 

     This program is part of the open-source Quantum ESPRESSO suite
     for quantum simulation of materials; please cite
         "P. Giannozzi et al., J. Phys.:Condens. Matter 21 395502 (2009);
         "P. Giannozzi et al., J. Phys.:Condens. Matter 29 465901 (2017);
         "P. Giannozzi et al., J. Chem. Phys. 152 154105 (2020);
          URL http://www.quantum-espresso.org", 
     in publications or presentations arising from this work. More details at
     http://www.quantum-espresso.org/quote

     Parallel version (MPI), running on     8 processors

     MPI processes distributed on     1 nodes
     120703 MiB available memory on the printing compute node when the environment starts

     Reading input from /home/jvc/QEspresso7.2/ZnO_database_python/SCFs.in/scf-6.24-1.63.in

     Current dimensions of program PWSCF are:
     Max number of different atomic species (ntypx) = 10
     Max number of k-points (npk) =  40000
     Max angular momentum in pseudopotentials (lmaxx) =  4
     file Zn.upf: wavefunction(s)  3D renormalized

     R & G space division:  proc/nbgrp/npool/nimage =       8
     Subspace diagonalization in iterative solution of the eigenvalue problem:
     a serial algorithm will be used


     Parallelization info
     --------------------
     sticks:   dense  smooth     PW     G-vecs:    dense   smooth      PW
     Min         133      66     20                 5789     2036     346
     Max         134      68     21                 5796     2039     351
     Sum        1069     535    163                46349    16299    2779

     Using Slab Decomposition



     bravais-lattice index     =            4
     lattice parameter (alat)  =       6.2406  a.u.
     unit-cell volume          =     343.1887 (a.u.)^3
     number of atoms/cell      =            4
     number of atomic types    =            2
     number of electrons       =        36.00
     number of Kohn-Sham states=           18
     kinetic-energy cutoff     =      50.0000  Ry
     charge density cutoff     =     400.0000  Ry
     scf convergence threshold =      1.0E-08
     mixing beta               =       0.3000
     number of iterations used =            8  plain     mixing
     Exchange-correlation= PBE
                           (   1   4   3   4   0   0   0)

     celldm(1)=   6.240610  celldm(2)=   0.000000  celldm(3)=   1.630502
     celldm(4)=   0.000000  celldm(5)=   0.000000  celldm(6)=   0.000000

     crystal axes: (cart. coord. in units of alat)
               a(1) = (   1.000000   0.000000   0.000000 )  
               a(2) = (  -0.500000   0.866025   0.000000 )  
               a(3) = (   0.000000   0.000000   1.630502 )  

     reciprocal axes: (cart. coord. in units 2 pi/alat)
               b(1) = (  1.000000  0.577350 -0.000000 )  
               b(2) = (  0.000000  1.154701  0.000000 )  
               b(3) = (  0.000000 -0.000000  0.613308 )  


     PseudoPot. # 1 for Zn read from file:
     /home/jvc/QEspresso7.2/ZnO_database/pseudos/Zn.upf
     MD5 check sum: 7f56cabf9682ed8c977c2f7d0c5985c5
     Pseudo is Ultrasoft + core correction, Zval = 12.0
     Generated using &quot;atomic&quot; code by A. Dal Corso  v.6.2.2
     Using radial grid of 1201 points,  6 beta functions with: 
                l(1) =   0
                l(2) =   0
                l(3) =   1
                l(4) =   1
                l(5) =   2
                l(6) =   2
     Q(r) pseudized with 0 coefficients 


     PseudoPot. # 2 for O  read from file:
     /home/jvc/QEspresso7.2/ZnO_database/pseudos/O.upf
     MD5 check sum: 91400c9766925bcf19f520983a725ff0
     Pseudo is Ultrasoft + core correction, Zval =  6.0
     Generated using &quot;atomic&quot; code by A. Dal Corso  v.6.3MaX
     Using radial grid of 1095 points,  4 beta functions with: 
                l(1) =   0
                l(2) =   0
                l(3) =   1
                l(4) =   1
     Q(r) pseudized with 0 coefficients 


     atomic species   valence    mass     pseudopotential
        Zn            12.00    63.38000     Zn( 1.00)
        O              6.00    15.99900     O ( 1.00)

     12 Sym. Ops. (no inversion) found ( 6 have fractional translation)



   Cartesian axes

     site n.     atom                  positions (alat units)
         1           Zn  tau(   1) = (   0.5000000   0.2886751   0.8162840  )
         2           Zn  tau(   2) = (  -0.0000000   0.5773503   0.0010331  )
         3           O   tau(   3) = (   0.5000000   0.2886751   1.4343141  )
         4           O   tau(   4) = (  -0.0000000   0.5773503   0.6190631  )

     number of k points=    28
                       cart. coord. in units 2pi/alat
        k(    1) = (   0.0000000   0.0000000   0.0000000), wk =   0.0092593
        k(    2) = (   0.0000000   0.0000000   0.1022180), wk =   0.0185185
        k(    3) = (   0.0000000   0.0000000   0.2044360), wk =   0.0185185
        k(    4) = (   0.0000000   0.0000000  -0.3066540), wk =   0.0092593
        k(    5) = (   0.0000000   0.1924501   0.0000000), wk =   0.0555556
        k(    6) = (   0.0000000   0.1924501   0.1022180), wk =   0.1111111
        k(    7) = (   0.0000000   0.1924501   0.2044360), wk =   0.1111111
        k(    8) = (   0.0000000   0.1924501  -0.3066540), wk =   0.0555556
        k(    9) = (   0.0000000   0.3849002   0.0000000), wk =   0.0555556
        k(   10) = (   0.0000000   0.3849002   0.1022180), wk =   0.1111111
        k(   11) = (   0.0000000   0.3849002   0.2044360), wk =   0.1111111
        k(   12) = (   0.0000000   0.3849002  -0.3066540), wk =   0.0555556
        k(   13) = (   0.0000000  -0.5773503   0.0000000), wk =   0.0277778
        k(   14) = (   0.0000000  -0.5773503   0.1022180), wk =   0.0555556
        k(   15) = (   0.0000000  -0.5773503   0.2044360), wk =   0.0555556
        k(   16) = (   0.0000000  -0.5773503  -0.3066540), wk =   0.0277778
        k(   17) = (   0.1666667   0.2886751   0.0000000), wk =   0.0555556
        k(   18) = (   0.1666667   0.2886751   0.1022180), wk =   0.1111111
        k(   19) = (   0.1666667   0.2886751   0.2044360), wk =   0.1111111
        k(   20) = (   0.1666667   0.2886751  -0.3066540), wk =   0.0555556
        k(   21) = (   0.1666667   0.4811252   0.0000000), wk =   0.1111111
        k(   22) = (   0.1666667   0.4811252   0.1022180), wk =   0.2222222
        k(   23) = (   0.1666667   0.4811252   0.2044360), wk =   0.2222222
        k(   24) = (   0.1666667   0.4811252  -0.3066540), wk =   0.1111111
        k(   25) = (   0.3333333   0.5773503   0.0000000), wk =   0.0185185
        k(   26) = (   0.3333333   0.5773503   0.1022180), wk =   0.0370370
        k(   27) = (   0.3333333   0.5773503   0.2044360), wk =   0.0370370
        k(   28) = (   0.3333333   0.5773503  -0.3066540), wk =   0.0185185

     Dense  grid:    46349 G-vectors     FFT dimensions: (  40,  40,  72)

     Smooth grid:    16299 G-vectors     FFT dimensions: (  30,  30,  48)

     Estimated max dynamical RAM per process >      26.76 MB

     Estimated total dynamical RAM >     214.07 MB

     Check: negative core charge=   -0.000002

     Initial potential from superposition of free atoms

     starting charge      35.9925, renormalised to      36.0000
     Starting wfcs are   26 randomized atomic wfcs

     total cpu time spent up to now is        1.7 secs

     Self-consistent Calculation

     iteration #  1     ecut=    50.00 Ry     beta= 0.30
     Davidson diagonalization with overlap
     ethr =  1.00E-02,  avg # of iterations =  1.8

     total cpu time spent up to now is        2.6 secs

     total energy              =    -361.47266440 Ry
     estimated scf accuracy    <       0.70563389 Ry

     iteration #  2     ecut=    50.00 Ry     beta= 0.30
     Davidson diagonalization with overlap
     ethr =  1.96E-03,  avg # of iterations =  2.0

     total cpu time spent up to now is        3.6 secs

     total energy              =    -361.57979194 Ry
     estimated scf accuracy    <       0.08481286 Ry

     iteration #  3     ecut=    50.00 Ry     beta= 0.30
     Davidson diagonalization with overlap
     ethr =  2.36E-04,  avg # of iterations =  6.2

     total cpu time spent up to now is        5.2 secs

     total energy              =    -361.60686705 Ry
     estimated scf accuracy    <       0.06143645 Ry

     iteration #  4     ecut=    50.00 Ry     beta= 0.30
     Davidson diagonalization with overlap
     ethr =  1.71E-04,  avg # of iterations =  8.6

     total cpu time spent up to now is        7.2 secs

     total energy              =    -361.65463952 Ry
     estimated scf accuracy    <       0.26758938 Ry

     iteration #  5     ecut=    50.00 Ry     beta= 0.30
     Davidson diagonalization with overlap
     ethr =  1.71E-04,  avg # of iterations =  2.0

     total cpu time spent up to now is        8.1 secs

     total energy              =    -361.53117427 Ry
     estimated scf accuracy    <       0.16358001 Ry

     iteration #  6     ecut=    50.00 Ry     beta= 0.30
     Davidson diagonalization with overlap
     ethr =  1.71E-04,  avg # of iterations =  9.1

     total cpu time spent up to now is       10.2 secs

     total energy              =    -361.62211689 Ry
     estimated scf accuracy    <       0.41368557 Ry

     iteration #  7     ecut=    50.00 Ry     beta= 0.30
     Davidson diagonalization with overlap
     ethr =  1.71E-04,  avg # of iterations =  4.6

     total cpu time spent up to now is       11.4 secs

     total energy              =    -361.65157242 Ry
     estimated scf accuracy    <       0.09211445 Ry

     iteration #  8     ecut=    50.00 Ry     beta= 0.30
     Davidson diagonalization with overlap
     ethr =  1.71E-04,  avg # of iterations =  1.4

     total cpu time spent up to now is       12.2 secs

     total energy              =    -361.65063827 Ry
     estimated scf accuracy    <       0.09567210 Ry

     iteration #  9     ecut=    50.00 Ry     beta= 0.30
     Davidson diagonalization with overlap
     ethr =  1.71E-04,  avg # of iterations =  1.2

     total cpu time spent up to now is       13.1 secs

     total energy              =    -361.63180022 Ry
     estimated scf accuracy    <       0.08580367 Ry

     iteration # 10     ecut=    50.00 Ry     beta= 0.30
     Davidson diagonalization with overlap
     ethr =  1.71E-04,  avg # of iterations =  1.9

     total cpu time spent up to now is       13.9 secs

     total energy              =    -361.62028207 Ry
     estimated scf accuracy    <       0.04355707 Ry

     iteration # 11     ecut=    50.00 Ry     beta= 0.30
     Davidson diagonalization with overlap
     ethr =  1.21E-04,  avg # of iterations =  4.5

     total cpu time spent up to now is       15.1 secs

     total energy              =    -361.63493703 Ry
     estimated scf accuracy    <       0.00036722 Ry

     iteration # 12     ecut=    50.00 Ry     beta= 0.30
     Davidson diagonalization with overlap
     ethr =  1.02E-06,  avg # of iterations =  7.1

     total cpu time spent up to now is       16.8 secs

     total energy              =    -361.63566426 Ry
     estimated scf accuracy    <       0.00071117 Ry

     iteration # 13     ecut=    50.00 Ry     beta= 0.30
     Davidson diagonalization with overlap
     ethr =  1.02E-06,  avg # of iterations =  1.0

     total cpu time spent up to now is       17.6 secs

     total energy              =    -361.63569067 Ry
     estimated scf accuracy    <       0.00052274 Ry

     iteration # 14     ecut=    50.00 Ry     beta= 0.30
     Davidson diagonalization with overlap
     ethr =  1.02E-06,  avg # of iterations =  1.0

     total cpu time spent up to now is       18.4 secs

     total energy              =    -361.63540767 Ry
     estimated scf accuracy    <       0.00053670 Ry

     iteration # 15     ecut=    50.00 Ry     beta= 0.30
     Davidson diagonalization with overlap
     ethr =  1.02E-06,  avg # of iterations =  4.4

     total cpu time spent up to now is       19.7 secs

     total energy              =    -361.63557006 Ry
     estimated scf accuracy    <       0.00003717 Ry

     iteration # 16     ecut=    50.00 Ry     beta= 0.30
     Davidson diagonalization with overlap
     ethr =  1.03E-07,  avg # of iterations =  4.8

     total cpu time spent up to now is       20.8 secs

     total energy              =    -361.63558743 Ry
     estimated scf accuracy    <       0.00001904 Ry

     iteration # 17     ecut=    50.00 Ry     beta= 0.30
     Davidson diagonalization with overlap
     ethr =  5.29E-08,  avg # of iterations = 11.3

     total cpu time spent up to now is       23.5 secs

     total energy              =    -361.63569310 Ry
     estimated scf accuracy    <       0.00076837 Ry

     iteration # 18     ecut=    50.00 Ry     beta= 0.30
     Davidson diagonalization with overlap
     ethr =  5.29E-08,  avg # of iterations =  3.8

     total cpu time spent up to now is       24.5 secs

     total energy              =    -361.63566584 Ry
     estimated scf accuracy    <       0.00058283 Ry

     iteration # 19     ecut=    50.00 Ry     beta= 0.30
     Davidson diagonalization with overlap
     ethr =  5.29E-08,  avg # of iterations =  4.7

     total cpu time spent up to now is       25.6 secs

     total energy              =    -361.63573266 Ry
     estimated scf accuracy    <       0.00042917 Ry

     iteration # 20     ecut=    50.00 Ry     beta= 0.30
     Davidson diagonalization with overlap
     ethr =  5.29E-08,  avg # of iterations =  2.1

     total cpu time spent up to now is       26.5 secs

     total energy              =    -361.63594580 Ry
     estimated scf accuracy    <       0.00053940 Ry

     iteration # 21     ecut=    50.00 Ry     beta= 0.30
     Davidson diagonalization with overlap
     ethr =  5.29E-08,  avg # of iterations =  9.4

     total cpu time spent up to now is       28.7 secs

     total energy              =    -361.63598825 Ry
     estimated scf accuracy    <       0.00170310 Ry

     iteration # 22     ecut=    50.00 Ry     beta= 0.30
     Davidson diagonalization with overlap
     ethr =  5.29E-08,  avg # of iterations =  1.2

     total cpu time spent up to now is       29.5 secs

     total energy              =    -361.63623432 Ry
     estimated scf accuracy    <       0.00166070 Ry

     iteration # 23     ecut=    50.00 Ry     beta= 0.30
     Davidson diagonalization with overlap
     ethr =  5.29E-08,  avg # of iterations =  7.4

     total cpu time spent up to now is       31.3 secs

     total energy              =    -361.63567191 Ry
     estimated scf accuracy    <       0.00266149 Ry

     iteration # 24     ecut=    50.00 Ry     beta= 0.30
     Davidson diagonalization with overlap
     ethr =  5.29E-08,  avg # of iterations =  9.8

     total cpu time spent up to now is       33.7 secs

     total energy              =    -361.63548821 Ry
     estimated scf accuracy    <       0.00078628 Ry

     iteration # 25     ecut=    50.00 Ry     beta= 0.30
     Davidson diagonalization with overlap
     ethr =  5.29E-08,  avg # of iterations = 10.4

     total cpu time spent up to now is       36.0 secs

     total energy              =    -361.63557240 Ry
     estimated scf accuracy    <       0.00002631 Ry

     iteration # 26     ecut=    50.00 Ry     beta= 0.30
     Davidson diagonalization with overlap
     ethr =  5.29E-08,  avg # of iterations =  3.1

     total cpu time spent up to now is       37.0 secs

     total energy              =    -361.63557292 Ry
     estimated scf accuracy    <       0.00000432 Ry

     iteration # 27     ecut=    50.00 Ry     beta= 0.30
     Davidson diagonalization with overlap
     ethr =  1.20E-08,  avg # of iterations =  7.7

     total cpu time spent up to now is       38.8 secs

     total energy              =    -361.63557795 Ry
     estimated scf accuracy    <       0.00000791 Ry

     iteration # 28     ecut=    50.00 Ry     beta= 0.30
     Davidson diagonalization with overlap
     ethr =  1.20E-08,  avg # of iterations =  2.0

     total cpu time spent up to now is       39.7 secs

     total energy              =    -361.63557675 Ry
     estimated scf accuracy    <       0.00000365 Ry

     iteration # 29     ecut=    50.00 Ry     beta= 0.30
     Davidson diagonalization with overlap
     ethr =  1.01E-08,  avg # of iterations =  4.1

     total cpu time spent up to now is       40.9 secs

     total energy              =    -361.63557800 Ry
     estimated scf accuracy    <       0.00000003 Ry

     iteration # 30     ecut=    50.00 Ry     beta= 0.30
     Davidson diagonalization with overlap
     ethr =  7.51E-11,  avg # of iterations =  8.5

     total cpu time spent up to now is       42.8 secs

     total energy              =    -361.63557813 Ry
     estimated scf accuracy    <       0.00000018 Ry

     iteration # 31     ecut=    50.00 Ry     beta= 0.30
     Davidson diagonalization with overlap
     ethr =  7.51E-11,  avg # of iterations =  1.0

     total cpu time spent up to now is       43.6 secs

     total energy              =    -361.63557814 Ry
     estimated scf accuracy    <       0.00000018 Ry

     iteration # 32     ecut=    50.00 Ry     beta= 0.30
     Davidson diagonalization with overlap
     ethr =  7.51E-11,  avg # of iterations =  1.0

     total cpu time spent up to now is       44.4 secs

     total energy              =    -361.63557808 Ry
     estimated scf accuracy    <       0.00000018 Ry

     iteration # 33     ecut=    50.00 Ry     beta= 0.30
     Davidson diagonalization with overlap
     ethr =  7.51E-11,  avg # of iterations =  4.6

     total cpu time spent up to now is       45.7 secs

     total energy              =    -361.63557809 Ry
     estimated scf accuracy    <       0.00000002 Ry

     iteration # 34     ecut=    50.00 Ry     beta= 0.30
     Davidson diagonalization with overlap
     ethr =  6.35E-11,  avg # of iterations =  2.2

     total cpu time spent up to now is       46.6 secs

     End of self-consistent calculation

          k = 0.0000 0.0000 0.0000 (  1985 PWs)   bands (ev):

   -11.2682 -10.6586   0.9100   0.9100   0.9510   1.0782   1.0782   1.1357
     1.9185   1.9185   2.0919   2.0919   2.3645   5.6307   5.6307   6.2334
     6.3269   6.3269

          k = 0.0000 0.0000 0.1022 (  2021 PWs)   bands (ev):

   -11.2293 -10.7014   0.9129   0.9163   0.9163   1.0006   1.0613   1.0613
     1.9338   1.9338   2.0843   2.0843   2.6733   5.6627   5.6782   5.6782
     6.2812   6.2812

          k = 0.0000 0.0000 0.2044 (  1997 PWs)   bands (ev):

   -11.1215 -10.8168   0.8301   0.8314   0.9375   0.9375   1.0206   1.0206
     1.9739   1.9739   2.0611   2.0611   3.3322   4.8801   5.8076   5.8076
     6.1558   6.1558

          k = 0.0000 0.0000-0.3067 (  2038 PWs)   bands (ev):

   -10.9711 -10.9711   0.7794   0.7794   0.9737   0.9737   0.9737   0.9737
     2.0210   2.0210   2.0210   2.0210   4.0963   4.0963   5.9826   5.9826
     5.9826   5.9826

          k = 0.0000 0.1925 0.0000 (  2040 PWs)   bands (ev):

   -11.1389 -10.6005   0.7946   0.9839   1.0078   1.0907   1.1878   1.3222
     1.8669   1.9168   2.1007   2.2282   2.3370   4.7395   5.2177   5.3121
     6.0677   6.1493

          k = 0.0000 0.1925 0.1022 (  2035 PWs)   bands (ev):

   -11.1039 -10.6376   0.7718   0.9592   0.9931   1.0554   1.1690   1.2070
     1.8928   1.9318   2.0912   2.1399   2.7391   4.7734   5.0843   5.3700
     5.9872   6.0947

          k = 0.0000 0.1925 0.2044 (  2029 PWs)   bands (ev):

   -11.0075 -10.7382   0.7208   0.7982   1.0211   1.0380   1.1153   1.1218
     1.9529   1.9705   2.0628   2.0854   3.3956   4.5631   5.0969   5.5266
     5.7357   5.9446

          k = 0.0000 0.1925-0.3067 (  2012 PWs)   bands (ev):

   -10.8739 -10.8739   0.7075   0.7075   1.0632   1.0632   1.0668   1.0668
     2.0193   2.0193   2.0232   2.0232   4.0424   4.0424   5.3913   5.3913
     5.7372   5.7372

          k = 0.0000 0.3849 0.0000 (  2054 PWs)   bands (ev):

   -10.8499 -10.5015   0.6869   0.9905   1.1036   1.3128   1.4503   1.6045
     1.8494   1.9823   2.1183   2.2989   2.6101   3.3190   4.1238   4.6611
     5.5662   5.7654

          k = 0.0000 0.3849 0.1022 (  2048 PWs)   bands (ev):

   -10.8259 -10.5241   0.6623   0.9188   1.1220   1.2909   1.4213   1.4793
     1.8795   1.9903   2.1070   2.2289   2.8513   3.4484   4.1110   4.7410
     5.5733   5.6949

          k = 0.0000 0.3849 0.2044 (  2056 PWs)   bands (ev):

   -10.7609 -10.5864   0.6192   0.7513   1.1753   1.2633   1.3430   1.3469
     1.9617   2.0125   2.0787   2.1472   3.1285   3.5240   4.4129   4.9529
     5.4381   5.5010

          k = 0.0000 0.3849-0.3067 (  2054 PWs)   bands (ev):

   -10.6730 -10.6730   0.6323   0.6323   1.2560   1.2560   1.2779   1.2779
     2.0444   2.0444   2.0574   2.0574   3.3529   3.3529   5.0059   5.0059
     5.2313   5.2313

          k = 0.0000-0.5774 0.0000 (  2036 PWs)   bands (ev):

   -10.6685 -10.4819   0.7540   0.9777   1.1427   1.4985   1.5671   1.6080
     1.9585   2.0658   2.1335   2.2023   2.6663   2.9652   3.6943   4.3048
     5.1291   5.5577

          k = 0.0000-0.5774 0.1022 (  2044 PWs)   bands (ev):

   -10.6545 -10.4927   0.7182   0.8895   1.1672   1.4841   1.5259   1.5692
     2.0131   2.0680   2.1230   2.2012   2.6349   2.9061   3.9591   4.3998
     5.2081   5.4796

          k = 0.0000-0.5774 0.2044 (  2058 PWs)   bands (ev):

   -10.6173 -10.5238   0.6491   0.7252   1.2384   1.4596   1.4689   1.4743
     2.0740   2.1012   2.1023   2.1933   2.6257   2.7868   4.5169   4.6463
     5.2630   5.2642

          k = 0.0000-0.5774-0.3067 (  2056 PWs)   bands (ev):

   -10.5690 -10.5690   0.6324   0.6324   1.3463   1.3463   1.4524   1.4524
     2.0851   2.0851   2.1637   2.1637   2.6817   2.6817   4.9625   4.9625
     5.0305   5.0305

          k = 0.1667 0.2887 0.0000 (  2059 PWs)   bands (ev):

   -10.9285 -10.5224   0.7790   0.9447   1.1132   1.1703   1.3942   1.5680
     1.8215   1.9366   2.1119   2.3044   2.5291   3.9646   4.1159   4.7504
     5.7144   5.7503

          k = 0.1667 0.2887 0.1022 (  2058 PWs)   bands (ev):

   -10.9011 -10.5492   0.7490   0.9113   1.1065   1.1475   1.3695   1.4060
     1.8587   1.9637   2.1013   2.2178   2.8765   4.0781   4.0942   4.7639
     5.6399   5.7312

          k = 0.1667 0.2887 0.2044 (  2047 PWs)   bands (ev):

   -10.8264 -10.6231   0.6914   0.7852   1.1066   1.1275   1.2689   1.3100
     1.9454   1.9979   2.0742   2.1383   3.3406   3.9255   4.5011   4.8937
     5.4401   5.5474

          k = 0.1667 0.2887-0.3067 (  2040 PWs)   bands (ev):

   -10.7245 -10.7245   0.6859   0.6859   1.1222   1.1222   1.2544   1.2544
     2.0272   2.0272   2.0560   2.0560   3.6771   3.6771   5.0218   5.0218
     5.2184   5.2184

          k = 0.1667 0.4811 0.0000 (  2059 PWs)   bands (ev):

   -10.6751 -10.4784   0.8409   1.0750   1.1851   1.3878   1.5952   1.6537
     1.8978   1.9651   2.1482   2.3357   2.6093   3.1862   3.6721   3.9767
     5.1083   5.2765

          k = 0.1667 0.4811 0.1022 (  2054 PWs)   bands (ev):

   -10.6605 -10.4900   0.8188   1.0151   1.1611   1.3714   1.5454   1.5719
     1.9089   2.0188   2.1465   2.3229   2.6436   3.1877   3.7830   4.1589
     5.0870   5.2805

          k = 0.1667 0.4811 0.2044 (  2055 PWs)   bands (ev):

   -10.6215 -10.5230   0.7643   0.8605   1.1770   1.3332   1.4563   1.4702
     1.9797   2.0441   2.1572   2.2676   2.7632   3.0796   4.0901   4.5958
     4.8819   5.3186

          k = 0.1667 0.4811-0.3067 (  2054 PWs)   bands (ev):

   -10.5708 -10.5708   0.7570   0.7570   1.2551   1.2551   1.4270   1.4270
     2.0315   2.0315   2.2010   2.2010   2.9205   2.9205   4.4594   4.4594
     5.1231   5.1231

          k = 0.3333 0.5774 0.0000 (  2055 PWs)   bands (ev):

   -10.5276 -10.5276   0.8902   1.2739   1.2739   1.5993   1.8132   1.8132
     1.8638   1.9660   2.0505   2.0505   2.8413   2.9023   2.9023   4.5499
     4.5499   4.7153

          k = 0.3333 0.5774 0.1022 (  2052 PWs)   bands (ev):

   -10.5257 -10.5257   0.9171   1.1996   1.1996   1.5012   1.7181   1.7181
     1.8771   1.9604   2.1724   2.1724   2.8600   2.8600   2.9992   4.5934
     4.7101   4.7101

          k = 0.3333 0.5774 0.2044 (  2067 PWs)   bands (ev):

   -10.5220 -10.5220   0.9984   1.0509   1.0509   1.3116   1.6431   1.6431
     1.8990   1.9446   2.3128   2.3128   2.7846   2.7846   3.3728   4.2675
     5.0154   5.0154

          k = 0.3333 0.5774-0.3067 (  2058 PWs)   bands (ev):

   -10.5201 -10.5201   0.9805   0.9805   1.1330   1.1330   1.6229   1.6229
     1.9226   1.9226   2.3696   2.3696   2.7477   2.7477   3.8283   3.8283
     5.1636   5.1636

     highest occupied level (ev):     6.3269

!    total energy              =    -361.63557808 Ry
     estimated scf accuracy    <          7.4E-09 Ry

     The total energy is the sum of the following terms:
     one-electron contribution =    -159.04837386 Ry
     hartree contribution      =     119.89839582 Ry
     xc contribution           =    -109.46664549 Ry
     ewald contribution        =    -213.01895455 Ry

     convergence has been achieved in  34 iterations

     Forces acting on atoms (cartesian axes, Ry/au):

     atom    1 type  1   force =     0.00000000    0.00000000    0.00215782
     atom    2 type  1   force =     0.00000000   -0.00000000    0.00215782
     atom    3 type  2   force =     0.00000000    0.00000000   -0.00215782
     atom    4 type  2   force =     0.00000000    0.00000000   -0.00215782
     The non-local contrib.  to forces
     atom    1 type  1   force =     0.00000000    0.00000000    0.02294663
     atom    2 type  1   force =    -0.00000000   -0.00000000    0.02294663
     atom    3 type  2   force =     0.00000000    0.00000000    0.03066083
     atom    4 type  2   force =     0.00000000   -0.00000000    0.03066083
     The ionic contribution  to forces
     atom    1 type  1   force =    -0.00000000    0.00000000    0.26087885
     atom    2 type  1   force =     0.00000000   -0.00000000    0.26087885
     atom    3 type  2   force =    -0.00000000    0.00000000   -0.26087885
     atom    4 type  2   force =     0.00000000   -0.00000000   -0.26087885
     The local contribution  to forces
     atom    1 type  1   force =    -0.00000002    0.00000001   -0.28013526
     atom    2 type  1   force =     0.00000006   -0.00000004   -0.28013525
     atom    3 type  2   force =    -0.00000001    0.00000000    0.22832805
     atom    4 type  2   force =     0.00000002   -0.00000001    0.22832804
     The core correction contribution to forces
     atom    1 type  1   force =    -0.00000000    0.00000000   -0.00153253
     atom    2 type  1   force =     0.00000001   -0.00000000   -0.00153253
     atom    3 type  2   force =     0.00000000   -0.00000000   -0.00026798
     atom    4 type  2   force =    -0.00000000    0.00000000   -0.00026798
     The Hubbard contrib.    to forces
     atom    1 type  1   force =     0.00000000    0.00000000    0.00000000
     atom    2 type  1   force =     0.00000000    0.00000000    0.00000000
     atom    3 type  2   force =     0.00000000    0.00000000    0.00000000
     atom    4 type  2   force =     0.00000000    0.00000000    0.00000000
     The SCF correction term to forces
     atom    1 type  1   force =    -0.00000000    0.00000000    0.00000231
     atom    2 type  1   force =     0.00000000   -0.00000000    0.00000231
     atom    3 type  2   force =    -0.00000000    0.00000000    0.00000231
     atom    4 type  2   force =    -0.00000000    0.00000000    0.00000231

     Total force =     0.004316     Total SCF correction =     0.000005


     Computing stress (Cartesian axis) and pressure

          total   stress  (Ry/bohr**3)                   (kbar)     P=      -49.26
  -0.00029504   0.00000000   0.00000000          -43.40        0.00        0.00
   0.00000000  -0.00029504   0.00000000            0.00      -43.40        0.00
   0.00000000   0.00000000  -0.00041459            0.00        0.00      -60.99


     Writing all to output data dir ./ZnO_ANN.save/

     init_run     :      2.04s CPU      1.42s WALL (       1 calls)
     electrons    :    120.30s CPU     44.87s WALL (       1 calls)
     forces       :      0.73s CPU      0.36s WALL (       1 calls)
     stress       :      2.48s CPU      1.20s WALL (       1 calls)

     Called by init_run:
     wfcinit      :      1.01s CPU      0.39s WALL (       1 calls)
     potinit      :      0.26s CPU      0.27s WALL (       1 calls)
     hinit0       :      0.62s CPU      0.63s WALL (       1 calls)

     Called by electrons:
     c_bands      :     99.04s CPU     36.47s WALL (      34 calls)
     sum_band     :     15.71s CPU      6.11s WALL (      34 calls)
     v_of_rho     :      1.20s CPU      0.54s WALL (      35 calls)
     newd         :      4.05s CPU      1.64s WALL (      35 calls)
     mix_rho      :      0.23s CPU      0.10s WALL (      34 calls)

     Called by c_bands:
     init_us_2    :      1.54s CPU      0.53s WALL (    1988 calls)
     init_us_2:cp :      1.51s CPU      0.52s WALL (    1988 calls)
     cegterg      :     95.59s CPU     35.18s WALL (     952 calls)

     Called by *egterg:
     cdiaghg      :     15.52s CPU      5.09s WALL (    5313 calls)
     h_psi        :     64.87s CPU     26.31s WALL (    5341 calls)
     s_psi        :      1.52s CPU      0.45s WALL (    5341 calls)
     g_psi        :      0.55s CPU      0.14s WALL (    4361 calls)

     Called by h_psi:
     h_psi:calbec :      2.21s CPU      0.79s WALL (    5341 calls)
     vloc_psi     :     60.51s CPU     24.84s WALL (    5341 calls)
     add_vuspsi   :      1.55s CPU      0.50s WALL (    5341 calls)

     General routines
     calbec       :      2.84s CPU      0.99s WALL (    6433 calls)
     fft          :      1.02s CPU      0.62s WALL (     478 calls)
     ffts         :      0.17s CPU      0.15s WALL (      69 calls)
     fftw         :     60.39s CPU     24.87s WALL (  140184 calls)
     interpolate  :      0.21s CPU      0.16s WALL (      35 calls)

     Parallel routines

     PWSCF        :   2m 6.08s CPU     48.32s WALL


   This run was terminated on:  17:30:30  13Jun2025            

=------------------------------------------------------------------------------=
   JOB DONE.
=------------------------------------------------------------------------------=
Note: The following floating-point exceptions are signalling: IEEE_INVALID_FLAG
