Authorization required, but no authorization protocol specified

Authorization required, but no authorization protocol specified

Authorization required, but no authorization protocol specified

Authorization required, but no authorization protocol specified

Authorization required, but no authorization protocol specified

Authorization required, but no authorization protocol specified

Authorization required, but no authorization protocol specified

Authorization required, but no authorization protocol specified

Authorization required, but no authorization protocol specified

Authorization required, but no authorization protocol specified


     Program PWSCF v.7.2 starts on 13Jun2025 at 17:36:37 

     This program is part of the open-source Quantum ESPRESSO suite
     for quantum simulation of materials; please cite
         "P. Giannozzi et al., J. Phys.:Condens. Matter 21 395502 (2009);
         "P. Giannozzi et al., J. Phys.:Condens. Matter 29 465901 (2017);
         "P. Giannozzi et al., J. Chem. Phys. 152 154105 (2020);
          URL http://www.quantum-espresso.org", 
     in publications or presentations arising from this work. More details at
     http://www.quantum-espresso.org/quote

     Parallel version (MPI), running on     8 processors

     MPI processes distributed on     1 nodes
     120702 MiB available memory on the printing compute node when the environment starts

     Reading input from /home/jvc/QEspresso7.2/ZnO_database_python/SCFs.in/scf-6.30-1.45.in

     Current dimensions of program PWSCF are:
     Max number of different atomic species (ntypx) = 10
     Max number of k-points (npk) =  40000
     Max angular momentum in pseudopotentials (lmaxx) =  4
     file Zn.upf: wavefunction(s)  3D renormalized

     R & G space division:  proc/nbgrp/npool/nimage =       8
     Subspace diagonalization in iterative solution of the eigenvalue problem:
     a serial algorithm will be used


     Parallelization info
     --------------------
     sticks:   dense  smooth     PW     G-vecs:    dense   smooth      PW
     Min         137      68     20                 5322     1866     316
     Max         138      69     21                 5323     1871     321
     Sum        1099     547    163                42581    14951    2549

     Using Slab Decomposition



     bravais-lattice index     =            4
     lattice parameter (alat)  =       6.3024  a.u.
     unit-cell volume          =     314.9855 (a.u.)^3
     number of atoms/cell      =            4
     number of atomic types    =            2
     number of electrons       =        36.00
     number of Kohn-Sham states=           18
     kinetic-energy cutoff     =      50.0000  Ry
     charge density cutoff     =     400.0000  Ry
     scf convergence threshold =      1.0E-08
     mixing beta               =       0.3000
     number of iterations used =            8  plain     mixing
     Exchange-correlation= PBE
                           (   1   4   3   4   0   0   0)

     celldm(1)=   6.302398  celldm(2)=   0.000000  celldm(3)=   1.452923
     celldm(4)=   0.000000  celldm(5)=   0.000000  celldm(6)=   0.000000

     crystal axes: (cart. coord. in units of alat)
               a(1) = (   1.000000   0.000000   0.000000 )  
               a(2) = (  -0.500000   0.866025   0.000000 )  
               a(3) = (   0.000000   0.000000   1.452923 )  

     reciprocal axes: (cart. coord. in units 2 pi/alat)
               b(1) = (  1.000000  0.577350 -0.000000 )  
               b(2) = (  0.000000  1.154701  0.000000 )  
               b(3) = (  0.000000 -0.000000  0.688268 )  


     PseudoPot. # 1 for Zn read from file:
     /home/jvc/QEspresso7.2/ZnO_database/pseudos/Zn.upf
     MD5 check sum: 7f56cabf9682ed8c977c2f7d0c5985c5
     Pseudo is Ultrasoft + core correction, Zval = 12.0
     Generated using &quot;atomic&quot; code by A. Dal Corso  v.6.2.2
     Using radial grid of 1201 points,  6 beta functions with: 
                l(1) =   0
                l(2) =   0
                l(3) =   1
                l(4) =   1
                l(5) =   2
                l(6) =   2
     Q(r) pseudized with 0 coefficients 


     PseudoPot. # 2 for O  read from file:
     /home/jvc/QEspresso7.2/ZnO_database/pseudos/O.upf
     MD5 check sum: 91400c9766925bcf19f520983a725ff0
     Pseudo is Ultrasoft + core correction, Zval =  6.0
     Generated using &quot;atomic&quot; code by A. Dal Corso  v.6.3MaX
     Using radial grid of 1095 points,  4 beta functions with: 
                l(1) =   0
                l(2) =   0
                l(3) =   1
                l(4) =   1
     Q(r) pseudized with 0 coefficients 


     atomic species   valence    mass     pseudopotential
        Zn            12.00    63.38000     Zn( 1.00)
        O              6.00    15.99900     O ( 1.00)

     12 Sym. Ops. (no inversion) found ( 6 have fractional translation)



   Cartesian axes

     site n.     atom                  positions (alat units)
         1           Zn  tau(   1) = (   0.5000000   0.2886751   0.7273818  )
         2           Zn  tau(   2) = (  -0.0000000   0.5773503   0.0009206  )
         3           O   tau(   3) = (   0.5000000   0.2886751   1.2781017  )
         4           O   tau(   4) = (  -0.0000000   0.5773503   0.5516404  )

     number of k points=    28
                       cart. coord. in units 2pi/alat
        k(    1) = (   0.0000000   0.0000000   0.0000000), wk =   0.0092593
        k(    2) = (   0.0000000   0.0000000   0.1147113), wk =   0.0185185
        k(    3) = (   0.0000000   0.0000000   0.2294226), wk =   0.0185185
        k(    4) = (   0.0000000   0.0000000  -0.3441340), wk =   0.0092593
        k(    5) = (   0.0000000   0.1924501   0.0000000), wk =   0.0555556
        k(    6) = (   0.0000000   0.1924501   0.1147113), wk =   0.1111111
        k(    7) = (   0.0000000   0.1924501   0.2294226), wk =   0.1111111
        k(    8) = (   0.0000000   0.1924501  -0.3441340), wk =   0.0555556
        k(    9) = (   0.0000000   0.3849002   0.0000000), wk =   0.0555556
        k(   10) = (   0.0000000   0.3849002   0.1147113), wk =   0.1111111
        k(   11) = (   0.0000000   0.3849002   0.2294226), wk =   0.1111111
        k(   12) = (   0.0000000   0.3849002  -0.3441340), wk =   0.0555556
        k(   13) = (   0.0000000  -0.5773503   0.0000000), wk =   0.0277778
        k(   14) = (   0.0000000  -0.5773503   0.1147113), wk =   0.0555556
        k(   15) = (   0.0000000  -0.5773503   0.2294226), wk =   0.0555556
        k(   16) = (   0.0000000  -0.5773503  -0.3441340), wk =   0.0277778
        k(   17) = (   0.1666667   0.2886751   0.0000000), wk =   0.0555556
        k(   18) = (   0.1666667   0.2886751   0.1147113), wk =   0.1111111
        k(   19) = (   0.1666667   0.2886751   0.2294226), wk =   0.1111111
        k(   20) = (   0.1666667   0.2886751  -0.3441340), wk =   0.0555556
        k(   21) = (   0.1666667   0.4811252   0.0000000), wk =   0.1111111
        k(   22) = (   0.1666667   0.4811252   0.1147113), wk =   0.2222222
        k(   23) = (   0.1666667   0.4811252   0.2294226), wk =   0.2222222
        k(   24) = (   0.1666667   0.4811252  -0.3441340), wk =   0.1111111
        k(   25) = (   0.3333333   0.5773503   0.0000000), wk =   0.0185185
        k(   26) = (   0.3333333   0.5773503   0.1147113), wk =   0.0370370
        k(   27) = (   0.3333333   0.5773503   0.2294226), wk =   0.0370370
        k(   28) = (   0.3333333   0.5773503  -0.3441340), wk =   0.0185185

     Dense  grid:    42581 G-vectors     FFT dimensions: (  45,  45,  60)

     Smooth grid:    14951 G-vectors     FFT dimensions: (  30,  30,  48)

     Estimated max dynamical RAM per process >      25.06 MB

     Estimated total dynamical RAM >     200.45 MB

     Check: negative core charge=   -0.000002

     Initial potential from superposition of free atoms

     starting charge      35.9925, renormalised to      36.0000
     Starting wfcs are   26 randomized atomic wfcs

     total cpu time spent up to now is        1.5 secs

     Self-consistent Calculation

     iteration #  1     ecut=    50.00 Ry     beta= 0.30
     Davidson diagonalization with overlap
     ethr =  1.00E-02,  avg # of iterations =  2.0

     total cpu time spent up to now is        2.3 secs

     total energy              =    -361.45439528 Ry
     estimated scf accuracy    <       0.70235523 Ry

     iteration #  2     ecut=    50.00 Ry     beta= 0.30
     Davidson diagonalization with overlap
     ethr =  1.95E-03,  avg # of iterations =  2.0

     total cpu time spent up to now is        3.3 secs

     total energy              =    -361.54412890 Ry
     estimated scf accuracy    <       0.09910671 Ry

     iteration #  3     ecut=    50.00 Ry     beta= 0.30
     Davidson diagonalization with overlap
     ethr =  2.75E-04,  avg # of iterations =  6.2

     total cpu time spent up to now is        5.0 secs

     total energy              =    -361.58174271 Ry
     estimated scf accuracy    <       0.06607068 Ry

     iteration #  4     ecut=    50.00 Ry     beta= 0.30
     Davidson diagonalization with overlap
     ethr =  1.84E-04,  avg # of iterations =  7.0

     total cpu time spent up to now is        6.7 secs

     total energy              =    -361.62569173 Ry
     estimated scf accuracy    <       0.11694942 Ry

     iteration #  5     ecut=    50.00 Ry     beta= 0.30
     Davidson diagonalization with overlap
     ethr =  1.84E-04,  avg # of iterations =  1.0

     total cpu time spent up to now is        7.5 secs

     total energy              =    -361.57834527 Ry
     estimated scf accuracy    <       0.07841601 Ry

     iteration #  6     ecut=    50.00 Ry     beta= 0.30
     Davidson diagonalization with overlap
     ethr =  1.84E-04,  avg # of iterations =  5.2

     total cpu time spent up to now is        8.9 secs

     total energy              =    -361.61291553 Ry
     estimated scf accuracy    <       0.02435679 Ry

     iteration #  7     ecut=    50.00 Ry     beta= 0.30
     Davidson diagonalization with overlap
     ethr =  6.77E-05,  avg # of iterations =  1.3

     total cpu time spent up to now is        9.8 secs

     total energy              =    -361.61340333 Ry
     estimated scf accuracy    <       0.01437331 Ry

     iteration #  8     ecut=    50.00 Ry     beta= 0.30
     Davidson diagonalization with overlap
     ethr =  3.99E-05,  avg # of iterations =  1.1

     total cpu time spent up to now is       10.6 secs

     total energy              =    -361.61173872 Ry
     estimated scf accuracy    <       0.01357655 Ry

     iteration #  9     ecut=    50.00 Ry     beta= 0.30
     Davidson diagonalization with overlap
     ethr =  3.77E-05,  avg # of iterations =  1.0

     total cpu time spent up to now is       11.3 secs

     total energy              =    -361.61193929 Ry
     estimated scf accuracy    <       0.00932198 Ry

     iteration # 10     ecut=    50.00 Ry     beta= 0.30
     Davidson diagonalization with overlap
     ethr =  2.59E-05,  avg # of iterations =  1.1

     total cpu time spent up to now is       12.1 secs

     total energy              =    -361.61101913 Ry
     estimated scf accuracy    <       0.00764305 Ry

     iteration # 11     ecut=    50.00 Ry     beta= 0.30
     Davidson diagonalization with overlap
     ethr =  2.12E-05,  avg # of iterations =  1.0

     total cpu time spent up to now is       12.9 secs

     total energy              =    -361.61084798 Ry
     estimated scf accuracy    <       0.00495857 Ry

     iteration # 12     ecut=    50.00 Ry     beta= 0.30
     Davidson diagonalization with overlap
     ethr =  1.38E-05,  avg # of iterations =  1.9

     total cpu time spent up to now is       13.8 secs

     total energy              =    -361.61136225 Ry
     estimated scf accuracy    <       0.00333613 Ry

     iteration # 13     ecut=    50.00 Ry     beta= 0.30
     Davidson diagonalization with overlap
     ethr =  9.27E-06,  avg # of iterations =  1.0

     total cpu time spent up to now is       14.6 secs

     total energy              =    -361.61174234 Ry
     estimated scf accuracy    <       0.00337794 Ry

     iteration # 14     ecut=    50.00 Ry     beta= 0.30
     Davidson diagonalization with overlap
     ethr =  9.27E-06,  avg # of iterations =  1.0

     total cpu time spent up to now is       15.4 secs

     total energy              =    -361.61155750 Ry
     estimated scf accuracy    <       0.00370794 Ry

     iteration # 15     ecut=    50.00 Ry     beta= 0.30
     Davidson diagonalization with overlap
     ethr =  9.27E-06,  avg # of iterations =  1.0

     total cpu time spent up to now is       16.2 secs

     total energy              =    -361.61095638 Ry
     estimated scf accuracy    <       0.00300000 Ry

     iteration # 16     ecut=    50.00 Ry     beta= 0.30
     Davidson diagonalization with overlap
     ethr =  8.33E-06,  avg # of iterations =  1.5

     total cpu time spent up to now is       17.0 secs

     total energy              =    -361.61066939 Ry
     estimated scf accuracy    <       0.00138376 Ry

     iteration # 17     ecut=    50.00 Ry     beta= 0.30
     Davidson diagonalization with overlap
     ethr =  3.84E-06,  avg # of iterations =  3.0

     total cpu time spent up to now is       18.0 secs

     total energy              =    -361.61123897 Ry
     estimated scf accuracy    <       0.00012932 Ry

     iteration # 18     ecut=    50.00 Ry     beta= 0.30
     Davidson diagonalization with overlap
     ethr =  3.59E-07,  avg # of iterations =  6.1

     total cpu time spent up to now is       19.6 secs

     total energy              =    -361.61068833 Ry
     estimated scf accuracy    <       0.00109114 Ry

     iteration # 19     ecut=    50.00 Ry     beta= 0.30
     Davidson diagonalization with overlap
     ethr =  3.59E-07,  avg # of iterations =  9.1

     total cpu time spent up to now is       21.8 secs

     total energy              =    -361.61089558 Ry
     estimated scf accuracy    <       0.00038957 Ry

     iteration # 20     ecut=    50.00 Ry     beta= 0.30
     Davidson diagonalization with overlap
     ethr =  3.59E-07,  avg # of iterations =  8.0

     total cpu time spent up to now is       23.8 secs

     total energy              =    -361.61091774 Ry
     estimated scf accuracy    <       0.00029160 Ry

     iteration # 21     ecut=    50.00 Ry     beta= 0.30
     Davidson diagonalization with overlap
     ethr =  3.59E-07,  avg # of iterations =  8.2

     total cpu time spent up to now is       25.8 secs

     total energy              =    -361.61112344 Ry
     estimated scf accuracy    <       0.00056412 Ry

     iteration # 22     ecut=    50.00 Ry     beta= 0.30
     Davidson diagonalization with overlap
     ethr =  3.59E-07,  avg # of iterations =  1.4

     total cpu time spent up to now is       26.6 secs

     total energy              =    -361.61091602 Ry
     estimated scf accuracy    <       0.00038126 Ry

     iteration # 23     ecut=    50.00 Ry     beta= 0.30
     Davidson diagonalization with overlap
     ethr =  3.59E-07,  avg # of iterations =  7.0

     total cpu time spent up to now is       28.4 secs

     total energy              =    -361.61107141 Ry
     estimated scf accuracy    <       0.00007586 Ry

     iteration # 24     ecut=    50.00 Ry     beta= 0.30
     Davidson diagonalization with overlap
     ethr =  2.11E-07,  avg # of iterations =  1.3

     total cpu time spent up to now is       29.2 secs

     total energy              =    -361.61106518 Ry
     estimated scf accuracy    <       0.00004894 Ry

     iteration # 25     ecut=    50.00 Ry     beta= 0.30
     Davidson diagonalization with overlap
     ethr =  1.36E-07,  avg # of iterations =  1.6

     total cpu time spent up to now is       30.0 secs

     total energy              =    -361.61106412 Ry
     estimated scf accuracy    <       0.00002433 Ry

     iteration # 26     ecut=    50.00 Ry     beta= 0.30
     Davidson diagonalization with overlap
     ethr =  6.76E-08,  avg # of iterations =  1.4

     total cpu time spent up to now is       30.8 secs

     total energy              =    -361.61106007 Ry
     estimated scf accuracy    <       0.00001603 Ry

     iteration # 27     ecut=    50.00 Ry     beta= 0.30
     Davidson diagonalization with overlap
     ethr =  4.45E-08,  avg # of iterations =  3.0

     total cpu time spent up to now is       31.9 secs

     total energy              =    -361.61106309 Ry
     estimated scf accuracy    <       0.00000213 Ry

     iteration # 28     ecut=    50.00 Ry     beta= 0.30
     Davidson diagonalization with overlap
     ethr =  5.92E-09,  avg # of iterations =  4.9

     total cpu time spent up to now is       33.2 secs

     total energy              =    -361.61106446 Ry
     estimated scf accuracy    <       0.00000036 Ry

     iteration # 29     ecut=    50.00 Ry     beta= 0.30
     Davidson diagonalization with overlap
     ethr =  1.00E-09,  avg # of iterations =  4.5

     total cpu time spent up to now is       34.3 secs

     total energy              =    -361.61106431 Ry
     estimated scf accuracy    <       0.00000133 Ry

     iteration # 30     ecut=    50.00 Ry     beta= 0.30
     Davidson diagonalization with overlap
     ethr =  1.00E-09,  avg # of iterations =  1.1

     total cpu time spent up to now is       35.1 secs

     total energy              =    -361.61106419 Ry
     estimated scf accuracy    <       0.00000090 Ry

     iteration # 31     ecut=    50.00 Ry     beta= 0.30
     Davidson diagonalization with overlap
     ethr =  1.00E-09,  avg # of iterations =  2.0

     total cpu time spent up to now is       36.0 secs

     total energy              =    -361.61106420 Ry
     estimated scf accuracy    <       0.00000048 Ry

     iteration # 32     ecut=    50.00 Ry     beta= 0.30
     Davidson diagonalization with overlap
     ethr =  1.00E-09,  avg # of iterations =  1.1

     total cpu time spent up to now is       36.8 secs

     total energy              =    -361.61106419 Ry
     estimated scf accuracy    <       0.00000037 Ry

     iteration # 33     ecut=    50.00 Ry     beta= 0.30
     Davidson diagonalization with overlap
     ethr =  1.00E-09,  avg # of iterations =  1.0

     total cpu time spent up to now is       37.6 secs

     total energy              =    -361.61106420 Ry
     estimated scf accuracy    <       0.00000032 Ry

     iteration # 34     ecut=    50.00 Ry     beta= 0.30
     Davidson diagonalization with overlap
     ethr =  8.86E-10,  avg # of iterations =  1.0

     total cpu time spent up to now is       38.4 secs

     total energy              =    -361.61106418 Ry
     estimated scf accuracy    <       0.00000028 Ry

     iteration # 35     ecut=    50.00 Ry     beta= 0.30
     Davidson diagonalization with overlap
     ethr =  7.68E-10,  avg # of iterations =  1.1

     total cpu time spent up to now is       39.2 secs

     total energy              =    -361.61106420 Ry
     estimated scf accuracy    <       0.00000021 Ry

     iteration # 36     ecut=    50.00 Ry     beta= 0.30
     Davidson diagonalization with overlap
     ethr =  5.74E-10,  avg # of iterations =  1.1

     total cpu time spent up to now is       40.0 secs

     total energy              =    -361.61106406 Ry
     estimated scf accuracy    <       0.00000022 Ry

     iteration # 37     ecut=    50.00 Ry     beta= 0.30
     Davidson diagonalization with overlap
     ethr =  5.74E-10,  avg # of iterations =  4.9

     total cpu time spent up to now is       41.3 secs

     total energy              =    -361.61106415 Ry
     estimated scf accuracy    <       0.00000004 Ry

     iteration # 38     ecut=    50.00 Ry     beta= 0.30
     Davidson diagonalization with overlap
     ethr =  1.24E-10,  avg # of iterations =  2.5

     total cpu time spent up to now is       42.2 secs

     total energy              =    -361.61106415 Ry
     estimated scf accuracy    <       0.00000002 Ry

     iteration # 39     ecut=    50.00 Ry     beta= 0.30
     Davidson diagonalization with overlap
     ethr =  4.62E-11,  avg # of iterations =  3.5

     total cpu time spent up to now is       43.3 secs

     End of self-consistent calculation

          k = 0.0000 0.0000 0.0000 (  1875 PWs)   bands (ev):

   -10.7172  -9.7987   1.8008   1.8207   1.8207   1.9882   2.0835   2.0835
     2.9689   2.9689   3.2603   3.2603   3.4714   6.3957   6.3957   7.4884
     7.4884   7.5803

          k = 0.0000 0.0000 0.1147 (  1905 PWs)   bands (ev):

   -10.6575  -9.8615   1.7182   1.7512   1.8228   1.8228   2.0478   2.0478
     3.0018   3.0018   3.2564   3.2564   3.9087   6.4730   6.4730   7.0363
     7.4203   7.4203

          k = 0.0000 0.0000 0.2294 (  1868 PWs)   bands (ev):

   -10.4926 -10.0324   1.4743   1.5404   1.8403   1.8403   1.9675   1.9675
     3.0828   3.0828   3.2324   3.2324   4.7335   6.3151   6.6821   6.6821
     7.2302   7.2302

          k = 0.0000 0.0000-0.3441 (  1832 PWs)   bands (ev):

   -10.2640 -10.2640   1.4146   1.4146   1.8891   1.8891   1.8891   1.8891
     3.1713   3.1713   3.1713   3.1713   5.5639   5.5639   6.9610   6.9610
     6.9610   6.9610

          k = 0.0000 0.1925 0.0000 (  1874 PWs)   bands (ev):

   -10.5801  -9.7670   1.6407   1.8852   1.9140   1.9801   2.1984   2.2752
     2.9182   2.9753   3.2632   3.2805   3.5517   5.6019   6.0357   6.4211
     7.3358   7.3735

          k = 0.0000 0.1925 0.1147 (  1874 PWs)   bands (ev):

   -10.5257  -9.8208   1.5811   1.7699   1.8915   1.9077   2.1307   2.1592
     2.9664   3.0055   3.2716   3.2918   3.9815   5.7034   6.1299   6.2358
     7.2554   7.3585

          k = 0.0000 0.1925 0.2294 (  1874 PWs)   bands (ev):

   -10.3768  -9.9689   1.4317   1.4657   1.8920   1.9186   2.0142   2.0694
     3.0699   3.0808   3.2365   3.2606   4.7395   5.7739   6.1262   6.3817
     7.0309   7.1159

          k = 0.0000 0.1925-0.3441 (  1878 PWs)   bands (ev):

   -10.1726 -10.1726   1.3511   1.3511   1.9308   1.9308   1.9790   1.9790
     3.1681   3.1681   3.1801   3.1801   5.3513   5.3513   6.6219   6.6219
     6.7130   6.7130

          k = 0.0000 0.3849 0.0000 (  1896 PWs)   bands (ev):

   -10.2641  -9.7343   1.4891   1.8914   1.9807   2.1028   2.4902   2.5582
     2.9764   3.0664   3.3006   3.3099   3.6917   4.4568   5.2968   5.3108
     6.7826   6.9901

          k = 0.0000 0.3849 0.1147 (  1882 PWs)   bands (ev):

   -10.2252  -9.7655   1.4258   1.7249   2.0008   2.0674   2.3588   2.4361
     2.9927   3.0823   3.2903   3.3678   3.9320   4.6765   5.2601   5.4323
     6.8893   6.8961

          k = 0.0000 0.3849 0.2294 (  1880 PWs)   bands (ev):

   -10.1210  -9.8544   1.2923   1.4057   2.0401   2.0634   2.1729   2.3082
     3.1041   3.1253   3.2425   3.3243   4.2443   4.7349   5.7325   5.7764
     6.6079   6.9082

          k = 0.0000 0.3849-0.3441 (  1870 PWs)   bands (ev):

    -9.9839  -9.9839   1.2454   1.2454   2.0733   2.0733   2.1703   2.1703
     3.1835   3.1835   3.2270   3.2270   4.5071   4.5071   6.2066   6.2066
     6.4835   6.4835

          k = 0.0000-0.5774 0.0000 (  1872 PWs)   bands (ev):

   -10.0528  -9.7653   1.5282   1.8322   2.0085   2.2388   2.4124   2.6859
     3.0364   3.1738   3.3216   3.3609   3.9128   4.1803   4.7246   4.8747
     6.3380   6.7993

          k = 0.0000-0.5774 0.1147 (  1884 PWs)   bands (ev):

   -10.0282  -9.7786   1.4496   1.6509   2.0373   2.2026   2.3540   2.6172
     3.1212   3.1777   3.2898   3.3609   3.8539   4.1207   5.0458   5.1196
     6.5140   6.6892

          k = 0.0000-0.5774 0.2294 (  1882 PWs)   bands (ev):

    -9.9645  -9.8196   1.2867   1.3489   2.1249   2.1755   2.2534   2.4510
     3.1898   3.2395   3.2418   3.3505   3.8483   4.0150   5.4547   5.8747
     6.3820   6.7198

          k = 0.0000-0.5774-0.3441 (  1876 PWs)   bands (ev):

    -9.8863  -9.8863   1.2124   1.2124   2.1894   2.1894   2.2692   2.2692
     3.2100   3.2100   3.3141   3.3141   3.9178   3.9178   5.9401   5.9401
     6.5111   6.5111

          k = 0.1667 0.2887 0.0000 (  1881 PWs)   bands (ev):

   -10.3518  -9.7357   1.5790   1.8056   2.0120   2.0646   2.4068   2.5726
     2.8782   3.0133   3.2761   3.3033   3.7040   4.9205   5.0656   5.7356
     6.9507   6.9737

          k = 0.1667 0.2887 0.1147 (  1877 PWs)   bands (ev):

   -10.3081  -9.7736   1.5122   1.7103   1.9834   2.0177   2.3008   2.3565
     2.9378   3.0640   3.2886   3.3469   4.0378   5.1259   5.1279   5.6553
     6.8447   7.0603

          k = 0.1667 0.2887 0.2294 (  1877 PWs)   bands (ev):

   -10.1899  -9.8802   1.3655   1.4352   1.9614   2.0005   2.1358   2.2431
     3.0653   3.1188   3.2495   3.3096   4.5057   5.0683   5.7663   5.7701
     6.5554   7.0076

          k = 0.1667 0.2887-0.3441 (  1868 PWs)   bands (ev):

   -10.0322 -10.0322   1.2975   1.2975   1.9847   1.9847   2.1379   2.1379
     3.1673   3.1673   3.2229   3.2229   4.8254   4.8254   6.1389   6.1389
     6.5449   6.5449

          k = 0.1667 0.4811 0.0000 (  1885 PWs)   bands (ev):

   -10.0607  -9.7597   1.6262   1.8690   2.0551   2.1784   2.5688   2.7262
     3.0080   3.0400   3.3247   3.4404   3.6727   4.1953   4.6233   4.9922
     6.3069   6.5290

          k = 0.1667 0.4811 0.1147 (  1879 PWs)   bands (ev):

   -10.0353  -9.7740   1.5526   1.7594   1.9858   2.1593   2.4463   2.6107
     3.0047   3.1370   3.3101   3.4638   3.7391   4.3346   4.6281   5.2975
     6.3529   6.5363

          k = 0.1667 0.4811 0.2294 (  1884 PWs)   bands (ev):

    -9.9693  -9.8177   1.3869   1.4659   2.0077   2.1247   2.3164   2.4218
     3.0866   3.1595   3.3226   3.4311   3.9164   4.2702   4.9867   5.9208
     6.0806   6.7477

          k = 0.1667 0.4811-0.3441 (  1896 PWs)   bands (ev):

    -9.8879  -9.8879   1.3162   1.3162   2.0810   2.0810   2.2971   2.2971
     3.1410   3.1410   3.3722   3.3722   4.1028   4.1028   5.5037   5.5037
     6.5909   6.5909

          k = 0.3333 0.5774 0.0000 (  1869 PWs)   bands (ev):

    -9.8658  -9.8658   1.7508   1.9714   1.9714   2.7043   2.7043   2.7255
     2.9347   3.1171   3.1785   3.1785   3.4856   4.0982   4.0982   5.6531
     5.6531   6.0780

          k = 0.3333 0.5774 0.1147 (  1875 PWs)   bands (ev):

    -9.8595  -9.8595   1.7786   1.8407   1.8407   2.5276   2.5647   2.5647
     2.9579   3.1065   3.3280   3.3280   3.7638   4.0524   4.0524   5.9188
     5.9202   5.9202

          k = 0.3333 0.5774 0.2294 (  1896 PWs)   bands (ev):

    -9.8467  -9.8467   1.5804   1.5804   1.8645   2.2429   2.4466   2.4466
     2.9930   3.0769   3.4883   3.4883   3.9910   3.9910   4.3070   5.4931
     6.4106   6.4106

          k = 0.3333 0.5774-0.3441 (  1920 PWs)   bands (ev):

    -9.8403  -9.8403   1.4586   1.4586   2.0171   2.0171   2.4134   2.4134
     3.0354   3.0354   3.5438   3.5438   3.9687   3.9687   4.9172   4.9172
     6.6435   6.6435

     highest occupied level (ev):     7.5803

!    total energy              =    -361.61106415 Ry
     estimated scf accuracy    <          2.5E-09 Ry

     The total energy is the sum of the following terms:
     one-electron contribution =    -150.73323857 Ry
     hartree contribution      =     117.17590871 Ry
     xc contribution           =    -109.66173968 Ry
     ewald contribution        =    -218.39199461 Ry

     convergence has been achieved in  39 iterations

     Forces acting on atoms (cartesian axes, Ry/au):

     atom    1 type  1   force =     0.00000000    0.00000000   -0.05996338
     atom    2 type  1   force =     0.00000000   -0.00000000   -0.05996338
     atom    3 type  2   force =     0.00000000   -0.00000000    0.05996338
     atom    4 type  2   force =     0.00000000    0.00000000    0.05996338
     The non-local contrib.  to forces
     atom    1 type  1   force =     0.00000000   -0.00000000   -0.32041306
     atom    2 type  1   force =     0.00000000    0.00000000   -0.32041306
     atom    3 type  2   force =     0.00000000    0.00000000   -0.22951768
     atom    4 type  2   force =     0.00000000    0.00000000   -0.22951768
     The ionic contribution  to forces
     atom    1 type  1   force =    -0.00000000    0.00000000   -2.17244694
     atom    2 type  1   force =     0.00000000   -0.00000000   -2.17244694
     atom    3 type  2   force =    -0.00000000    0.00000000    2.17244694
     atom    4 type  2   force =     0.00000000   -0.00000000    2.17244694
     The local contribution  to forces
     atom    1 type  1   force =    -0.00000002    0.00000001    2.40750155
     atom    2 type  1   force =     0.00000007   -0.00000004    2.40750155
     atom    3 type  2   force =    -0.00000001    0.00000000   -1.88458668
     atom    4 type  2   force =     0.00000002   -0.00000001   -1.88458668
     The core correction contribution to forces
     atom    1 type  1   force =    -0.00000000    0.00000000    0.02541814
     atom    2 type  1   force =     0.00000001   -0.00000000    0.02541814
     atom    3 type  2   force =     0.00000000   -0.00000000    0.00160199
     atom    4 type  2   force =    -0.00000000    0.00000000    0.00160199
     The Hubbard contrib.    to forces
     atom    1 type  1   force =     0.00000000    0.00000000    0.00000000
     atom    2 type  1   force =     0.00000000    0.00000000    0.00000000
     atom    3 type  2   force =     0.00000000    0.00000000    0.00000000
     atom    4 type  2   force =     0.00000000    0.00000000    0.00000000
     The SCF correction term to forces
     atom    1 type  1   force =     0.00000000   -0.00000000   -0.00003117
     atom    2 type  1   force =    -0.00000000    0.00000000   -0.00003117
     atom    3 type  2   force =     0.00000000   -0.00000000    0.00001072
     atom    4 type  2   force =    -0.00000000    0.00000000    0.00001072

     Total force =     0.119927     Total SCF correction =     0.000047


     Computing stress (Cartesian axis) and pressure

          total   stress  (Ry/bohr**3)                   (kbar)     P=       92.95
  -0.00003472   0.00000000   0.00000000           -5.11        0.00        0.00
   0.00000000  -0.00003472   0.00000000            0.00       -5.11        0.00
   0.00000000   0.00000000   0.00196496            0.00        0.00      289.06


     Writing all to output data dir ./ZnO_ANN.save/

     init_run     :      1.76s CPU      1.16s WALL (       1 calls)
     electrons    :    109.82s CPU     41.83s WALL (       1 calls)
     forces       :      0.68s CPU      0.34s WALL (       1 calls)
     stress       :      2.24s CPU      1.09s WALL (       1 calls)

     Called by init_run:
     wfcinit      :      1.00s CPU      0.39s WALL (       1 calls)
     potinit      :      0.26s CPU      0.26s WALL (       1 calls)
     hinit0       :      0.39s CPU      0.40s WALL (       1 calls)

     Called by electrons:
     c_bands      :     86.35s CPU     32.44s WALL (      39 calls)
     sum_band     :     17.37s CPU      6.86s WALL (      39 calls)
     v_of_rho     :      1.50s CPU      0.67s WALL (      40 calls)
     newd         :      4.24s CPU      1.74s WALL (      40 calls)
     mix_rho      :      0.24s CPU      0.11s WALL (      39 calls)

     Called by c_bands:
     init_us_2    :      1.50s CPU      0.54s WALL (    2268 calls)
     init_us_2:cp :      1.47s CPU      0.53s WALL (    2268 calls)
     cegterg      :     82.89s CPU     31.13s WALL (    1092 calls)

     Called by *egterg:
     cdiaghg      :     12.12s CPU      3.99s WALL (    4291 calls)
     h_psi        :     59.64s CPU     24.32s WALL (    4319 calls)
     s_psi        :      1.22s CPU      0.37s WALL (    4319 calls)
     g_psi        :      0.37s CPU      0.10s WALL (    3199 calls)

     Called by h_psi:
     h_psi:calbec :      1.81s CPU      0.68s WALL (    4319 calls)
     vloc_psi     :     56.15s CPU     23.10s WALL (    4319 calls)
     add_vuspsi   :      1.22s CPU      0.40s WALL (    4319 calls)

     General routines
     calbec       :      2.47s CPU      0.90s WALL (    5551 calls)
     fft          :      1.00s CPU      0.54s WALL (     543 calls)
     ffts         :      0.19s CPU      0.15s WALL (      79 calls)
     fftw         :     57.41s CPU     23.70s WALL (  132360 calls)
     interpolate  :      0.23s CPU      0.17s WALL (      40 calls)

     Parallel routines

     PWSCF        :   1m55.03s CPU     44.88s WALL


   This run was terminated on:  17:37:22  13Jun2025            

=------------------------------------------------------------------------------=
   JOB DONE.
=------------------------------------------------------------------------------=
Note: The following floating-point exceptions are signalling: IEEE_INVALID_FLAG
