Authorization required, but no authorization protocol specified

Authorization required, but no authorization protocol specified

Authorization required, but no authorization protocol specified

Authorization required, but no authorization protocol specified

Authorization required, but no authorization protocol specified

Authorization required, but no authorization protocol specified

Authorization required, but no authorization protocol specified

Authorization required, but no authorization protocol specified

Authorization required, but no authorization protocol specified

Authorization required, but no authorization protocol specified


     Program PWSCF v.7.2 starts on 13Jun2025 at 15:15:33 

     This program is part of the open-source Quantum ESPRESSO suite
     for quantum simulation of materials; please cite
         "P. Giannozzi et al., J. Phys.:Condens. Matter 21 395502 (2009);
         "P. Giannozzi et al., J. Phys.:Condens. Matter 29 465901 (2017);
         "P. Giannozzi et al., J. Chem. Phys. 152 154105 (2020);
          URL http://www.quantum-espresso.org", 
     in publications or presentations arising from this work. More details at
     http://www.quantum-espresso.org/quote

     Parallel version (MPI), running on     8 processors

     MPI processes distributed on     1 nodes
     120644 MiB available memory on the printing compute node when the environment starts

     Reading input from /home/jvc/QEspresso7.2/ZnO_database_python/SCFs.in/scf-5.56-1.52.in

     Current dimensions of program PWSCF are:
     Max number of different atomic species (ntypx) = 10
     Max number of k-points (npk) =  40000
     Max angular momentum in pseudopotentials (lmaxx) =  4
     file Zn.upf: wavefunction(s)  3D renormalized

     R & G space division:  proc/nbgrp/npool/nimage =       8
     Subspace diagonalization in iterative solution of the eigenvalue problem:
     a serial algorithm will be used


     Parallelization info
     --------------------
     sticks:   dense  smooth     PW     G-vecs:    dense   smooth      PW
     Min         105      53     15                 3819     1353     231
     Max         106      55     16                 3826     1356     240
     Sum         847     433    127                30599    10837    1875

     Using Slab Decomposition



     bravais-lattice index     =            4
     lattice parameter (alat)  =       5.5609  a.u.
     unit-cell volume          =     225.9971 (a.u.)^3
     number of atoms/cell      =            4
     number of atomic types    =            2
     number of electrons       =        36.00
     number of Kohn-Sham states=           18
     kinetic-energy cutoff     =      50.0000  Ry
     charge density cutoff     =     400.0000  Ry
     scf convergence threshold =      1.0E-08
     mixing beta               =       0.3000
     number of iterations used =            8  plain     mixing
     Exchange-correlation= PBE
                           (   1   4   3   4   0   0   0)

     celldm(1)=   5.560939  celldm(2)=   0.000000  celldm(3)=   1.517497
     celldm(4)=   0.000000  celldm(5)=   0.000000  celldm(6)=   0.000000

     crystal axes: (cart. coord. in units of alat)
               a(1) = (   1.000000   0.000000   0.000000 )  
               a(2) = (  -0.500000   0.866025   0.000000 )  
               a(3) = (   0.000000   0.000000   1.517497 )  

     reciprocal axes: (cart. coord. in units 2 pi/alat)
               b(1) = (  1.000000  0.577350 -0.000000 )  
               b(2) = (  0.000000  1.154701  0.000000 )  
               b(3) = (  0.000000 -0.000000  0.658980 )  


     PseudoPot. # 1 for Zn read from file:
     /home/jvc/QEspresso7.2/ZnO_database/pseudos/Zn.upf
     MD5 check sum: 7f56cabf9682ed8c977c2f7d0c5985c5
     Pseudo is Ultrasoft + core correction, Zval = 12.0
     Generated using &quot;atomic&quot; code by A. Dal Corso  v.6.2.2
     Using radial grid of 1201 points,  6 beta functions with: 
                l(1) =   0
                l(2) =   0
                l(3) =   1
                l(4) =   1
                l(5) =   2
                l(6) =   2
     Q(r) pseudized with 0 coefficients 


     PseudoPot. # 2 for O  read from file:
     /home/jvc/QEspresso7.2/ZnO_database/pseudos/O.upf
     MD5 check sum: 91400c9766925bcf19f520983a725ff0
     Pseudo is Ultrasoft + core correction, Zval =  6.0
     Generated using &quot;atomic&quot; code by A. Dal Corso  v.6.3MaX
     Using radial grid of 1095 points,  4 beta functions with: 
                l(1) =   0
                l(2) =   0
                l(3) =   1
                l(4) =   1
     Q(r) pseudized with 0 coefficients 


     atomic species   valence    mass     pseudopotential
        Zn            12.00    63.38000     Zn( 1.00)
        O              6.00    15.99900     O ( 1.00)

     12 Sym. Ops. (no inversion) found ( 6 have fractional translation)



   Cartesian axes

     site n.     atom                  positions (alat units)
         1           Zn  tau(   1) = (   0.5000000   0.2886751   0.7597099  )
         2           Zn  tau(   2) = (  -0.0000000   0.5773503   0.0009615  )
         3           O   tau(   3) = (   0.5000000   0.2886751   1.3349062  )
         4           O   tau(   4) = (  -0.0000000   0.5773503   0.5761578  )

     number of k points=    28
                       cart. coord. in units 2pi/alat
        k(    1) = (   0.0000000   0.0000000   0.0000000), wk =   0.0092593
        k(    2) = (   0.0000000   0.0000000   0.1098300), wk =   0.0185185
        k(    3) = (   0.0000000   0.0000000   0.2196600), wk =   0.0185185
        k(    4) = (   0.0000000   0.0000000  -0.3294900), wk =   0.0092593
        k(    5) = (   0.0000000   0.1924501   0.0000000), wk =   0.0555556
        k(    6) = (   0.0000000   0.1924501   0.1098300), wk =   0.1111111
        k(    7) = (   0.0000000   0.1924501   0.2196600), wk =   0.1111111
        k(    8) = (   0.0000000   0.1924501  -0.3294900), wk =   0.0555556
        k(    9) = (   0.0000000   0.3849002   0.0000000), wk =   0.0555556
        k(   10) = (   0.0000000   0.3849002   0.1098300), wk =   0.1111111
        k(   11) = (   0.0000000   0.3849002   0.2196600), wk =   0.1111111
        k(   12) = (   0.0000000   0.3849002  -0.3294900), wk =   0.0555556
        k(   13) = (   0.0000000  -0.5773503   0.0000000), wk =   0.0277778
        k(   14) = (   0.0000000  -0.5773503   0.1098300), wk =   0.0555556
        k(   15) = (   0.0000000  -0.5773503   0.2196600), wk =   0.0555556
        k(   16) = (   0.0000000  -0.5773503  -0.3294900), wk =   0.0277778
        k(   17) = (   0.1666667   0.2886751   0.0000000), wk =   0.0555556
        k(   18) = (   0.1666667   0.2886751   0.1098300), wk =   0.1111111
        k(   19) = (   0.1666667   0.2886751   0.2196600), wk =   0.1111111
        k(   20) = (   0.1666667   0.2886751  -0.3294900), wk =   0.0555556
        k(   21) = (   0.1666667   0.4811252   0.0000000), wk =   0.1111111
        k(   22) = (   0.1666667   0.4811252   0.1098300), wk =   0.2222222
        k(   23) = (   0.1666667   0.4811252   0.2196600), wk =   0.2222222
        k(   24) = (   0.1666667   0.4811252  -0.3294900), wk =   0.1111111
        k(   25) = (   0.3333333   0.5773503   0.0000000), wk =   0.0185185
        k(   26) = (   0.3333333   0.5773503   0.1098300), wk =   0.0370370
        k(   27) = (   0.3333333   0.5773503   0.2196600), wk =   0.0370370
        k(   28) = (   0.3333333   0.5773503  -0.3294900), wk =   0.0185185

     Dense  grid:    30599 G-vectors     FFT dimensions: (  36,  36,  54)

     Smooth grid:    10837 G-vectors     FFT dimensions: (  25,  25,  40)

     Estimated max dynamical RAM per process >      18.70 MB

     Estimated total dynamical RAM >     149.63 MB

     Initial potential from superposition of free atoms

     starting charge      35.9925, renormalised to      36.0000
     Starting wfcs are   26 randomized atomic wfcs

     total cpu time spent up to now is        1.2 secs

     Self-consistent Calculation

     iteration #  1     ecut=    50.00 Ry     beta= 0.30
     Davidson diagonalization with overlap
     ethr =  1.00E-02,  avg # of iterations =  2.2

     total cpu time spent up to now is        1.8 secs

     total energy              =    -361.19234462 Ry
     estimated scf accuracy    <       0.70921185 Ry

     iteration #  2     ecut=    50.00 Ry     beta= 0.30
     Davidson diagonalization with overlap
     ethr =  1.97E-03,  avg # of iterations =  2.0

     total cpu time spent up to now is        2.5 secs

     total energy              =    -361.20712681 Ry
     estimated scf accuracy    <       0.16235035 Ry

     iteration #  3     ecut=    50.00 Ry     beta= 0.30
     Davidson diagonalization with overlap
     ethr =  4.51E-04,  avg # of iterations =  6.1

     total cpu time spent up to now is        3.6 secs

     total energy              =    -361.31221138 Ry
     estimated scf accuracy    <       0.10195570 Ry

     iteration #  4     ecut=    50.00 Ry     beta= 0.30
     Davidson diagonalization with overlap
     ethr =  2.83E-04,  avg # of iterations =  1.6

     total cpu time spent up to now is        4.1 secs

     total energy              =    -361.30236006 Ry
     estimated scf accuracy    <       0.03547652 Ry

     iteration #  5     ecut=    50.00 Ry     beta= 0.30
     Davidson diagonalization with overlap
     ethr =  9.85E-05,  avg # of iterations =  8.6

     total cpu time spent up to now is        5.6 secs

     total energy              =    -361.34219577 Ry
     estimated scf accuracy    <       0.49254810 Ry

     iteration #  6     ecut=    50.00 Ry     beta= 0.30
     Davidson diagonalization with overlap
     ethr =  9.85E-05,  avg # of iterations =  5.1

     total cpu time spent up to now is        6.6 secs

     total energy              =    -361.28210501 Ry
     estimated scf accuracy    <       0.16058226 Ry

     iteration #  7     ecut=    50.00 Ry     beta= 0.30
     Davidson diagonalization with overlap
     ethr =  9.85E-05,  avg # of iterations =  6.3

     total cpu time spent up to now is        7.7 secs

     total energy              =    -361.31625067 Ry
     estimated scf accuracy    <       0.00007764 Ry

     iteration #  8     ecut=    50.00 Ry     beta= 0.30
     Davidson diagonalization with overlap
     ethr =  2.16E-07,  avg # of iterations = 10.0

     total cpu time spent up to now is        9.4 secs

     total energy              =    -361.31734290 Ry
     estimated scf accuracy    <       0.00015285 Ry

     iteration #  9     ecut=    50.00 Ry     beta= 0.30
     Davidson diagonalization with overlap
     ethr =  2.16E-07,  avg # of iterations =  2.1

     total cpu time spent up to now is       10.0 secs

     total energy              =    -361.31731240 Ry
     estimated scf accuracy    <       0.00005160 Ry

     iteration # 10     ecut=    50.00 Ry     beta= 0.30
     Davidson diagonalization with overlap
     ethr =  1.43E-07,  avg # of iterations =  8.3

     total cpu time spent up to now is       11.4 secs

     total energy              =    -361.31737375 Ry
     estimated scf accuracy    <       0.00029779 Ry

     iteration # 11     ecut=    50.00 Ry     beta= 0.30
     Davidson diagonalization with overlap
     ethr =  1.43E-07,  avg # of iterations =  2.0

     total cpu time spent up to now is       11.9 secs

     total energy              =    -361.31734799 Ry
     estimated scf accuracy    <       0.00016516 Ry

     iteration # 12     ecut=    50.00 Ry     beta= 0.30
     Davidson diagonalization with overlap
     ethr =  1.43E-07,  avg # of iterations =  3.9

     total cpu time spent up to now is       12.7 secs

     total energy              =    -361.31733866 Ry
     estimated scf accuracy    <       0.00004741 Ry

     iteration # 13     ecut=    50.00 Ry     beta= 0.30
     Davidson diagonalization with overlap
     ethr =  1.32E-07,  avg # of iterations =  4.3

     total cpu time spent up to now is       13.5 secs

     total energy              =    -361.31735136 Ry
     estimated scf accuracy    <       0.00000038 Ry

     iteration # 14     ecut=    50.00 Ry     beta= 0.30
     Davidson diagonalization with overlap
     ethr =  1.05E-09,  avg # of iterations =  8.8

     total cpu time spent up to now is       14.9 secs

     total energy              =    -361.31735481 Ry
     estimated scf accuracy    <       0.00000055 Ry

     iteration # 15     ecut=    50.00 Ry     beta= 0.30
     Davidson diagonalization with overlap
     ethr =  1.05E-09,  avg # of iterations =  2.5

     total cpu time spent up to now is       15.5 secs

     total energy              =    -361.31735446 Ry
     estimated scf accuracy    <       0.00000133 Ry

     iteration # 16     ecut=    50.00 Ry     beta= 0.30
     Davidson diagonalization with overlap
     ethr =  1.05E-09,  avg # of iterations =  2.0

     total cpu time spent up to now is       16.1 secs

     total energy              =    -361.31735430 Ry
     estimated scf accuracy    <       0.00000068 Ry

     iteration # 17     ecut=    50.00 Ry     beta= 0.30
     Davidson diagonalization with overlap
     ethr =  1.05E-09,  avg # of iterations =  2.1

     total cpu time spent up to now is       16.7 secs

     total energy              =    -361.31735416 Ry
     estimated scf accuracy    <       0.00000030 Ry

     iteration # 18     ecut=    50.00 Ry     beta= 0.30
     Davidson diagonalization with overlap
     ethr =  8.23E-10,  avg # of iterations =  4.9

     total cpu time spent up to now is       17.6 secs

     total energy              =    -361.31735429 Ry
     estimated scf accuracy    <       0.00000003 Ry

     iteration # 19     ecut=    50.00 Ry     beta= 0.30
     Davidson diagonalization with overlap
     ethr =  9.03E-11,  avg # of iterations =  7.2

     total cpu time spent up to now is       18.9 secs

     total energy              =    -361.31735429 Ry
     estimated scf accuracy    <       0.00000014 Ry

     iteration # 20     ecut=    50.00 Ry     beta= 0.30
     Davidson diagonalization with overlap
     ethr =  9.03E-11,  avg # of iterations =  5.8

     total cpu time spent up to now is       19.9 secs

     End of self-consistent calculation

          k = 0.0000 0.0000 0.0000 (  1375 PWs)   bands (ev):

    -7.9669  -6.3971   4.9069   5.5487   5.5487   5.6404   5.9224   5.9224
     7.9399   7.9399   8.4720   8.4720   8.9386  12.2100  12.2100  13.6354
    13.7020  13.7020

          k = 0.0000 0.0000 0.1098 (  1351 PWs)   bands (ev):

    -7.8690  -6.5091   4.8160   5.4995   5.5557   5.5557   5.8762   5.8762
     7.9961   7.9961   8.4627   8.4627   9.3618  12.3080  12.3080  13.1753
    13.6040  13.6040

          k = 0.0000 0.0000 0.2197 (  1345 PWs)   bands (ev):

    -7.5964  -6.8108   4.7349   5.1725   5.5864   5.5864   5.7685   5.7685
     8.1353   8.1353   8.4113   8.4113  10.3415  12.3834  12.5802  12.5802
    13.3328  13.3328

          k = 0.0000 0.0000-0.3295 (  1350 PWs)   bands (ev):

    -7.2110  -7.2110   4.8623   4.8623   5.6587   5.6587   5.6587   5.6587
     8.2938   8.2938   8.2938   8.2938  11.4295  11.4295  12.9570  12.9570
    12.9570  12.9570

          k = 0.0000 0.1925 0.0000 (  1349 PWs)   bands (ev):

    -7.7048  -6.3085   5.0877   5.2917   5.6688   5.7499   5.9329   6.1048
     7.8029   7.9407   8.4497   8.5114   9.0174  11.1623  11.6738  12.6026
    13.3490  13.4271

          k = 0.0000 0.1925 0.1098 (  1351 PWs)   bands (ev):

    -7.6148  -6.4039   4.9335   5.1642   5.6801   5.7268   5.9052   6.0537
     7.8874   7.9933   8.4906   8.5016   9.4052  11.2695  11.7953  12.3858
    13.3112  13.3151

          k = 0.0000 0.1925 0.2197 (  1342 PWs)   bands (ev):

    -7.3656  -6.6646   4.7114   4.9247   5.6936   5.7231   5.8223   5.9347
     8.0804   8.1270   8.4178   8.4513  10.3896  11.5778  11.9734  12.1259
    12.9258  13.0046

          k = 0.0000 0.1925-0.3295 (  1338 PWs)   bands (ev):

    -7.0181  -7.0181   4.7152   4.7152   5.7319   5.7319   5.8104   5.8104
     8.2866   8.2866   8.2924   8.2924  11.3270  11.3270  12.2202  12.2202
    12.5703  12.5703

          k = 0.0000 0.3849 0.0000 (  1349 PWs)   bands (ev):

    -7.0936  -6.1793   4.7519   5.2756   5.8583   5.8895   6.4667   6.5676
     7.6887   8.1142   8.2914   8.5661   9.2620   9.6182  10.5544  11.0178
    12.5492  12.7941

          k = 0.0000 0.3849 0.1098 (  1351 PWs)   bands (ev):

    -7.0271  -6.2324   4.6661   5.0141   5.8877   5.8883   6.3316   6.4938
     7.8218   8.1440   8.5193   8.5292   9.3350   9.8770  10.7345  10.9094
    12.6420  12.6606

          k = 0.0000 0.3849 0.2197 (  1356 PWs)   bands (ev):

    -6.8475  -6.3854   4.4861   4.6201   5.8964   5.9778   6.1260   6.3191
     8.0808   8.2237   8.4407   8.5441   9.7063  10.2866  11.0535  11.1902
    12.2885  12.5636

          k = 0.0000 0.3849-0.3295 (  1352 PWs)   bands (ev):

    -6.6099  -6.6099   4.4270   4.4270   5.9724   5.9724   6.1284   6.1284
     8.3309   8.3309   8.3450   8.3450  10.0735  10.0735  11.7584  11.7584
    11.9443  11.9443

          k = 0.0000-0.5774 0.0000 (  1348 PWs)   bands (ev):

    -6.6818  -6.1981   4.8460   4.8645   5.9167   6.0373   6.6325   6.8946
     8.0124   8.3437   8.5908   8.6440   8.8498   9.3904   9.8759   9.8991
    11.9859  12.4264

          k = 0.0000-0.5774 0.1098 (  1358 PWs)   bands (ev):

    -6.6388  -6.2179   4.7002   4.7193   5.9589   6.0122   6.5137   6.7909
     8.1460   8.3511   8.5391   8.6690   8.9056   9.2794  10.1156  10.3374
    12.1187  12.2836

          k = 0.0000-0.5774 0.2197 (  1352 PWs)   bands (ev):

    -6.5275  -6.2822   4.4143   4.4593   6.0277   6.0859   6.2999   6.5506
     8.3656   8.3733   8.4627   8.6384   9.0362   9.1927  10.6672  11.1943
    11.8841  12.2615

          k = 0.0000-0.5774-0.3295 (  1356 PWs)   bands (ev):

    -6.3931  -6.3931   4.3089   4.3089   6.1270   6.1270   6.2917   6.2917
     8.4087   8.4087   8.5342   8.5342   9.1324   9.1324  11.3071  11.3071
    11.9641  11.9641

          k = 0.1667 0.2887 0.0000 (  1346 PWs)   bands (ev):

    -7.2647  -6.2007   4.9573   5.2512   5.8664   5.8902   6.1457   6.4515
     7.6974   7.9662   8.3849   8.5480   9.2624  10.0959  10.4974  11.5541
    12.7861  12.8136

          k = 0.1667 0.2887 0.1098 (  1361 PWs)   bands (ev):

    -7.1906  -6.2664   4.8750   5.0260   5.8193   5.8383   6.1182   6.3853
     7.8040   8.0699   8.5188   8.5367   9.5003  10.2607  10.6440  11.4047
    12.6449  12.8712

          k = 0.1667 0.2887 0.2197 (  1349 PWs)   bands (ev):

    -6.9886  -6.4518   4.6731   4.6808   5.7791   5.8013   6.0713   6.2397
     8.0462   8.1943   8.4405   8.5248  10.1515  10.8683  10.8896  11.2696
    12.2659  12.6916

          k = 0.1667 0.2887-0.3295 (  1348 PWs)   bands (ev):

    -6.7162  -6.7162   4.5544   4.5544   5.7826   5.7826   6.1084   6.1084
     8.2864   8.2864   8.3529   8.3529  10.6011  10.6011  11.6444  11.6444
    12.0214  12.0214

          k = 0.1667 0.4811 0.0000 (  1356 PWs)   bands (ev):

    -6.7027  -6.1862   4.9624   5.2322   5.7972   5.9876   6.6898   6.8502
     7.8512   7.9697   8.5389   8.5926   8.9478   9.2858   9.8870  10.2929
    11.8338  12.1156

          k = 0.1667 0.4811 0.1098 (  1348 PWs)   bands (ev):

    -6.6578  -6.2085   4.8537   5.0467   5.7713   5.9402   6.5605   6.7324
     7.9020   8.2172   8.5613   8.6812   8.9297   9.4717   9.9133  10.5131
    11.7903  12.1539

          k = 0.1667 0.4811 0.2197 (  1349 PWs)   bands (ev):

    -6.5413  -6.2795   4.6250   4.6957   5.7812   5.8763   6.4238   6.5367
     8.0860   8.2942   8.5699   8.7753   9.1038   9.6253  10.1696  11.1111
    11.5032  12.2799

          k = 0.1667 0.4811-0.3295 (  1342 PWs)   bands (ev):

    -6.3990  -6.3990   4.5238   4.5238   5.8281   5.8281   6.4119   6.4119
     8.2360   8.2360   8.6495   8.6495   9.4227   9.4227  10.7566  10.7566
    12.0079  12.0079

          k = 0.3333 0.5774 0.0000 (  1350 PWs)   bands (ev):

    -6.3490  -6.3490   5.3025   5.6699   5.6699   5.8404   6.8768   6.8768
     7.7993   8.0112   8.0112   8.1631   8.7350   9.6483   9.6483  11.0470
    11.0470  11.1647

          k = 0.3333 0.5774 0.1098 (  1344 PWs)   bands (ev):

    -6.3356  -6.3356   5.3249   5.4392   5.4392   5.7828   6.7655   6.7655
     7.8229   8.1394   8.3179   8.3179   8.8966   9.5655   9.5655  10.9813
    11.2928  11.2928

          k = 0.3333 0.5774 0.2197 (  1332 PWs)   bands (ev):

    -6.3087  -6.3087   5.0404   5.0404   5.3932   5.6491   6.6644   6.6644
     7.8898   8.0739   8.7820   8.7820   9.3245   9.3861   9.3861  10.5077
    11.7792  11.7792

          k = 0.3333 0.5774-0.3295 (  1344 PWs)   bands (ev):

    -6.2951  -6.2951   4.8656   4.8656   5.5057   5.5057   6.6336   6.6336
     7.9820   7.9820   9.0922   9.0922   9.1793   9.1793   9.9041   9.9041
    12.0252  12.0252

     highest occupied level (ev):    13.7020

!    total energy              =    -361.31735431 Ry
     estimated scf accuracy    <          2.5E-09 Ry

     The total energy is the sum of the following terms:
     one-electron contribution =    -109.48519997 Ry
     hartree contribution      =     103.18728033 Ry
     xc contribution           =    -110.53246442 Ry
     ewald contribution        =    -244.48697025 Ry

     convergence has been achieved in  20 iterations

     Forces acting on atoms (cartesian axes, Ry/au):

     atom    1 type  1   force =    -0.00000000   -0.00000000   -0.10224777
     atom    2 type  1   force =     0.00000000    0.00000000   -0.10224777
     atom    3 type  2   force =     0.00000000    0.00000000    0.10224777
     atom    4 type  2   force =     0.00000000   -0.00000000    0.10224777
     The non-local contrib.  to forces
     atom    1 type  1   force =    -0.00000000   -0.00000000   -0.22294535
     atom    2 type  1   force =     0.00000000    0.00000000   -0.22294535
     atom    3 type  2   force =    -0.00000000    0.00000000   -0.11676345
     atom    4 type  2   force =     0.00000000    0.00000000   -0.11676345
     The ionic contribution  to forces
     atom    1 type  1   force =    -0.00000000    0.00000000   -1.55811415
     atom    2 type  1   force =     0.00000000   -0.00000000   -1.55811415
     atom    3 type  2   force =    -0.00000000    0.00000000    1.55811415
     atom    4 type  2   force =     0.00000000   -0.00000000    1.55811415
     The local contribution  to forces
     atom    1 type  1   force =    -0.00000002    0.00000001    1.65482728
     atom    2 type  1   force =     0.00000006   -0.00000003    1.65482729
     atom    3 type  2   force =    -0.00000000    0.00000000   -1.33958050
     atom    4 type  2   force =     0.00000001   -0.00000001   -1.33958051
     The core correction contribution to forces
     atom    1 type  1   force =    -0.00000000    0.00000000    0.02398345
     atom    2 type  1   force =     0.00000001   -0.00000000    0.02398346
     atom    3 type  2   force =     0.00000000   -0.00000000    0.00047981
     atom    4 type  2   force =    -0.00000000    0.00000000    0.00047981
     The Hubbard contrib.    to forces
     atom    1 type  1   force =     0.00000000    0.00000000    0.00000000
     atom    2 type  1   force =     0.00000000    0.00000000    0.00000000
     atom    3 type  2   force =     0.00000000    0.00000000    0.00000000
     atom    4 type  2   force =     0.00000000    0.00000000    0.00000000
     The SCF correction term to forces
     atom    1 type  1   force =     0.00000000   -0.00000000    0.00000448
     atom    2 type  1   force =    -0.00000000    0.00000000    0.00000448
     atom    3 type  2   force =     0.00000000   -0.00000000    0.00000124
     atom    4 type  2   force =    -0.00000000    0.00000000    0.00000124

     Total force =     0.204496     Total SCF correction =     0.000007


     Computing stress (Cartesian axis) and pressure

          total   stress  (Ry/bohr**3)                   (kbar)     P=     1190.99
   0.00697069   0.00000000   0.00000000         1025.42        0.00        0.00
   0.00000000   0.00697069   0.00000000            0.00     1025.42        0.00
   0.00000000   0.00000000   0.01034714            0.00        0.00     1522.12


     Writing all to output data dir ./ZnO_ANN.save/

     init_run     :      1.28s CPU      0.89s WALL (       1 calls)
     electrons    :     49.72s CPU     18.71s WALL (       1 calls)
     forces       :      0.53s CPU      0.22s WALL (       1 calls)
     stress       :      1.64s CPU      0.78s WALL (       1 calls)

     Called by init_run:
     wfcinit      :      0.64s CPU      0.25s WALL (       1 calls)
     potinit      :      0.16s CPU      0.16s WALL (       1 calls)
     hinit0       :      0.38s CPU      0.39s WALL (       1 calls)

     Called by electrons:
     c_bands      :     42.00s CPU     15.61s WALL (      20 calls)
     sum_band     :      5.56s CPU      2.21s WALL (      20 calls)
     v_of_rho     :      0.43s CPU      0.21s WALL (      21 calls)
     newd         :      1.62s CPU      0.65s WALL (      21 calls)
     mix_rho      :      0.07s CPU      0.04s WALL (      20 calls)

     Called by c_bands:
     init_us_2    :      0.59s CPU      0.22s WALL (    1204 calls)
     init_us_2:cp :      0.57s CPU      0.21s WALL (    1204 calls)
     cegterg      :     40.71s CPU     15.10s WALL (     560 calls)

     Called by *egterg:
     cdiaghg      :      9.07s CPU      3.16s WALL (    3248 calls)
     h_psi        :     24.87s CPU     10.04s WALL (    3276 calls)
     s_psi        :      0.73s CPU      0.24s WALL (    3276 calls)
     g_psi        :      0.21s CPU      0.06s WALL (    2688 calls)

     Called by h_psi:
     h_psi:calbec :      1.11s CPU      0.43s WALL (    3276 calls)
     vloc_psi     :     22.78s CPU      9.27s WALL (    3276 calls)
     add_vuspsi   :      0.72s CPU      0.25s WALL (    3276 calls)

     General routines
     calbec       :      1.39s CPU      0.54s WALL (    3976 calls)
     fft          :      0.46s CPU      0.31s WALL (     296 calls)
     ffts         :      0.09s CPU      0.08s WALL (      41 calls)
     fftw         :     22.09s CPU      9.01s WALL (   87730 calls)
     interpolate  :      0.11s CPU      0.09s WALL (      21 calls)

     Parallel routines

     PWSCF        :     53.69s CPU     21.05s WALL


   This run was terminated on:  15:15:54  13Jun2025            

=------------------------------------------------------------------------------=
   JOB DONE.
=------------------------------------------------------------------------------=
Note: The following floating-point exceptions are signalling: IEEE_INVALID_FLAG
