Authorization required, but no authorization protocol specified

Authorization required, but no authorization protocol specified

Authorization required, but no authorization protocol specified

Authorization required, but no authorization protocol specified

Authorization required, but no authorization protocol specified

Authorization required, but no authorization protocol specified

Authorization required, but no authorization protocol specified

Authorization required, but no authorization protocol specified

Authorization required, but no authorization protocol specified

Authorization required, but no authorization protocol specified


     Program PWSCF v.7.2 starts on 13Jun2025 at 16:11:42 

     This program is part of the open-source Quantum ESPRESSO suite
     for quantum simulation of materials; please cite
         "P. Giannozzi et al., J. Phys.:Condens. Matter 21 395502 (2009);
         "P. Giannozzi et al., J. Phys.:Condens. Matter 29 465901 (2017);
         "P. Giannozzi et al., J. Chem. Phys. 152 154105 (2020);
          URL http://www.quantum-espresso.org", 
     in publications or presentations arising from this work. More details at
     http://www.quantum-espresso.org/quote

     Parallel version (MPI), running on     8 processors

     MPI processes distributed on     1 nodes
     120724 MiB available memory on the printing compute node when the environment starts

     Reading input from /home/jvc/QEspresso7.2/ZnO_database_python/SCFs.in/scf-5.87-1.73.in

     Current dimensions of program PWSCF are:
     Max number of different atomic species (ntypx) = 10
     Max number of k-points (npk) =  40000
     Max angular momentum in pseudopotentials (lmaxx) =  4
     file Zn.upf: wavefunction(s)  3D renormalized

     R & G space division:  proc/nbgrp/npool/nimage =       8
     Subspace diagonalization in iterative solution of the eigenvalue problem:
     a serial algorithm will be used


     Parallelization info
     --------------------
     sticks:   dense  smooth     PW     G-vecs:    dense   smooth      PW
     Min         119      59     18                 5119     1803     314
     Max         120      60     19                 5126     1808     317
     Sum         955     475    151                40979    14451    2527

     Using Slab Decomposition



     bravais-lattice index     =            4
     lattice parameter (alat)  =       5.8699  a.u.
     unit-cell volume          =     302.5534 (a.u.)^3
     number of atoms/cell      =            4
     number of atomic types    =            2
     number of electrons       =        36.00
     number of Kohn-Sham states=           18
     kinetic-energy cutoff     =      50.0000  Ry
     charge density cutoff     =     400.0000  Ry
     scf convergence threshold =      1.0E-08
     mixing beta               =       0.3000
     number of iterations used =            8  plain     mixing
     Exchange-correlation= PBE
                           (   1   4   3   4   0   0   0)

     celldm(1)=   5.869880  celldm(2)=   0.000000  celldm(3)=   1.727363
     celldm(4)=   0.000000  celldm(5)=   0.000000  celldm(6)=   0.000000

     crystal axes: (cart. coord. in units of alat)
               a(1) = (   1.000000   0.000000   0.000000 )  
               a(2) = (  -0.500000   0.866025   0.000000 )  
               a(3) = (   0.000000   0.000000   1.727363 )  

     reciprocal axes: (cart. coord. in units 2 pi/alat)
               b(1) = (  1.000000  0.577350 -0.000000 )  
               b(2) = (  0.000000  1.154701  0.000000 )  
               b(3) = (  0.000000 -0.000000  0.578917 )  


     PseudoPot. # 1 for Zn read from file:
     /home/jvc/QEspresso7.2/ZnO_database/pseudos/Zn.upf
     MD5 check sum: 7f56cabf9682ed8c977c2f7d0c5985c5
     Pseudo is Ultrasoft + core correction, Zval = 12.0
     Generated using &quot;atomic&quot; code by A. Dal Corso  v.6.2.2
     Using radial grid of 1201 points,  6 beta functions with: 
                l(1) =   0
                l(2) =   0
                l(3) =   1
                l(4) =   1
                l(5) =   2
                l(6) =   2
     Q(r) pseudized with 0 coefficients 


     PseudoPot. # 2 for O  read from file:
     /home/jvc/QEspresso7.2/ZnO_database/pseudos/O.upf
     MD5 check sum: 91400c9766925bcf19f520983a725ff0
     Pseudo is Ultrasoft + core correction, Zval =  6.0
     Generated using &quot;atomic&quot; code by A. Dal Corso  v.6.3MaX
     Using radial grid of 1095 points,  4 beta functions with: 
                l(1) =   0
                l(2) =   0
                l(3) =   1
                l(4) =   1
     Q(r) pseudized with 0 coefficients 


     atomic species   valence    mass     pseudopotential
        Zn            12.00    63.38000     Zn( 1.00)
        O              6.00    15.99900     O ( 1.00)

     12 Sym. Ops. (no inversion) found ( 6 have fractional translation)



   Cartesian axes

     site n.     atom                  positions (alat units)
         1           Zn  tau(   1) = (   0.5000000   0.2886751   0.8647762  )
         2           Zn  tau(   2) = (  -0.0000000   0.5773503   0.0010944  )
         3           O   tau(   3) = (   0.5000000   0.2886751   1.5195209  )
         4           O   tau(   4) = (  -0.0000000   0.5773503   0.6558392  )

     number of k points=    28
                       cart. coord. in units 2pi/alat
        k(    1) = (   0.0000000   0.0000000   0.0000000), wk =   0.0092593
        k(    2) = (   0.0000000   0.0000000   0.0964862), wk =   0.0185185
        k(    3) = (   0.0000000   0.0000000   0.1929723), wk =   0.0185185
        k(    4) = (   0.0000000   0.0000000  -0.2894585), wk =   0.0092593
        k(    5) = (   0.0000000   0.1924501   0.0000000), wk =   0.0555556
        k(    6) = (   0.0000000   0.1924501   0.0964862), wk =   0.1111111
        k(    7) = (   0.0000000   0.1924501   0.1929723), wk =   0.1111111
        k(    8) = (   0.0000000   0.1924501  -0.2894585), wk =   0.0555556
        k(    9) = (   0.0000000   0.3849002   0.0000000), wk =   0.0555556
        k(   10) = (   0.0000000   0.3849002   0.0964862), wk =   0.1111111
        k(   11) = (   0.0000000   0.3849002   0.1929723), wk =   0.1111111
        k(   12) = (   0.0000000   0.3849002  -0.2894585), wk =   0.0555556
        k(   13) = (   0.0000000  -0.5773503   0.0000000), wk =   0.0277778
        k(   14) = (   0.0000000  -0.5773503   0.0964862), wk =   0.0555556
        k(   15) = (   0.0000000  -0.5773503   0.1929723), wk =   0.0555556
        k(   16) = (   0.0000000  -0.5773503  -0.2894585), wk =   0.0277778
        k(   17) = (   0.1666667   0.2886751   0.0000000), wk =   0.0555556
        k(   18) = (   0.1666667   0.2886751   0.0964862), wk =   0.1111111
        k(   19) = (   0.1666667   0.2886751   0.1929723), wk =   0.1111111
        k(   20) = (   0.1666667   0.2886751  -0.2894585), wk =   0.0555556
        k(   21) = (   0.1666667   0.4811252   0.0000000), wk =   0.1111111
        k(   22) = (   0.1666667   0.4811252   0.0964862), wk =   0.2222222
        k(   23) = (   0.1666667   0.4811252   0.1929723), wk =   0.2222222
        k(   24) = (   0.1666667   0.4811252  -0.2894585), wk =   0.1111111
        k(   25) = (   0.3333333   0.5773503   0.0000000), wk =   0.0185185
        k(   26) = (   0.3333333   0.5773503   0.0964862), wk =   0.0370370
        k(   27) = (   0.3333333   0.5773503   0.1929723), wk =   0.0370370
        k(   28) = (   0.3333333   0.5773503  -0.2894585), wk =   0.0185185

     Dense  grid:    40979 G-vectors     FFT dimensions: (  40,  40,  72)

     Smooth grid:    14451 G-vectors     FFT dimensions: (  27,  27,  48)

     Estimated max dynamical RAM per process >      24.14 MB

     Estimated total dynamical RAM >     193.09 MB

     Check: negative core charge=   -0.000002

     Initial potential from superposition of free atoms

     starting charge      35.9925, renormalised to      36.0000
     Starting wfcs are   26 randomized atomic wfcs

     total cpu time spent up to now is        1.5 secs

     Self-consistent Calculation

     iteration #  1     ecut=    50.00 Ry     beta= 0.30
     Davidson diagonalization with overlap
     ethr =  1.00E-02,  avg # of iterations =  2.0

     total cpu time spent up to now is        2.3 secs

     total energy              =    -361.46649466 Ry
     estimated scf accuracy    <       0.67885499 Ry

     iteration #  2     ecut=    50.00 Ry     beta= 0.30
     Davidson diagonalization with overlap
     ethr =  1.89E-03,  avg # of iterations =  2.0

     total cpu time spent up to now is        3.3 secs

     total energy              =    -361.54207235 Ry
     estimated scf accuracy    <       0.10568600 Ry

     iteration #  3     ecut=    50.00 Ry     beta= 0.30
     Davidson diagonalization with overlap
     ethr =  2.94E-04,  avg # of iterations =  6.2

     total cpu time spent up to now is        4.9 secs

     total energy              =    -361.58350039 Ry
     estimated scf accuracy    <       0.07084601 Ry

     iteration #  4     ecut=    50.00 Ry     beta= 0.30
     Davidson diagonalization with overlap
     ethr =  1.97E-04,  avg # of iterations =  6.3

     total cpu time spent up to now is        6.5 secs

     total energy              =    -361.63597201 Ry
     estimated scf accuracy    <       0.08439099 Ry

     iteration #  5     ecut=    50.00 Ry     beta= 0.30
     Davidson diagonalization with overlap
     ethr =  1.97E-04,  avg # of iterations =  1.0

     total cpu time spent up to now is        7.2 secs

     total energy              =    -361.59705801 Ry
     estimated scf accuracy    <       0.08053659 Ry

     iteration #  6     ecut=    50.00 Ry     beta= 0.30
     Davidson diagonalization with overlap
     ethr =  1.97E-04,  avg # of iterations =  2.1

     total cpu time spent up to now is        8.1 secs

     total energy              =    -361.59709415 Ry
     estimated scf accuracy    <       0.01466373 Ry

     iteration #  7     ecut=    50.00 Ry     beta= 0.30
     Davidson diagonalization with overlap
     ethr =  4.07E-05,  avg # of iterations =  6.5

     total cpu time spent up to now is        9.6 secs

     total energy              =    -361.61674000 Ry
     estimated scf accuracy    <       0.01437290 Ry

     iteration #  8     ecut=    50.00 Ry     beta= 0.30
     Davidson diagonalization with overlap
     ethr =  3.99E-05,  avg # of iterations =  1.1

     total cpu time spent up to now is       10.4 secs

     total energy              =    -361.61468840 Ry
     estimated scf accuracy    <       0.01246584 Ry

     iteration #  9     ecut=    50.00 Ry     beta= 0.30
     Davidson diagonalization with overlap
     ethr =  3.46E-05,  avg # of iterations =  1.0

     total cpu time spent up to now is       11.1 secs

     total energy              =    -361.61359088 Ry
     estimated scf accuracy    <       0.00760823 Ry

     iteration # 10     ecut=    50.00 Ry     beta= 0.30
     Davidson diagonalization with overlap
     ethr =  2.11E-05,  avg # of iterations =  1.9

     total cpu time spent up to now is       12.0 secs

     total energy              =    -361.61406487 Ry
     estimated scf accuracy    <       0.00339149 Ry

     iteration # 11     ecut=    50.00 Ry     beta= 0.30
     Davidson diagonalization with overlap
     ethr =  9.42E-06,  avg # of iterations =  1.2

     total cpu time spent up to now is       12.7 secs

     total energy              =    -361.61362604 Ry
     estimated scf accuracy    <       0.00310836 Ry

     iteration # 12     ecut=    50.00 Ry     beta= 0.30
     Davidson diagonalization with overlap
     ethr =  8.63E-06,  avg # of iterations =  1.3

     total cpu time spent up to now is       13.5 secs

     total energy              =    -361.61357252 Ry
     estimated scf accuracy    <       0.00180010 Ry

     iteration # 13     ecut=    50.00 Ry     beta= 0.30
     Davidson diagonalization with overlap
     ethr =  5.00E-06,  avg # of iterations =  2.0

     total cpu time spent up to now is       14.3 secs

     total energy              =    -361.61342196 Ry
     estimated scf accuracy    <       0.00103145 Ry

     iteration # 14     ecut=    50.00 Ry     beta= 0.30
     Davidson diagonalization with overlap
     ethr =  2.87E-06,  avg # of iterations =  4.0

     total cpu time spent up to now is       15.4 secs

     total energy              =    -361.61372488 Ry
     estimated scf accuracy    <       0.00010521 Ry

     iteration # 15     ecut=    50.00 Ry     beta= 0.30
     Davidson diagonalization with overlap
     ethr =  2.92E-07,  avg # of iterations =  4.4

     total cpu time spent up to now is       16.5 secs

     total energy              =    -361.61365495 Ry
     estimated scf accuracy    <       0.00019226 Ry

     iteration # 16     ecut=    50.00 Ry     beta= 0.30
     Davidson diagonalization with overlap
     ethr =  2.92E-07,  avg # of iterations =  5.0

     total cpu time spent up to now is       17.8 secs

     total energy              =    -361.61370161 Ry
     estimated scf accuracy    <       0.00000085 Ry

     iteration # 17     ecut=    50.00 Ry     beta= 0.30
     Davidson diagonalization with overlap
     c_bands:  2 eigenvalues not converged
     ethr =  2.36E-09,  avg # of iterations =  9.6

     total cpu time spent up to now is       20.0 secs

     total energy              =    -361.61369555 Ry
     estimated scf accuracy    <       0.00001571 Ry

     iteration # 18     ecut=    50.00 Ry     beta= 0.30
     Davidson diagonalization with overlap
     ethr =  2.36E-09,  avg # of iterations = 12.1

     total cpu time spent up to now is       22.8 secs

     total energy              =    -361.61371711 Ry
     estimated scf accuracy    <       0.00003334 Ry

     iteration # 19     ecut=    50.00 Ry     beta= 0.30
     Davidson diagonalization with overlap
     ethr =  2.36E-09,  avg # of iterations =  5.9

     total cpu time spent up to now is       24.2 secs

     total energy              =    -361.61374369 Ry
     estimated scf accuracy    <       0.00005105 Ry

     iteration # 20     ecut=    50.00 Ry     beta= 0.30
     Davidson diagonalization with overlap
     ethr =  2.36E-09,  avg # of iterations = 10.9

     total cpu time spent up to now is       26.7 secs

     total energy              =    -361.61377046 Ry
     estimated scf accuracy    <       0.00017944 Ry

     iteration # 21     ecut=    50.00 Ry     beta= 0.30
     Davidson diagonalization with overlap
     ethr =  2.36E-09,  avg # of iterations =  8.1

     total cpu time spent up to now is       28.6 secs

     total energy              =    -361.61373165 Ry
     estimated scf accuracy    <       0.00025414 Ry

     iteration # 22     ecut=    50.00 Ry     beta= 0.30
     Davidson diagonalization with overlap
     ethr =  2.36E-09,  avg # of iterations =  9.9

     total cpu time spent up to now is       30.9 secs

     total energy              =    -361.61375375 Ry
     estimated scf accuracy    <       0.00012293 Ry

     iteration # 23     ecut=    50.00 Ry     beta= 0.30
     Davidson diagonalization with overlap
     ethr =  2.36E-09,  avg # of iterations =  8.2

     total cpu time spent up to now is       32.9 secs

     total energy              =    -361.61370686 Ry
     estimated scf accuracy    <       0.00019308 Ry

     iteration # 24     ecut=    50.00 Ry     beta= 0.30
     Davidson diagonalization with overlap
     ethr =  2.36E-09,  avg # of iterations = 10.9

     total cpu time spent up to now is       35.4 secs

     total energy              =    -361.61369818 Ry
     estimated scf accuracy    <       0.00004701 Ry

     iteration # 25     ecut=    50.00 Ry     beta= 0.30
     Davidson diagonalization with overlap
     ethr =  2.36E-09,  avg # of iterations = 10.6

     total cpu time spent up to now is       37.7 secs

     total energy              =    -361.61370324 Ry
     estimated scf accuracy    <       0.00000159 Ry

     iteration # 26     ecut=    50.00 Ry     beta= 0.30
     Davidson diagonalization with overlap
     ethr =  2.36E-09,  avg # of iterations =  4.8

     total cpu time spent up to now is       38.9 secs

     End of self-consistent calculation

          k = 0.0000 0.0000 0.0000 (  1823 PWs)   bands (ev):

   -10.4051  -9.7083   1.9267   2.1469   2.1469   2.2209   2.3211   2.3211
     3.5980   3.5980   3.7888   3.7888   4.1557   7.6032   7.6032   7.9807
     8.3010   8.3010

          k = 0.0000 0.0000 0.0965 (  1817 PWs)   bands (ev):

   -10.3614  -9.7581   1.8968   2.1551   2.1551   2.1710   2.3056   2.3056
     3.6136   3.6136   3.7798   3.7798   4.3875   7.4223   7.6501   7.6501
     8.2545   8.2545

          k = 0.0000 0.0000 0.1930 (  1841 PWs)   bands (ev):

   -10.2398  -9.8919   1.8744   2.0508   2.1795   2.1795   2.2662   2.2662
     3.6544   3.6544   3.7507   3.7507   4.9761   6.5849   7.7781   7.7781
     8.1271   8.1271

          k = 0.0000 0.0000-0.2895 (  1834 PWs)   bands (ev):

   -10.0689 -10.0689   1.9301   1.9301   2.2192   2.2192   2.2192   2.2192
     3.7060   3.7060   3.7060   3.7060   5.7475   5.7475   7.9528   7.9528
     7.9528   7.9528

          k = 0.0000 0.1925 0.0000 (  1819 PWs)   bands (ev):

   -10.2276  -9.6117   1.9352   2.2211   2.2476   2.2575   2.3651   2.4596
     3.5171   3.5930   3.7975   3.8956   4.1076   6.5793   7.1554   7.2323
     7.8230   8.0694

          k = 0.0000 0.1925 0.0965 (  1814 PWs)   bands (ev):

   -10.1882  -9.6549   1.9074   2.0632   2.2584   2.3138   2.3696   2.4416
     3.5449   3.6085   3.7856   3.8378   4.4081   6.6128   6.9957   7.2895
     7.7200   8.0141

          k = 0.0000 0.1925 0.1930 (  1816 PWs)   bands (ev):

   -10.0794  -9.7716   1.8467   1.9093   2.2901   2.3191   2.3612   2.3953
     3.6128   3.6493   3.7517   3.7718   5.0449   6.4000   6.9080   7.4446
     7.4569   7.8626

          k = 0.0000 0.1925-0.2895 (  1812 PWs)   bands (ev):

    -9.9274  -9.9274   1.8339   1.8339   2.3357   2.3357   2.3391   2.3391
     3.6952   3.6952   3.7023   3.7023   5.7718   5.7718   7.1478   7.1478
     7.6545   7.6545

          k = 0.0000 0.3849 0.0000 (  1806 PWs)   bands (ev):

    -9.8315  -9.4339   1.7220   2.1110   2.4164   2.6646   2.7854   2.8694
     3.4358   3.6775   3.8238   3.9932   4.2154   4.9069   5.9055   6.4584
     7.2640   7.5659

          k = 0.0000 0.3849 0.0965 (  1804 PWs)   bands (ev):

    -9.8047  -9.4602   1.7008   2.0129   2.4368   2.6449   2.7554   2.7940
     3.4842   3.6862   3.8119   3.9345   4.4866   5.0032   5.8643   6.5377
     7.2323   7.4946

          k = 0.0000 0.3849 0.1930 (  1807 PWs)   bands (ev):

    -9.7314  -9.5323   1.6679   1.8213   2.4953   2.6243   2.6781   2.6999
     3.5932   3.7102   3.7817   3.8374   4.8555   5.1865   5.9797   6.7487
     7.0146   7.2989

          k = 0.0000 0.3849-0.2895 (  1796 PWs)   bands (ev):

    -9.6316  -9.6316   1.6925   1.6925   2.5822   2.5822   2.6422   2.6422
     3.7192   3.7192   3.7447   3.7447   5.0946   5.0946   6.5179   6.5179
     7.0275   7.0275

          k = 0.0000-0.5774 0.0000 (  1810 PWs)   bands (ev):

    -9.5868  -9.3776   1.8375   1.9213   2.4743   2.9315   2.9512   2.9788
     3.6099   3.7920   3.8579   3.9546   4.3162   4.3574   5.2639   6.0207
     6.7658   7.2865

          k = 0.0000-0.5774 0.0965 (  1800 PWs)   bands (ev):

    -9.5714  -9.3901   1.7948   1.8551   2.5015   2.9120   2.9137   2.9365
     3.6746   3.7943   3.8490   3.9512   4.2902   4.3361   5.4965   6.1157
     6.8113   7.2072

          k = 0.0000-0.5774 0.1930 (  1792 PWs)   bands (ev):

    -9.5304  -9.4255   1.7099   1.7318   2.5799   2.8286   2.8656   2.8793
     3.7872   3.8013   3.8304   3.9318   4.2610   4.2930   6.0203   6.3635
     6.8066   6.9886

          k = 0.0000-0.5774-0.2895 (  1788 PWs)   bands (ev):

    -9.4765  -9.4765   1.6712   1.6712   2.6970   2.6970   2.8571   2.8571
     3.8134   3.8134   3.8787   3.8787   4.2619   4.2619   6.5363   6.5363
     6.6829   6.6829

          k = 0.1667 0.2887 0.0000 (  1815 PWs)   bands (ev):

    -9.9391  -9.4747   1.8688   2.1130   2.4104   2.4252   2.7201   2.7281
     3.4436   3.6139   3.8123   4.0357   4.1525   5.6211   5.9648   6.5257
     7.4907   7.5201

          k = 0.1667 0.2887 0.0965 (  1809 PWs)   bands (ev):

    -9.9083  -9.5060   1.8408   2.0375   2.3898   2.4164   2.6667   2.7066
     3.4859   3.6413   3.8003   3.9333   4.5007   5.7149   5.9311   6.5403
     7.4257   7.4447

          k = 0.1667 0.2887 0.1930 (  1803 PWs)   bands (ev):

    -9.8239  -9.5915   1.7868   1.8751   2.3864   2.4052   2.6141   2.6554
     3.5892   3.6825   3.7691   3.8322   5.0605   5.7755   6.0283   6.6577
     7.1590   7.2431

          k = 0.1667 0.2887-0.2895 (  1808 PWs)   bands (ev):

    -9.7080  -9.7080   1.7791   1.7791   2.3987   2.3987   2.6116   2.6116
     3.7066   3.7066   3.7342   3.7342   5.4931   5.4931   6.5449   6.5449
     6.9989   6.9989

          k = 0.1667 0.4811 0.0000 (  1805 PWs)   bands (ev):

    -9.5969  -9.3738   1.9477   2.1685   2.4609   2.7561   2.9753   3.0110
     3.5052   3.6352   3.8806   4.0954   4.1927   4.7920   5.2248   5.5842
     6.7282   6.9865

          k = 0.1667 0.4811 0.0965 (  1805 PWs)   bands (ev):

    -9.5806  -9.3873   1.9190   2.0976   2.4567   2.7224   2.9303   2.9446
     3.5342   3.7069   3.8785   4.1150   4.2012   4.8210   5.3365   5.7164
     6.7054   6.9577

          k = 0.1667 0.4811 0.1930 (  1801 PWs)   bands (ev):

    -9.5372  -9.4254   1.8601   1.9488   2.4787   2.6438   2.8561   2.8778
     3.6331   3.7477   3.8852   4.0182   4.3781   4.7363   5.6812   6.0627
     6.5391   6.8982

          k = 0.1667 0.4811-0.2895 (  1804 PWs)   bands (ev):

    -9.4800  -9.4800   1.8523   1.8523   2.5509   2.5509   2.8415   2.8415
     3.7216   3.7216   3.9274   3.9274   4.5700   4.5700   6.0494   6.0494
     6.6598   6.6598

          k = 0.3333 0.5774 0.0000 (  1830 PWs)   bands (ev):

    -9.4123  -9.4123   2.0608   2.6352   2.6352   2.6561   3.2673   3.2673
     3.4608   3.5789   3.5789   3.6051   4.4789   4.5702   4.5702   6.1634
     6.1634   6.2072

          k = 0.3333 0.5774 0.0965 (  1800 PWs)   bands (ev):

    -9.4105  -9.4105   2.0871   2.5285   2.5285   2.5892   3.1825   3.1825
     3.4785   3.5982   3.7600   3.7600   4.5222   4.5222   4.6018   6.0860
     6.2900   6.2900

          k = 0.3333 0.5774 0.1930 (  1800 PWs)   bands (ev):

    -9.4069  -9.4069   2.1638   2.3410   2.3410   2.4411   3.1247   3.1247
     3.5130   3.5780   4.0124   4.0124   4.4058   4.4058   4.9213   5.7650
     6.5406   6.5406

          k = 0.3333 0.5774-0.2895 (  1794 PWs)   bands (ev):

    -9.4051  -9.4051   2.2585   2.2585   2.2867   2.2867   3.1101   3.1101
     3.5482   3.5482   4.1740   4.1740   4.2902   4.2902   5.3421   5.3421
     6.6659   6.6659

     highest occupied level (ev):     8.3010

!    total energy              =    -361.61370356 Ry
     estimated scf accuracy    <          6.6E-09 Ry

     The total energy is the sum of the following terms:
     one-electron contribution =    -144.78329013 Ry
     hartree contribution      =     114.88820797 Ry
     xc contribution           =    -109.73509351 Ry
     ewald contribution        =    -221.98352790 Ry

     convergence has been achieved in  26 iterations

     Forces acting on atoms (cartesian axes, Ry/au):

     atom    1 type  1   force =     0.00000000    0.00000000    0.02795699
     atom    2 type  1   force =     0.00000000    0.00000000    0.02795699
     atom    3 type  2   force =     0.00000000    0.00000000   -0.02795699
     atom    4 type  2   force =     0.00000000   -0.00000000   -0.02795699
     The non-local contrib.  to forces
     atom    1 type  1   force =    -0.00000000    0.00000000    0.19150105
     atom    2 type  1   force =     0.00000000   -0.00000000    0.19150105
     atom    3 type  2   force =     0.00000000   -0.00000000    0.16748595
     atom    4 type  2   force =    -0.00000000    0.00000000    0.16748595
     The ionic contribution  to forces
     atom    1 type  1   force =    -0.00000000    0.00000000    1.54891102
     atom    2 type  1   force =     0.00000000   -0.00000000    1.54891102
     atom    3 type  2   force =    -0.00000000    0.00000000   -1.54891102
     atom    4 type  2   force =     0.00000000   -0.00000000   -1.54891102
     The local contribution  to forces
     atom    1 type  1   force =    -0.00000002    0.00000001   -1.69773195
     atom    2 type  1   force =     0.00000006   -0.00000003   -1.69773194
     atom    3 type  2   force =    -0.00000001    0.00000000    1.35471020
     atom    4 type  2   force =     0.00000002   -0.00000001    1.35471019
     The core correction contribution to forces
     atom    1 type  1   force =    -0.00000000    0.00000000   -0.01471860
     atom    2 type  1   force =     0.00000001   -0.00000000   -0.01471860
     atom    3 type  2   force =     0.00000000   -0.00000000   -0.00127496
     atom    4 type  2   force =    -0.00000000    0.00000000   -0.00127496
     The Hubbard contrib.    to forces
     atom    1 type  1   force =     0.00000000    0.00000000    0.00000000
     atom    2 type  1   force =     0.00000000    0.00000000    0.00000000
     atom    3 type  2   force =     0.00000000    0.00000000    0.00000000
     atom    4 type  2   force =     0.00000000    0.00000000    0.00000000
     The SCF correction term to forces
     atom    1 type  1   force =    -0.00000000    0.00000000   -0.00000021
     atom    2 type  1   force =     0.00000000   -0.00000000   -0.00000021
     atom    3 type  2   force =    -0.00000000    0.00000000    0.00003718
     atom    4 type  2   force =     0.00000000   -0.00000000    0.00003718

     Total force =     0.055914     Total SCF correction =     0.000053


     Computing stress (Cartesian axis) and pressure

          total   stress  (Ry/bohr**3)                   (kbar)     P=      149.61
   0.00142933   0.00000000  -0.00000000          210.26        0.00       -0.00
   0.00000000   0.00142933  -0.00000000            0.00      210.26       -0.00
  -0.00000000  -0.00000000   0.00019242           -0.00       -0.00       28.31


     Writing all to output data dir ./ZnO_ANN.save/

     init_run     :      1.75s CPU      1.18s WALL (       1 calls)
     electrons    :     99.83s CPU     37.42s WALL (       1 calls)
     forces       :      0.59s CPU      0.29s WALL (       1 calls)
     stress       :      2.20s CPU      1.06s WALL (       1 calls)

     Called by init_run:
     wfcinit      :      0.94s CPU      0.37s WALL (       1 calls)
     potinit      :      0.22s CPU      0.22s WALL (       1 calls)
     hinit0       :      0.48s CPU      0.48s WALL (       1 calls)

     Called by electrons:
     c_bands      :     84.67s CPU     31.41s WALL (      26 calls)
     sum_band     :     11.07s CPU      4.38s WALL (      26 calls)
     v_of_rho     :      0.94s CPU      0.41s WALL (      27 calls)
     newd         :      2.93s CPU      1.16s WALL (      27 calls)
     mix_rho      :      0.15s CPU      0.07s WALL (      26 calls)

     Called by c_bands:
     init_us_2    :      0.96s CPU      0.35s WALL (    1540 calls)
     init_us_2:cp :      0.94s CPU      0.34s WALL (    1540 calls)
     cegterg      :     82.50s CPU     30.55s WALL (     728 calls)

     Called by *egterg:
     cdiaghg      :     13.36s CPU      4.44s WALL (    4617 calls)
     h_psi        :     56.45s CPU     22.84s WALL (    4645 calls)
     s_psi        :      1.23s CPU      0.37s WALL (    4645 calls)
     g_psi        :      0.43s CPU      0.11s WALL (    3889 calls)

     Called by h_psi:
     h_psi:calbec :      1.95s CPU      0.71s WALL (    4645 calls)
     vloc_psi     :     52.79s CPU     21.58s WALL (    4645 calls)
     add_vuspsi   :      1.22s CPU      0.40s WALL (    4645 calls)

     General routines
     calbec       :      2.34s CPU      0.86s WALL (    5513 calls)
     fft          :      0.82s CPU      0.50s WALL (     374 calls)
     ffts         :      0.13s CPU      0.11s WALL (      53 calls)
     fftw         :     51.98s CPU     21.30s WALL (  124556 calls)
     interpolate  :      0.16s CPU      0.12s WALL (      27 calls)

     Parallel routines

     PWSCF        :   1m44.91s CPU     40.42s WALL


   This run was terminated on:  16:12:23  13Jun2025            

=------------------------------------------------------------------------------=
   JOB DONE.
=------------------------------------------------------------------------------=
Note: The following floating-point exceptions are signalling: IEEE_INVALID_FLAG
