Authorization required, but no authorization protocol specified

Authorization required, but no authorization protocol specified

Authorization required, but no authorization protocol specified

Authorization required, but no authorization protocol specified

Authorization required, but no authorization protocol specified

Authorization required, but no authorization protocol specified

Authorization required, but no authorization protocol specified

Authorization required, but no authorization protocol specified

Authorization required, but no authorization protocol specified

Authorization required, but no authorization protocol specified


     Program PWSCF v.7.2 starts on 13Jun2025 at 15:44: 4 

     This program is part of the open-source Quantum ESPRESSO suite
     for quantum simulation of materials; please cite
         "P. Giannozzi et al., J. Phys.:Condens. Matter 21 395502 (2009);
         "P. Giannozzi et al., J. Phys.:Condens. Matter 29 465901 (2017);
         "P. Giannozzi et al., J. Chem. Phys. 152 154105 (2020);
          URL http://www.quantum-espresso.org", 
     in publications or presentations arising from this work. More details at
     http://www.quantum-espresso.org/quote

     Parallel version (MPI), running on     8 processors

     MPI processes distributed on     1 nodes
     120718 MiB available memory on the printing compute node when the environment starts

     Reading input from /home/jvc/QEspresso7.2/ZnO_database_python/SCFs.in/scf-5.75-1.57.in

     Current dimensions of program PWSCF are:
     Max number of different atomic species (ntypx) = 10
     Max number of k-points (npk) =  40000
     Max angular momentum in pseudopotentials (lmaxx) =  4
     file Zn.upf: wavefunction(s)  3D renormalized

     R & G space division:  proc/nbgrp/npool/nimage =       8
     Subspace diagonalization in iterative solution of the eigenvalue problem:
     a serial algorithm will be used


     Parallelization info
     --------------------
     sticks:   dense  smooth     PW     G-vecs:    dense   smooth      PW
     Min         114      56     17                 4340     1530     263
     Max         115      57     18                 4345     1533     268
     Sum         913     451    139                34725    12251    2129

     Using Slab Decomposition



     bravais-lattice index     =            4
     lattice parameter (alat)  =       5.7463  a.u.
     unit-cell volume          =     257.3168 (a.u.)^3
     number of atoms/cell      =            4
     number of atomic types    =            2
     number of electrons       =        36.00
     number of Kohn-Sham states=           18
     kinetic-energy cutoff     =      50.0000  Ry
     charge density cutoff     =     400.0000  Ry
     scf convergence threshold =      1.0E-08
     mixing beta               =       0.3000
     number of iterations used =            8  plain     mixing
     Exchange-correlation= PBE
                           (   1   4   3   4   0   0   0)

     celldm(1)=   5.746304  celldm(2)=   0.000000  celldm(3)=   1.565928
     celldm(4)=   0.000000  celldm(5)=   0.000000  celldm(6)=   0.000000

     crystal axes: (cart. coord. in units of alat)
               a(1) = (   1.000000   0.000000   0.000000 )  
               a(2) = (  -0.500000   0.866025   0.000000 )  
               a(3) = (   0.000000   0.000000   1.565928 )  

     reciprocal axes: (cart. coord. in units 2 pi/alat)
               b(1) = (  1.000000  0.577350 -0.000000 )  
               b(2) = (  0.000000  1.154701  0.000000 )  
               b(3) = (  0.000000 -0.000000  0.638599 )  


     PseudoPot. # 1 for Zn read from file:
     /home/jvc/QEspresso7.2/ZnO_database/pseudos/Zn.upf
     MD5 check sum: 7f56cabf9682ed8c977c2f7d0c5985c5
     Pseudo is Ultrasoft + core correction, Zval = 12.0
     Generated using &quot;atomic&quot; code by A. Dal Corso  v.6.2.2
     Using radial grid of 1201 points,  6 beta functions with: 
                l(1) =   0
                l(2) =   0
                l(3) =   1
                l(4) =   1
                l(5) =   2
                l(6) =   2
     Q(r) pseudized with 0 coefficients 


     PseudoPot. # 2 for O  read from file:
     /home/jvc/QEspresso7.2/ZnO_database/pseudos/O.upf
     MD5 check sum: 91400c9766925bcf19f520983a725ff0
     Pseudo is Ultrasoft + core correction, Zval =  6.0
     Generated using &quot;atomic&quot; code by A. Dal Corso  v.6.3MaX
     Using radial grid of 1095 points,  4 beta functions with: 
                l(1) =   0
                l(2) =   0
                l(3) =   1
                l(4) =   1
     Q(r) pseudized with 0 coefficients 


     atomic species   valence    mass     pseudopotential
        Zn            12.00    63.38000     Zn( 1.00)
        O              6.00    15.99900     O ( 1.00)

     12 Sym. Ops. (no inversion) found ( 6 have fractional translation)



   Cartesian axes

     site n.     atom                  positions (alat units)
         1           Zn  tau(   1) = (   0.5000000   0.2886751   0.7839560  )
         2           Zn  tau(   2) = (  -0.0000000   0.5773503   0.0009921  )
         3           O   tau(   3) = (   0.5000000   0.2886751   1.3775096  )
         4           O   tau(   4) = (  -0.0000000   0.5773503   0.5945458  )

     number of k points=    28
                       cart. coord. in units 2pi/alat
        k(    1) = (   0.0000000   0.0000000   0.0000000), wk =   0.0092593
        k(    2) = (   0.0000000   0.0000000   0.1064332), wk =   0.0185185
        k(    3) = (   0.0000000   0.0000000   0.2128664), wk =   0.0185185
        k(    4) = (   0.0000000   0.0000000  -0.3192996), wk =   0.0092593
        k(    5) = (   0.0000000   0.1924501   0.0000000), wk =   0.0555556
        k(    6) = (   0.0000000   0.1924501   0.1064332), wk =   0.1111111
        k(    7) = (   0.0000000   0.1924501   0.2128664), wk =   0.1111111
        k(    8) = (   0.0000000   0.1924501  -0.3192996), wk =   0.0555556
        k(    9) = (   0.0000000   0.3849002   0.0000000), wk =   0.0555556
        k(   10) = (   0.0000000   0.3849002   0.1064332), wk =   0.1111111
        k(   11) = (   0.0000000   0.3849002   0.2128664), wk =   0.1111111
        k(   12) = (   0.0000000   0.3849002  -0.3192996), wk =   0.0555556
        k(   13) = (   0.0000000  -0.5773503   0.0000000), wk =   0.0277778
        k(   14) = (   0.0000000  -0.5773503   0.1064332), wk =   0.0555556
        k(   15) = (   0.0000000  -0.5773503   0.2128664), wk =   0.0555556
        k(   16) = (   0.0000000  -0.5773503  -0.3192996), wk =   0.0277778
        k(   17) = (   0.1666667   0.2886751   0.0000000), wk =   0.0555556
        k(   18) = (   0.1666667   0.2886751   0.1064332), wk =   0.1111111
        k(   19) = (   0.1666667   0.2886751   0.2128664), wk =   0.1111111
        k(   20) = (   0.1666667   0.2886751  -0.3192996), wk =   0.0555556
        k(   21) = (   0.1666667   0.4811252   0.0000000), wk =   0.1111111
        k(   22) = (   0.1666667   0.4811252   0.1064332), wk =   0.2222222
        k(   23) = (   0.1666667   0.4811252   0.2128664), wk =   0.2222222
        k(   24) = (   0.1666667   0.4811252  -0.3192996), wk =   0.1111111
        k(   25) = (   0.3333333   0.5773503   0.0000000), wk =   0.0185185
        k(   26) = (   0.3333333   0.5773503   0.1064332), wk =   0.0370370
        k(   27) = (   0.3333333   0.5773503   0.2128664), wk =   0.0370370
        k(   28) = (   0.3333333   0.5773503  -0.3192996), wk =   0.0185185

     Dense  grid:    34725 G-vectors     FFT dimensions: (  40,  40,  60)

     Smooth grid:    12251 G-vectors     FFT dimensions: (  25,  25,  48)

     Estimated max dynamical RAM per process >      21.00 MB

     Estimated total dynamical RAM >     167.98 MB

     Check: negative core charge=   -0.000001

     Initial potential from superposition of free atoms

     starting charge      35.9925, renormalised to      36.0000
     Starting wfcs are   26 randomized atomic wfcs

     total cpu time spent up to now is        1.4 secs

     Self-consistent Calculation

     iteration #  1     ecut=    50.00 Ry     beta= 0.30
     Davidson diagonalization with overlap
     ethr =  1.00E-02,  avg # of iterations =  2.0

     total cpu time spent up to now is        2.1 secs

     total energy              =    -361.38023590 Ry
     estimated scf accuracy    <       0.67868863 Ry

     iteration #  2     ecut=    50.00 Ry     beta= 0.30
     Davidson diagonalization with overlap
     ethr =  1.89E-03,  avg # of iterations =  2.0

     total cpu time spent up to now is        2.8 secs

     total energy              =    -361.41983839 Ry
     estimated scf accuracy    <       0.13622671 Ry

     iteration #  3     ecut=    50.00 Ry     beta= 0.30
     Davidson diagonalization with overlap
     ethr =  3.78E-04,  avg # of iterations =  6.1

     total cpu time spent up to now is        4.2 secs

     total energy              =    -361.50458862 Ry
     estimated scf accuracy    <       0.09453029 Ry

     iteration #  4     ecut=    50.00 Ry     beta= 0.30
     Davidson diagonalization with overlap
     ethr =  2.63E-04,  avg # of iterations =  2.0

     total cpu time spent up to now is        4.8 secs

     total energy              =    -361.49867002 Ry
     estimated scf accuracy    <       0.02862774 Ry

     iteration #  5     ecut=    50.00 Ry     beta= 0.30
     Davidson diagonalization with overlap
     ethr =  7.95E-05,  avg # of iterations =  9.3

     total cpu time spent up to now is        6.7 secs

     total energy              =    -361.55722913 Ry
     estimated scf accuracy    <       0.47591679 Ry

     iteration #  6     ecut=    50.00 Ry     beta= 0.30
     Davidson diagonalization with overlap
     ethr =  7.95E-05,  avg # of iterations =  4.6

     total cpu time spent up to now is        7.7 secs

     total energy              =    -361.47238280 Ry
     estimated scf accuracy    <       0.21962121 Ry

     iteration #  7     ecut=    50.00 Ry     beta= 0.30
     Davidson diagonalization with overlap
     ethr =  7.95E-05,  avg # of iterations =  7.0

     total cpu time spent up to now is        9.1 secs

     total energy              =    -361.51225710 Ry
     estimated scf accuracy    <       0.00126747 Ry

     iteration #  8     ecut=    50.00 Ry     beta= 0.30
     Davidson diagonalization with overlap
     ethr =  3.52E-06,  avg # of iterations =  8.4

     total cpu time spent up to now is       10.8 secs

     total energy              =    -361.51428722 Ry
     estimated scf accuracy    <       0.00443446 Ry

     iteration #  9     ecut=    50.00 Ry     beta= 0.30
     Davidson diagonalization with overlap
     ethr =  3.52E-06,  avg # of iterations =  1.2

     total cpu time spent up to now is       11.4 secs

     total energy              =    -361.51267014 Ry
     estimated scf accuracy    <       0.00302029 Ry

     iteration # 10     ecut=    50.00 Ry     beta= 0.30
     Davidson diagonalization with overlap
     ethr =  3.52E-06,  avg # of iterations =  6.2

     total cpu time spent up to now is       12.7 secs

     total energy              =    -361.51378463 Ry
     estimated scf accuracy    <       0.00023351 Ry

     iteration # 11     ecut=    50.00 Ry     beta= 0.30
     Davidson diagonalization with overlap
     ethr =  6.49E-07,  avg # of iterations =  2.3

     total cpu time spent up to now is       13.4 secs

     total energy              =    -361.51376902 Ry
     estimated scf accuracy    <       0.00030978 Ry

     iteration # 12     ecut=    50.00 Ry     beta= 0.30
     Davidson diagonalization with overlap
     ethr =  6.49E-07,  avg # of iterations =  1.2

     total cpu time spent up to now is       14.1 secs

     total energy              =    -361.51363881 Ry
     estimated scf accuracy    <       0.00024878 Ry

     iteration # 13     ecut=    50.00 Ry     beta= 0.30
     Davidson diagonalization with overlap
     ethr =  6.49E-07,  avg # of iterations =  2.4

     total cpu time spent up to now is       14.8 secs

     total energy              =    -361.51367286 Ry
     estimated scf accuracy    <       0.00002561 Ry

     iteration # 14     ecut=    50.00 Ry     beta= 0.30
     Davidson diagonalization with overlap
     ethr =  7.11E-08,  avg # of iterations =  6.5

     total cpu time spent up to now is       16.1 secs

     total energy              =    -361.51370395 Ry
     estimated scf accuracy    <       0.00000656 Ry

     iteration # 15     ecut=    50.00 Ry     beta= 0.30
     Davidson diagonalization with overlap
     ethr =  1.82E-08,  avg # of iterations =  5.1

     total cpu time spent up to now is       17.3 secs

     total energy              =    -361.51370613 Ry
     estimated scf accuracy    <       0.00000195 Ry

     iteration # 16     ecut=    50.00 Ry     beta= 0.30
     Davidson diagonalization with overlap
     ethr =  5.43E-09,  avg # of iterations =  3.8

     total cpu time spent up to now is       18.2 secs

     total energy              =    -361.51370675 Ry
     estimated scf accuracy    <       0.00000001 Ry

     iteration # 17     ecut=    50.00 Ry     beta= 0.30
     Davidson diagonalization with overlap
     c_bands:  2 eigenvalues not converged
     ethr =  3.71E-11,  avg # of iterations = 10.7

     total cpu time spent up to now is       20.3 secs

     total energy              =    -361.51370691 Ry
     estimated scf accuracy    <       0.00000087 Ry

     iteration # 18     ecut=    50.00 Ry     beta= 0.30
     Davidson diagonalization with overlap
     ethr =  3.71E-11,  avg # of iterations =  2.6

     total cpu time spent up to now is       21.1 secs

     total energy              =    -361.51370677 Ry
     estimated scf accuracy    <       0.00000071 Ry

     iteration # 19     ecut=    50.00 Ry     beta= 0.30
     Davidson diagonalization with overlap
     ethr =  3.71E-11,  avg # of iterations =  8.0

     total cpu time spent up to now is       22.6 secs

     total energy              =    -361.51370681 Ry
     estimated scf accuracy    <       0.00000023 Ry

     iteration # 20     ecut=    50.00 Ry     beta= 0.30
     Davidson diagonalization with overlap
     ethr =  3.71E-11,  avg # of iterations =  1.1

     total cpu time spent up to now is       23.3 secs

     total energy              =    -361.51370680 Ry
     estimated scf accuracy    <       0.00000025 Ry

     iteration # 21     ecut=    50.00 Ry     beta= 0.30
     Davidson diagonalization with overlap
     ethr =  3.71E-11,  avg # of iterations =  1.0

     total cpu time spent up to now is       23.9 secs

     total energy              =    -361.51370677 Ry
     estimated scf accuracy    <       0.00000024 Ry

     iteration # 22     ecut=    50.00 Ry     beta= 0.30
     Davidson diagonalization with overlap
     ethr =  3.71E-11,  avg # of iterations =  2.0

     total cpu time spent up to now is       24.6 secs

     total energy              =    -361.51370666 Ry
     estimated scf accuracy    <       0.00000018 Ry

     iteration # 23     ecut=    50.00 Ry     beta= 0.30
     Davidson diagonalization with overlap
     ethr =  3.71E-11,  avg # of iterations =  9.6

     total cpu time spent up to now is       26.4 secs

     total energy              =    -361.51370673 Ry
     estimated scf accuracy    <       0.00000005 Ry

     iteration # 24     ecut=    50.00 Ry     beta= 0.30
     Davidson diagonalization with overlap
     ethr =  3.71E-11,  avg # of iterations =  2.0

     total cpu time spent up to now is       27.1 secs

     total energy              =    -361.51370672 Ry
     estimated scf accuracy    <       0.00000002 Ry

     iteration # 25     ecut=    50.00 Ry     beta= 0.30
     Davidson diagonalization with overlap
     ethr =  3.71E-11,  avg # of iterations =  6.8

     total cpu time spent up to now is       28.5 secs

     total energy              =    -361.51370674 Ry
     estimated scf accuracy    <       0.00000002 Ry

     iteration # 26     ecut=    50.00 Ry     beta= 0.30
     Davidson diagonalization with overlap
     ethr =  3.71E-11,  avg # of iterations =  1.0

     total cpu time spent up to now is       29.2 secs

     total energy              =    -361.51370673 Ry
     estimated scf accuracy    <       0.00000001 Ry

     iteration # 27     ecut=    50.00 Ry     beta= 0.30
     Davidson diagonalization with overlap
     ethr =  3.68E-11,  avg # of iterations =  3.2

     total cpu time spent up to now is       30.0 secs

     End of self-consistent calculation

          k = 0.0000 0.0000 0.0000 (  1533 PWs)   bands (ev):

    -9.1166  -7.9308   3.5165   3.9921   3.9921   4.0592   4.2841   4.2841
     5.9128   5.9128   6.2892   6.2892   6.6604   9.8865   9.8865  10.9635
    11.0577  11.0577

          k = 0.0000 0.0000 0.1064 (  1538 PWs)   bands (ev):

    -9.0426  -8.0159   3.4476   3.9553   4.0000   4.0000   4.2516   4.2516
     5.9493   5.9493   6.2780   6.2780   7.0024   9.9651   9.9651  10.4623
    10.9808  10.9808

          k = 0.0000 0.0000 0.2129 (  1556 PWs)   bands (ev):

    -8.8366  -8.2440   3.3858   3.7129   4.0298   4.0298   4.1733   4.1733
     6.0416   6.0416   6.2342   6.2342   7.8128   9.6561  10.1807  10.1807
    10.7687  10.7687

          k = 0.0000 0.0000-0.3193 (  1556 PWs)   bands (ev):

    -8.5459  -8.5459   3.4807   3.4807   4.0898   4.0898   4.0898   4.0898
     6.1498   6.1498   6.1498   6.1498   8.7589   8.7589  10.4757  10.4757
    10.4757  10.4757

          k = 0.0000 0.1925 0.0000 (  1535 PWs)   bands (ev):

    -8.8998  -7.8472   3.6556   3.8505   4.0994   4.1412   4.2921   4.4451
     5.8078   5.9105   6.3137   6.3206   6.6833   8.8833   9.4272   9.9567
    10.7138  10.8130

          k = 0.0000 0.1925 0.1064 (  1542 PWs)   bands (ev):

    -8.8322  -7.9202   3.5520   3.7138   4.1112   4.1408   4.2829   4.4084
     5.8654   5.9452   6.2956   6.3273   7.0329   8.9723   9.5236   9.7646
    10.6465  10.7237

          k = 0.0000 0.1925 0.2129 (  1554 PWs)   bands (ev):

    -8.6454  -8.1183   3.3763   3.5166   4.1313   4.1511   4.2319   4.3201
     5.9985   6.0348   6.2385   6.2683   7.8625   9.1711   9.4178   9.7845
    10.3000  10.4772

          k = 0.0000 0.1925-0.3193 (  1554 PWs)   bands (ev):

    -8.3847  -8.3847   3.3652   3.3652   4.1663   4.1663   4.2238   4.2238
     6.1444   6.1444   6.1488   6.1488   8.6961   8.6961   9.7545   9.7545
    10.1344  10.1344

          k = 0.0000 0.3849 0.0000 (  1533 PWs)   bands (ev):

    -8.4012  -7.7144   3.3685   3.8514   4.2726   4.3563   4.7757   4.8495
     5.7193   6.0375   6.2339   6.3502   6.8974   7.3380   8.4677   8.5577
    10.0032  10.2620

          k = 0.0000 0.3849 0.1064 (  1543 PWs)   bands (ev):

    -8.3527  -7.7568   3.3052   3.6429   4.2989   4.3509   4.6720   4.7939
     5.8115   6.0568   6.3241   6.3756   7.0389   7.5254   8.4712   8.6069
    10.0551  10.1522

          k = 0.0000 0.3849 0.2129 (  1537 PWs)   bands (ev):

    -8.2214  -7.8761   3.1793   3.3149   4.3555   4.3782   4.5223   4.6588
     5.9978   6.1101   6.2608   6.3499   7.3954   7.8597   8.6093   8.9648
     9.8481   9.9369

          k = 0.0000 0.3849-0.3193 (  1546 PWs)   bands (ev):

    -8.0458  -8.0458   3.1473   3.1473   4.4109   4.4109   4.5050   4.5050
     6.1836   6.1836   6.1932   6.1932   7.6956   7.6956   9.3730   9.3730
     9.4189   9.4189

          k = 0.0000-0.5774 0.0000 (  1534 PWs)   bands (ev):

    -8.0734  -7.7093   3.4671   3.5282   4.3284   4.5313   4.8917   5.1255
     5.9510   6.2060   6.3711   6.4566   6.7374   7.0553   7.5972   7.9003
     9.4693   9.9483

          k = 0.0000-0.5774 0.1064 (  1532 PWs)   bands (ev):

    -8.0434  -7.7273   3.3713   3.3932   4.3654   4.5102   4.8196   5.0469
     6.0562   6.2110   6.3408   6.4590   6.7629   6.9620   7.9719   8.0780
     9.5769   9.8291

          k = 0.0000-0.5774 0.2129 (  1518 PWs)   bands (ev):

    -7.9650  -7.7815   3.1599   3.1765   4.4748   4.5137   4.6852   4.8587
     6.2259   6.2294   6.2897   6.4355   6.8097   6.8833   8.5079   8.7156
     9.4976   9.6756

          k = 0.0000-0.5774-0.3193 (  1520 PWs)   bands (ev):

    -7.8672  -7.8672   3.0686   3.0686   4.5746   4.5746   4.6480   4.6480
     6.2512   6.2512   6.3602   6.3602   6.8455   6.8455   9.0239   9.0239
     9.3926   9.3926

          k = 0.1667 0.2887 0.0000 (  1549 PWs)   bands (ev):

    -8.5394  -7.7397   3.5463   3.8213   4.2772   4.2986   4.5275   4.7479
     5.7218   5.9329   6.2994   6.3371   6.8661   7.8934   8.3155   9.0377
    10.2379  10.2508

          k = 0.1667 0.2887 0.1064 (  1536 PWs)   bands (ev):

    -8.4849  -7.7912   3.4804   3.6513   4.2499   4.2516   4.4993   4.7003
     5.7984   6.0011   6.3150   6.3852   7.1227   8.0292   8.4075   8.9381
    10.1222  10.2662

          k = 0.1667 0.2887 0.2129 (  1541 PWs)   bands (ev):

    -8.3360  -7.9342   3.3335   3.3640   4.2220   4.2379   4.4607   4.5910
     5.9745   6.0846   6.2565   6.3370   7.7354   8.4275   8.5365   8.9674
     9.8113  10.0612

          k = 0.1667 0.2887-0.3193 (  1556 PWs)   bands (ev):

    -8.1337  -8.1337   3.2514   3.2514   4.2297   4.2297   4.4887   4.4887
     6.1498   6.1498   6.1972   6.1972   8.1533   8.1533   9.2484   9.2484
     9.5194   9.5194

          k = 0.1667 0.4811 0.0000 (  1533 PWs)   bands (ev):

    -8.0887  -7.7010   3.5843   3.8385   4.2521   4.4566   4.9596   5.1054
     5.8376   5.9381   6.3775   6.4126   6.7333   7.2182   7.5040   7.9678
     9.3722   9.6437

          k = 0.1667 0.4811 0.1064 (  1528 PWs)   bands (ev):

    -8.0573  -7.7207   3.5016   3.6900   4.2347   4.4218   4.8653   5.0078
     5.8729   6.1072   6.3628   6.5348   6.6908   7.3581   7.5638   8.1562
     9.3541   9.6447

          k = 0.1667 0.4811 0.2129 (  1531 PWs)   bands (ev):

    -7.9750  -7.7797   3.3306   3.4053   4.2541   4.3709   4.7635   4.8485
     6.0152   6.1653   6.3710   6.5517   6.8591   7.3152   7.9535   8.6941
     9.0956   9.7108

          k = 0.1667 0.4811-0.3193 (  1530 PWs)   bands (ev):

    -7.8715  -7.8715   3.2607   3.2607   4.3154   4.3154   4.7508   4.7508
     6.1277   6.1277   6.4388   6.4388   7.1189   7.1189   8.4709   8.4709
     9.4551   9.4551

          k = 0.3333 0.5774 0.0000 (  1542 PWs)   bands (ev):

    -7.8138  -7.8138   3.8261   4.2354   4.2354   4.4518   5.1466   5.1466
     5.7776   5.9523   5.9523   6.0413   6.6017   7.2494   7.2494   8.6607
     8.6607   8.8368

          k = 0.3333 0.5774 0.1064 (  1533 PWs)   bands (ev):

    -7.8068  -7.8068   3.8522   4.0475   4.0475   4.3793   5.0598   5.0598
     5.8018   6.0255   6.1922   6.1922   6.7559   7.1842   7.1842   8.6739
     8.8666   8.8666

          k = 0.3333 0.5774 0.2129 (  1548 PWs)   bands (ev):

    -7.7926  -7.7926   3.7262   3.7262   3.9292   4.2196   4.9861   4.9861
     5.8565   5.9826   6.5486   6.5486   7.0382   7.0382   7.1600   8.2485
     9.2737   9.2737

          k = 0.3333 0.5774-0.3193 (  1518 PWs)   bands (ev):

    -7.7854  -7.7854   3.5869   3.5869   4.0562   4.0562   4.9649   4.9649
     5.9221   5.9221   6.7767   6.7767   6.8856   6.8856   7.6986   7.6986
     9.4784   9.4784

     highest occupied level (ev):    11.0577

!    total energy              =    -361.51370673 Ry
     estimated scf accuracy    <          3.7E-10 Ry

     The total energy is the sum of the following terms:
     one-electron contribution =    -125.26407605 Ry
     hartree contribution      =     108.25255922 Ry
     xc contribution           =    -110.13800924 Ry
     ewald contribution        =    -234.36418067 Ry

     convergence has been achieved in  27 iterations

     Forces acting on atoms (cartesian axes, Ry/au):

     atom    1 type  1   force =     0.00000000    0.00000000   -0.03053346
     atom    2 type  1   force =     0.00000000   -0.00000000   -0.03053346
     atom    3 type  2   force =     0.00000000    0.00000000    0.03053346
     atom    4 type  2   force =     0.00000000   -0.00000000    0.03053346
     The non-local contrib.  to forces
     atom    1 type  1   force =     0.00000000    0.00000000   -0.10547998
     atom    2 type  1   force =     0.00000000    0.00000000   -0.10547998
     atom    3 type  2   force =     0.00000000    0.00000000   -0.06240298
     atom    4 type  2   force =     0.00000000    0.00000000   -0.06240298
     The ionic contribution  to forces
     atom    1 type  1   force =    -0.00000000    0.00000000   -0.66614716
     atom    2 type  1   force =     0.00000000   -0.00000000   -0.66614716
     atom    3 type  2   force =    -0.00000000    0.00000000    0.66614716
     atom    4 type  2   force =     0.00000000   -0.00000000    0.66614716
     The local contribution  to forces
     atom    1 type  1   force =    -0.00000002    0.00000001    0.73102874
     atom    2 type  1   force =     0.00000006   -0.00000003    0.73102874
     atom    3 type  2   force =    -0.00000001    0.00000000   -0.57356477
     atom    4 type  2   force =     0.00000002   -0.00000001   -0.57356477
     The core correction contribution to forces
     atom    1 type  1   force =    -0.00000000    0.00000000    0.01006763
     atom    2 type  1   force =     0.00000001   -0.00000000    0.01006763
     atom    3 type  2   force =     0.00000000   -0.00000000    0.00035093
     atom    4 type  2   force =    -0.00000000    0.00000000    0.00035093
     The Hubbard contrib.    to forces
     atom    1 type  1   force =     0.00000000    0.00000000    0.00000000
     atom    2 type  1   force =     0.00000000    0.00000000    0.00000000
     atom    3 type  2   force =     0.00000000    0.00000000    0.00000000
     atom    4 type  2   force =     0.00000000    0.00000000    0.00000000
     The SCF correction term to forces
     atom    1 type  1   force =     0.00000000   -0.00000000   -0.00000280
     atom    2 type  1   force =    -0.00000000    0.00000000   -0.00000280
     atom    3 type  2   force =     0.00000000   -0.00000000    0.00000301
     atom    4 type  2   force =    -0.00000000    0.00000000    0.00000301

     Total force =     0.061067     Total SCF correction =     0.000006


     Computing stress (Cartesian axis) and pressure

          total   stress  (Ry/bohr**3)                   (kbar)     P=      578.29
   0.00358339   0.00000000  -0.00000000          527.14        0.00       -0.00
   0.00000000   0.00358339  -0.00000000            0.00      527.14       -0.00
   0.00000000   0.00000000   0.00462654            0.00        0.00      680.59


     Writing all to output data dir ./ZnO_ANN.save/

     init_run     :      1.54s CPU      1.05s WALL (       1 calls)
     electrons    :     75.96s CPU     28.59s WALL (       1 calls)
     forces       :      0.56s CPU      0.27s WALL (       1 calls)
     stress       :      1.80s CPU      0.89s WALL (       1 calls)

     Called by init_run:
     wfcinit      :      0.80s CPU      0.31s WALL (       1 calls)
     potinit      :      0.19s CPU      0.19s WALL (       1 calls)
     hinit0       :      0.46s CPU      0.47s WALL (       1 calls)

     Called by electrons:
     c_bands      :     63.28s CPU     23.48s WALL (      27 calls)
     sum_band     :      9.20s CPU      3.68s WALL (      27 calls)
     v_of_rho     :      0.84s CPU      0.37s WALL (      28 calls)
     newd         :      2.45s CPU      1.00s WALL (      28 calls)
     mix_rho      :      0.14s CPU      0.06s WALL (      27 calls)

     Called by c_bands:
     init_us_2    :      0.87s CPU      0.32s WALL (    1596 calls)
     init_us_2:cp :      0.85s CPU      0.31s WALL (    1596 calls)
     cegterg      :     61.28s CPU     22.69s WALL (     756 calls)

     Called by *egterg:
     cdiaghg      :     11.66s CPU      3.95s WALL (    4071 calls)
     h_psi        :     39.88s CPU     16.13s WALL (    4099 calls)
     s_psi        :      1.03s CPU      0.32s WALL (    4099 calls)
     g_psi        :      0.32s CPU      0.09s WALL (    3315 calls)

     Called by h_psi:
     h_psi:calbec :      1.61s CPU      0.63s WALL (    4099 calls)
     vloc_psi     :     36.87s CPU     15.03s WALL (    4099 calls)
     add_vuspsi   :      1.02s CPU      0.35s WALL (    4099 calls)

     General routines
     calbec       :      2.00s CPU      0.76s WALL (    4995 calls)
     fft          :      0.75s CPU      0.45s WALL (     387 calls)
     ffts         :      0.11s CPU      0.09s WALL (      55 calls)
     fftw         :     35.92s CPU     14.72s WALL (  114426 calls)
     interpolate  :      0.13s CPU      0.10s WALL (      28 calls)

     Parallel routines

     PWSCF        :   1m20.39s CPU     31.27s WALL


   This run was terminated on:  15:44:35  13Jun2025            

=------------------------------------------------------------------------------=
   JOB DONE.
=------------------------------------------------------------------------------=
Note: The following floating-point exceptions are signalling: IEEE_INVALID_FLAG
