Authorization required, but no authorization protocol specified

Authorization required, but no authorization protocol specified

Authorization required, but no authorization protocol specified

Authorization required, but no authorization protocol specified

Authorization required, but no authorization protocol specified

Authorization required, but no authorization protocol specified

Authorization required, but no authorization protocol specified

Authorization required, but no authorization protocol specified

Authorization required, but no authorization protocol specified

Authorization required, but no authorization protocol specified


     Program PWSCF v.7.2 starts on 13Jun2025 at 16:26: 2 

     This program is part of the open-source Quantum ESPRESSO suite
     for quantum simulation of materials; please cite
         "P. Giannozzi et al., J. Phys.:Condens. Matter 21 395502 (2009);
         "P. Giannozzi et al., J. Phys.:Condens. Matter 29 465901 (2017);
         "P. Giannozzi et al., J. Chem. Phys. 152 154105 (2020);
          URL http://www.quantum-espresso.org", 
     in publications or presentations arising from this work. More details at
     http://www.quantum-espresso.org/quote

     Parallel version (MPI), running on     8 processors

     MPI processes distributed on     1 nodes
     120707 MiB available memory on the printing compute node when the environment starts

     Reading input from /home/jvc/QEspresso7.2/ZnO_database_python/SCFs.in/scf-5.99-1.47.in

     Current dimensions of program PWSCF are:
     Max number of different atomic species (ntypx) = 10
     Max number of k-points (npk) =  40000
     Max angular momentum in pseudopotentials (lmaxx) =  4
     file Zn.upf: wavefunction(s)  3D renormalized

     R & G space division:  proc/nbgrp/npool/nimage =       8
     Subspace diagonalization in iterative solution of the eigenvalue problem:
     a serial algorithm will be used


     Parallelization info
     --------------------
     sticks:   dense  smooth     PW     G-vecs:    dense   smooth      PW
     Min         122      62     18                 4610     1634     278
     Max         123      63     19                 4615     1641     283
     Sum         979     499    151                36903    13101    2249

     Using Slab Decomposition



     bravais-lattice index     =            4
     lattice parameter (alat)  =       5.9935  a.u.
     unit-cell volume          =     273.9076 (a.u.)^3
     number of atoms/cell      =            4
     number of atomic types    =            2
     number of electrons       =        36.00
     number of Kohn-Sham states=           18
     kinetic-energy cutoff     =      50.0000  Ry
     charge density cutoff     =     400.0000  Ry
     scf convergence threshold =      1.0E-08
     mixing beta               =       0.3000
     number of iterations used =            8  plain     mixing
     Exchange-correlation= PBE
                           (   1   4   3   4   0   0   0)

     celldm(1)=   5.993457  celldm(2)=   0.000000  celldm(3)=   1.469066
     celldm(4)=   0.000000  celldm(5)=   0.000000  celldm(6)=   0.000000

     crystal axes: (cart. coord. in units of alat)
               a(1) = (   1.000000   0.000000   0.000000 )  
               a(2) = (  -0.500000   0.866025   0.000000 )  
               a(3) = (   0.000000   0.000000   1.469066 )  

     reciprocal axes: (cart. coord. in units 2 pi/alat)
               b(1) = (  1.000000  0.577350 -0.000000 )  
               b(2) = (  0.000000  1.154701  0.000000 )  
               b(3) = (  0.000000 -0.000000  0.680705 )  


     PseudoPot. # 1 for Zn read from file:
     /home/jvc/QEspresso7.2/ZnO_database/pseudos/Zn.upf
     MD5 check sum: 7f56cabf9682ed8c977c2f7d0c5985c5
     Pseudo is Ultrasoft + core correction, Zval = 12.0
     Generated using &quot;atomic&quot; code by A. Dal Corso  v.6.2.2
     Using radial grid of 1201 points,  6 beta functions with: 
                l(1) =   0
                l(2) =   0
                l(3) =   1
                l(4) =   1
                l(5) =   2
                l(6) =   2
     Q(r) pseudized with 0 coefficients 


     PseudoPot. # 2 for O  read from file:
     /home/jvc/QEspresso7.2/ZnO_database/pseudos/O.upf
     MD5 check sum: 91400c9766925bcf19f520983a725ff0
     Pseudo is Ultrasoft + core correction, Zval =  6.0
     Generated using &quot;atomic&quot; code by A. Dal Corso  v.6.3MaX
     Using radial grid of 1095 points,  4 beta functions with: 
                l(1) =   0
                l(2) =   0
                l(3) =   1
                l(4) =   1
     Q(r) pseudized with 0 coefficients 


     atomic species   valence    mass     pseudopotential
        Zn            12.00    63.38000     Zn( 1.00)
        O              6.00    15.99900     O ( 1.00)

     12 Sym. Ops. (no inversion) found ( 6 have fractional translation)



   Cartesian axes

     site n.     atom                  positions (alat units)
         1           Zn  tau(   1) = (   0.5000000   0.2886751   0.7354638  )
         2           Zn  tau(   2) = (  -0.0000000   0.5773503   0.0009308  )
         3           O   tau(   3) = (   0.5000000   0.2886751   1.2923028  )
         4           O   tau(   4) = (  -0.0000000   0.5773503   0.5577698  )

     number of k points=    28
                       cart. coord. in units 2pi/alat
        k(    1) = (   0.0000000   0.0000000   0.0000000), wk =   0.0092593
        k(    2) = (   0.0000000   0.0000000   0.1134508), wk =   0.0185185
        k(    3) = (   0.0000000   0.0000000   0.2269015), wk =   0.0185185
        k(    4) = (   0.0000000   0.0000000  -0.3403523), wk =   0.0092593
        k(    5) = (   0.0000000   0.1924501   0.0000000), wk =   0.0555556
        k(    6) = (   0.0000000   0.1924501   0.1134508), wk =   0.1111111
        k(    7) = (   0.0000000   0.1924501   0.2269015), wk =   0.1111111
        k(    8) = (   0.0000000   0.1924501  -0.3403523), wk =   0.0555556
        k(    9) = (   0.0000000   0.3849002   0.0000000), wk =   0.0555556
        k(   10) = (   0.0000000   0.3849002   0.1134508), wk =   0.1111111
        k(   11) = (   0.0000000   0.3849002   0.2269015), wk =   0.1111111
        k(   12) = (   0.0000000   0.3849002  -0.3403523), wk =   0.0555556
        k(   13) = (   0.0000000  -0.5773503   0.0000000), wk =   0.0277778
        k(   14) = (   0.0000000  -0.5773503   0.1134508), wk =   0.0555556
        k(   15) = (   0.0000000  -0.5773503   0.2269015), wk =   0.0555556
        k(   16) = (   0.0000000  -0.5773503  -0.3403523), wk =   0.0277778
        k(   17) = (   0.1666667   0.2886751   0.0000000), wk =   0.0555556
        k(   18) = (   0.1666667   0.2886751   0.1134508), wk =   0.1111111
        k(   19) = (   0.1666667   0.2886751   0.2269015), wk =   0.1111111
        k(   20) = (   0.1666667   0.2886751  -0.3403523), wk =   0.0555556
        k(   21) = (   0.1666667   0.4811252   0.0000000), wk =   0.1111111
        k(   22) = (   0.1666667   0.4811252   0.1134508), wk =   0.2222222
        k(   23) = (   0.1666667   0.4811252   0.2269015), wk =   0.2222222
        k(   24) = (   0.1666667   0.4811252  -0.3403523), wk =   0.1111111
        k(   25) = (   0.3333333   0.5773503   0.0000000), wk =   0.0185185
        k(   26) = (   0.3333333   0.5773503   0.1134508), wk =   0.0370370
        k(   27) = (   0.3333333   0.5773503   0.2269015), wk =   0.0370370
        k(   28) = (   0.3333333   0.5773503  -0.3403523), wk =   0.0185185

     Dense  grid:    36903 G-vectors     FFT dimensions: (  40,  40,  60)

     Smooth grid:    13101 G-vectors     FFT dimensions: (  27,  27,  40)

     Estimated max dynamical RAM per process >      22.07 MB

     Estimated total dynamical RAM >     176.54 MB

     Check: negative core charge=   -0.000002

     Initial potential from superposition of free atoms

     starting charge      35.9925, renormalised to      36.0000
     Starting wfcs are   26 randomized atomic wfcs

     total cpu time spent up to now is        1.5 secs

     Self-consistent Calculation

     iteration #  1     ecut=    50.00 Ry     beta= 0.30
     Davidson diagonalization with overlap
     ethr =  1.00E-02,  avg # of iterations =  2.0

     total cpu time spent up to now is        2.2 secs

     total energy              =    -361.40602262 Ry
     estimated scf accuracy    <       0.68371118 Ry

     iteration #  2     ecut=    50.00 Ry     beta= 0.30
     Davidson diagonalization with overlap
     ethr =  1.90E-03,  avg # of iterations =  2.1

     total cpu time spent up to now is        3.1 secs

     total energy              =    -361.46865264 Ry
     estimated scf accuracy    <       0.11847640 Ry

     iteration #  3     ecut=    50.00 Ry     beta= 0.30
     Davidson diagonalization with overlap
     ethr =  3.29E-04,  avg # of iterations =  5.9

     total cpu time spent up to now is        4.4 secs

     total energy              =    -361.52681574 Ry
     estimated scf accuracy    <       0.06907499 Ry

     iteration #  4     ecut=    50.00 Ry     beta= 0.30
     Davidson diagonalization with overlap
     ethr =  1.92E-04,  avg # of iterations =  4.2

     total cpu time spent up to now is        5.5 secs

     total energy              =    -361.55953156 Ry
     estimated scf accuracy    <       0.00891041 Ry

     iteration #  5     ecut=    50.00 Ry     beta= 0.30
     Davidson diagonalization with overlap
     ethr =  2.48E-05,  avg # of iterations =  8.0

     total cpu time spent up to now is        7.2 secs

     total energy              =    -361.52759625 Ry
     estimated scf accuracy    <       0.10585573 Ry

     iteration #  6     ecut=    50.00 Ry     beta= 0.30
     Davidson diagonalization with overlap
     ethr =  2.48E-05,  avg # of iterations =  8.3

     total cpu time spent up to now is        8.9 secs

     total energy              =    -361.54733094 Ry
     estimated scf accuracy    <       0.00010099 Ry

     iteration #  7     ecut=    50.00 Ry     beta= 0.30
     Davidson diagonalization with overlap
     ethr =  2.81E-07,  avg # of iterations =  9.8

     total cpu time spent up to now is       11.0 secs

     total energy              =    -361.54727983 Ry
     estimated scf accuracy    <       0.00121320 Ry

     iteration #  8     ecut=    50.00 Ry     beta= 0.30
     Davidson diagonalization with overlap
     ethr =  2.81E-07,  avg # of iterations =  7.9

     total cpu time spent up to now is       12.7 secs

     total energy              =    -361.54749022 Ry
     estimated scf accuracy    <       0.00000642 Ry

     iteration #  9     ecut=    50.00 Ry     beta= 0.30
     Davidson diagonalization with overlap
     ethr =  1.78E-08,  avg # of iterations =  6.9

     total cpu time spent up to now is       14.2 secs

     total energy              =    -361.54749701 Ry
     estimated scf accuracy    <       0.00000509 Ry

     iteration # 10     ecut=    50.00 Ry     beta= 0.30
     Davidson diagonalization with overlap
     ethr =  1.41E-08,  avg # of iterations =  1.1

     total cpu time spent up to now is       14.9 secs

     total energy              =    -361.54749454 Ry
     estimated scf accuracy    <       0.00000412 Ry

     iteration # 11     ecut=    50.00 Ry     beta= 0.30
     Davidson diagonalization with overlap
     ethr =  1.14E-08,  avg # of iterations =  4.2

     total cpu time spent up to now is       15.9 secs

     total energy              =    -361.54749585 Ry
     estimated scf accuracy    <       0.00000021 Ry

     iteration # 12     ecut=    50.00 Ry     beta= 0.30
     Davidson diagonalization with overlap
     ethr =  5.83E-10,  avg # of iterations =  5.8

     total cpu time spent up to now is       17.2 secs

     total energy              =    -361.54749601 Ry
     estimated scf accuracy    <       0.00000009 Ry

     iteration # 13     ecut=    50.00 Ry     beta= 0.30
     Davidson diagonalization with overlap
     ethr =  2.44E-10,  avg # of iterations =  3.6

     total cpu time spent up to now is       18.1 secs

     total energy              =    -361.54749602 Ry
     estimated scf accuracy    <       0.00000001 Ry

     iteration # 14     ecut=    50.00 Ry     beta= 0.30
     Davidson diagonalization with overlap
     ethr =  3.34E-11,  avg # of iterations =  6.5

     total cpu time spent up to now is       19.5 secs

     total energy              =    -361.54749605 Ry
     estimated scf accuracy    <       0.00000001 Ry

     iteration # 15     ecut=    50.00 Ry     beta= 0.30
     Davidson diagonalization with overlap
     ethr =  3.34E-11,  avg # of iterations =  4.6

     total cpu time spent up to now is       20.6 secs

     total energy              =    -361.54749604 Ry
     estimated scf accuracy    <       0.00000006 Ry

     iteration # 16     ecut=    50.00 Ry     beta= 0.30
     Davidson diagonalization with overlap
     ethr =  3.34E-11,  avg # of iterations =  2.0

     total cpu time spent up to now is       21.4 secs

     total energy              =    -361.54749603 Ry
     estimated scf accuracy    <       0.00000003 Ry

     iteration # 17     ecut=    50.00 Ry     beta= 0.30
     Davidson diagonalization with overlap
     ethr =  3.34E-11,  avg # of iterations =  4.2

     total cpu time spent up to now is       22.3 secs

     End of self-consistent calculation

          k = 0.0000 0.0000 0.0000 (  1627 PWs)   bands (ev):

    -9.6607  -8.4800   3.1162   3.3106   3.3106   3.3286   3.6225   3.6225
     4.9227   4.9227   5.3066   5.3066   5.6024   8.5507   8.5507   9.8194
     9.8194   9.8876

          k = 0.0000 0.0000 0.1135 (  1640 PWs)   bands (ev):

    -9.5850  -8.5618   2.9504   3.2173   3.3137   3.3137   3.5808   3.5808
     4.9654   4.9654   5.3022   5.3022   6.0197   8.6381   8.6381   9.3836
     9.7390   9.7390

          k = 0.0000 0.0000 0.2269 (  1634 PWs)   bands (ev):

    -9.3755  -8.7839   2.7495   2.9695   3.3350   3.3350   3.4859   3.4859
     5.0710   5.0710   5.2698   5.2698   6.9020   8.6446   8.8769   8.8769
     9.5150   9.5150

          k = 0.0000 0.0000-0.3404 (  1652 PWs)   bands (ev):

    -9.0830  -9.0830   2.7631   2.7631   3.3925   3.3925   3.3925   3.3925
     5.1873   5.1873   5.1873   5.1873   7.8272   7.8272   9.1997   9.1997
     9.1997   9.1997

          k = 0.0000 0.1925 0.0000 (  1620 PWs)   bands (ev):

    -9.4791  -8.4318   3.0440   3.2920   3.3947   3.4519   3.6788   3.7617
     4.8445   4.9288   5.2843   5.3348   5.6924   7.6705   8.1218   8.7465
     9.6234   9.6457

          k = 0.0000 0.1925 0.1135 (  1634 PWs)   bands (ev):

    -9.4099  -8.5017   2.9575   3.0652   3.4019   3.4288   3.6318   3.7158
     4.9074   4.9681   5.3228   5.3346   6.0844   7.7768   8.2292   8.5497
     9.5297   9.6266

          k = 0.0000 0.1925 0.2269 (  1644 PWs)   bands (ev):

    -9.2196  -8.6938   2.7225   2.8144   3.4054   3.4338   3.5339   3.6106
     5.0459   5.0674   5.2751   5.3022   6.9277   8.0270   8.2541   8.5177
     9.2688   9.3345

          k = 0.0000 0.1925-0.3404 (  1650 PWs)   bands (ev):

    -8.9573  -8.9573   2.6638   2.6638   3.4446   3.4446   3.5046   3.5046
     5.1832   5.1832   5.1944   5.1944   7.6342   7.6342   8.7465   8.7465
     8.9001   8.9001

          k = 0.0000 0.3849 0.0000 (  1632 PWs)   bands (ev):

    -9.0582  -8.3742   2.7885   3.2431   3.5232   3.6189   4.1078   4.1224
     4.8421   5.0507   5.2174   5.3753   5.8324   6.4362   7.2312   7.4665
     8.9695   9.1766

          k = 0.0000 0.3849 0.1135 (  1638 PWs)   bands (ev):

    -9.0079  -8.4139   2.7112   3.0198   3.5459   3.5885   3.9317   4.0568
     4.9104   5.0722   5.3488   5.3921   5.9996   6.6690   7.3824   7.3893
     9.0616   9.0851

          k = 0.0000 0.3849 0.2269 (  1632 PWs)   bands (ev):

    -8.8729  -8.5280   2.5468   2.6557   3.5679   3.6181   3.7364   3.9045
     5.0748   5.1301   5.2859   5.3783   6.3423   6.8708   7.7466   7.7878
     8.7408   9.0785

          k = 0.0000 0.3849-0.3404 (  1628 PWs)   bands (ev):

    -8.6952  -8.6952   2.4837   2.4837   3.6151   3.6151   3.7422   3.7422
     5.2075   5.2075   5.2471   5.2471   6.6398   6.6398   8.2820   8.2820
     8.5819   8.5819

          k = 0.0000-0.5774 0.0000 (  1634 PWs)   bands (ev):

    -8.7751  -8.4075   2.8513   3.0111   3.5618   3.7474   4.0888   4.3768
     4.9968   5.2008   5.3910   5.4456   5.9704   6.0274   6.6795   6.7019
     8.4794   8.9249

          k = 0.0000-0.5774 0.1135 (  1642 PWs)   bands (ev):

    -8.7428  -8.4234   2.7467   2.8375   3.5952   3.7071   4.0012   4.2880
     5.1014   5.2064   5.3496   5.4461   5.9493   5.9701   6.9102   7.1010
     8.6480   8.8006

          k = 0.0000-0.5774 0.2269 (  1638 PWs)   bands (ev):

    -8.6595  -8.4738   2.5305   2.5385   3.6906   3.6969   3.8488   4.0827
     5.2229   5.2589   5.2894   5.4279   5.9134   5.9610   7.3915   7.9142
     8.4528   8.8488

          k = 0.0000-0.5774-0.3404 (  1640 PWs)   bands (ev):

    -8.5584  -8.5584   2.4155   2.4155   3.7382   3.7382   3.8658   3.8658
     5.2488   5.2488   5.3687   5.3687   5.9352   5.9352   7.9499   7.9499
     8.6126   8.6126

          k = 0.1667 0.2887 0.0000 (  1633 PWs)   bands (ev):

    -9.1755  -8.3800   2.9189   3.2024   3.5593   3.5665   3.9810   4.0179
     4.7842   4.9632   5.2514   5.3644   5.8625   6.8653   7.1062   7.9088
     9.1469   9.1886

          k = 0.1667 0.2887 0.1135 (  1630 PWs)   bands (ev):

    -9.1192  -8.4286   2.8410   3.0296   3.5196   3.5240   3.8213   3.9586
     4.8623   5.0376   5.3448   5.3790   6.1411   7.0539   7.2188   7.7873
     9.0260   9.2737

          k = 0.1667 0.2887 0.2269 (  1638 PWs)   bands (ev):

    -8.9668  -8.5662   2.6640   2.6978   3.4810   3.5121   3.6999   3.8279
     5.0330   5.1176   5.2921   5.3597   6.6664   7.2809   7.7254   7.8063
     8.6974   9.1874

          k = 0.1667 0.2887-0.3404 (  1638 PWs)   bands (ev):

    -8.7628  -8.7628   2.5647   2.5647   3.4957   3.4957   3.7114   3.7114
     5.1825   5.1825   5.2453   5.2453   7.0268   7.0268   8.2117   8.2117
     8.6360   8.6360

          k = 0.1667 0.4811 0.0000 (  1636 PWs)   bands (ev):

    -8.7872  -8.3994   2.9613   3.2242   3.5128   3.6936   4.2053   4.3911
     4.9484   4.9618   5.3929   5.4308   5.6850   6.1243   6.5938   6.9772
     8.4093   8.6324

          k = 0.1667 0.4811 0.1135 (  1636 PWs)   bands (ev):

    -8.7538  -8.4168   2.8636   3.0538   3.4855   3.6613   4.0741   4.2506
     4.9417   5.1399   5.3714   5.5435   5.7031   6.3199   6.5759   7.2632
     8.4091   8.6704

          k = 0.1667 0.4811 0.2269 (  1633 PWs)   bands (ev):

    -8.6672  -8.4713   2.6552   2.7196   3.5091   3.6155   3.9350   4.0471
     5.0605   5.1772   5.3835   5.5300   5.9220   6.3353   6.9135   7.8985
     8.1311   8.8696

          k = 0.1667 0.4811-0.3404 (  1634 PWs)   bands (ev):

    -8.5612  -8.5612   2.5605   2.5605   3.5695   3.5695   3.9196   3.9196
     5.1465   5.1465   5.4470   5.4470   6.1536   6.1536   7.4755   7.4755
     8.6744   8.6744

          k = 0.3333 0.5774 0.0000 (  1641 PWs)   bands (ev):

    -8.5321  -8.5321   3.1838   3.4231   3.4231   3.9362   4.3692   4.3692
     4.8567   5.0730   5.0730   5.1141   5.5031   6.1863   6.1863   7.6978
     7.6978   8.0262

          k = 0.3333 0.5774 0.1135 (  1641 PWs)   bands (ev):

    -8.5228  -8.5228   3.2090   3.2447   3.2447   3.8270   4.2205   4.2205
     4.8800   5.0987   5.3025   5.3025   5.7050   6.1330   6.1330   7.8543
     7.9624   7.9624

          k = 0.3333 0.5774 0.2269 (  1614 PWs)   bands (ev):

    -8.5042  -8.5042   2.9153   2.9153   3.2874   3.6158   4.0978   4.0978
     4.9324   5.0560   5.5869   5.5869   6.0357   6.0357   6.1935   7.4007
     8.4693   8.4693

          k = 0.3333 0.5774-0.3404 (  1626 PWs)   bands (ev):

    -8.4948  -8.4948   2.7667   2.7667   3.4237   3.4237   4.0626   4.0626
     4.9956   4.9956   5.7114   5.7114   5.9741   5.9741   6.8015   6.8015
     8.7171   8.7171

     highest occupied level (ev):     9.8876

!    total energy              =    -361.54749603 Ry
     estimated scf accuracy    <          6.3E-09 Ry

     The total energy is the sum of the following terms:
     one-electron contribution =    -133.95756194 Ry
     hartree contribution      =     111.35348160 Ry
     xc contribution           =    -109.98886222 Ry
     ewald contribution        =    -228.95455347 Ry

     convergence has been achieved in  17 iterations

     Forces acting on atoms (cartesian axes, Ry/au):

     atom    1 type  1   force =     0.00000000    0.00000000   -0.09032530
     atom    2 type  1   force =     0.00000000    0.00000000   -0.09032530
     atom    3 type  2   force =    -0.00000000    0.00000000    0.09032530
     atom    4 type  2   force =     0.00000000    0.00000000    0.09032530
     The non-local contrib.  to forces
     atom    1 type  1   force =     0.00000000    0.00000000   -0.30697689
     atom    2 type  1   force =     0.00000000   -0.00000000   -0.30697689
     atom    3 type  2   force =    -0.00000000   -0.00000000   -0.19235873
     atom    4 type  2   force =    -0.00000000   -0.00000000   -0.19235873
     The ionic contribution  to forces
     atom    1 type  1   force =    -0.00000000    0.00000000   -2.12666341
     atom    2 type  1   force =     0.00000000   -0.00000000   -2.12666341
     atom    3 type  2   force =    -0.00000000    0.00000000    2.12666341
     atom    4 type  2   force =     0.00000000   -0.00000000    2.12666341
     The local contribution  to forces
     atom    1 type  1   force =    -0.00000002    0.00000001    2.31561508
     atom    2 type  1   force =     0.00000006   -0.00000004    2.31561508
     atom    3 type  2   force =    -0.00000001    0.00000000   -1.84512074
     atom    4 type  2   force =     0.00000002   -0.00000001   -1.84512073
     The core correction contribution to forces
     atom    1 type  1   force =    -0.00000000    0.00000000    0.02771981
     atom    2 type  1   force =     0.00000001   -0.00000000    0.02771981
     atom    3 type  2   force =     0.00000000   -0.00000000    0.00113209
     atom    4 type  2   force =    -0.00000000    0.00000000    0.00113209
     The Hubbard contrib.    to forces
     atom    1 type  1   force =     0.00000000    0.00000000    0.00000000
     atom    2 type  1   force =     0.00000000    0.00000000    0.00000000
     atom    3 type  2   force =     0.00000000    0.00000000    0.00000000
     atom    4 type  2   force =     0.00000000    0.00000000    0.00000000
     The SCF correction term to forces
     atom    1 type  1   force =    -0.00000000    0.00000000   -0.00002601
     atom    2 type  1   force =     0.00000000   -0.00000000   -0.00002601
     atom    3 type  2   force =     0.00000000   -0.00000000    0.00000312
     atom    4 type  2   force =    -0.00000000    0.00000000    0.00000312

     Total force =     0.180651     Total SCF correction =     0.000037


     Computing stress (Cartesian axis) and pressure

          total   stress  (Ry/bohr**3)                   (kbar)     P=      404.01
   0.00178644   0.00000000   0.00000000          262.79        0.00        0.00
   0.00000000   0.00178644   0.00000000            0.00      262.79        0.00
   0.00000000   0.00000000   0.00466638            0.00        0.00      686.45


     Writing all to output data dir ./ZnO_ANN.save/

     init_run     :      1.59s CPU      1.12s WALL (       1 calls)
     electrons    :     55.57s CPU     20.88s WALL (       1 calls)
     forces       :      0.62s CPU      0.31s WALL (       1 calls)
     stress       :      1.96s CPU      0.99s WALL (       1 calls)

     Called by init_run:
     wfcinit      :      0.82s CPU      0.33s WALL (       1 calls)
     potinit      :      0.20s CPU      0.20s WALL (       1 calls)
     hinit0       :      0.47s CPU      0.49s WALL (       1 calls)

     Called by electrons:
     c_bands      :     46.79s CPU     17.38s WALL (      17 calls)
     sum_band     :      6.47s CPU      2.54s WALL (      17 calls)
     v_of_rho     :      0.54s CPU      0.24s WALL (      18 calls)
     newd         :      1.67s CPU      0.70s WALL (      18 calls)
     mix_rho      :      0.09s CPU      0.04s WALL (      17 calls)

     Called by c_bands:
     init_us_2    :      0.60s CPU      0.22s WALL (    1036 calls)
     init_us_2:cp :      0.59s CPU      0.22s WALL (    1036 calls)
     cegterg      :     45.49s CPU     16.85s WALL (     476 calls)

     Called by *egterg:
     cdiaghg      :      8.41s CPU      2.86s WALL (    2916 calls)
     h_psi        :     30.23s CPU     12.22s WALL (    2944 calls)
     s_psi        :      0.75s CPU      0.23s WALL (    2944 calls)
     g_psi        :      0.24s CPU      0.06s WALL (    2440 calls)

     Called by h_psi:
     h_psi:calbec :      1.11s CPU      0.42s WALL (    2944 calls)
     vloc_psi     :     28.12s CPU     11.47s WALL (    2944 calls)
     add_vuspsi   :      0.73s CPU      0.25s WALL (    2944 calls)

     General routines
     calbec       :      1.42s CPU      0.52s WALL (    3560 calls)
     fft          :      0.58s CPU      0.40s WALL (     257 calls)
     ffts         :      0.11s CPU      0.10s WALL (      35 calls)
     fftw         :     27.71s CPU     11.34s WALL (   76678 calls)
     interpolate  :      0.12s CPU      0.10s WALL (      18 calls)

     Parallel routines

     PWSCF        :   1m 0.28s CPU     23.75s WALL


   This run was terminated on:  16:26:26  13Jun2025            

=------------------------------------------------------------------------------=
   JOB DONE.
=------------------------------------------------------------------------------=
Note: The following floating-point exceptions are signalling: IEEE_INVALID_FLAG
