Authorization required, but no authorization protocol specified

Authorization required, but no authorization protocol specified

Authorization required, but no authorization protocol specified

Authorization required, but no authorization protocol specified

Authorization required, but no authorization protocol specified

Authorization required, but no authorization protocol specified

Authorization required, but no authorization protocol specified

Authorization required, but no authorization protocol specified

Authorization required, but no authorization protocol specified

Authorization required, but no authorization protocol specified


     Program PWSCF v.7.2 starts on 13Jun2025 at 19:20:22 

     This program is part of the open-source Quantum ESPRESSO suite
     for quantum simulation of materials; please cite
         "P. Giannozzi et al., J. Phys.:Condens. Matter 21 395502 (2009);
         "P. Giannozzi et al., J. Phys.:Condens. Matter 29 465901 (2017);
         "P. Giannozzi et al., J. Chem. Phys. 152 154105 (2020);
          URL http://www.quantum-espresso.org", 
     in publications or presentations arising from this work. More details at
     http://www.quantum-espresso.org/quote

     Parallel version (MPI), running on     8 processors

     MPI processes distributed on     1 nodes
     120698 MiB available memory on the printing compute node when the environment starts

     Reading input from /home/jvc/QEspresso7.2/ZnO_database_python/SCFs.in/scf-6.67-1.49.in

     Current dimensions of program PWSCF are:
     Max number of different atomic species (ntypx) = 10
     Max number of k-points (npk) =  40000
     Max angular momentum in pseudopotentials (lmaxx) =  4
     file Zn.upf: wavefunction(s)  3D renormalized

     R & G space division:  proc/nbgrp/npool/nimage =       8
     Subspace diagonalization in iterative solution of the eigenvalue problem:
     a serial algorithm will be used


     Parallelization info
     --------------------
     sticks:   dense  smooth     PW     G-vecs:    dense   smooth      PW
     Min         154      75     23                 6446     2271     375
     Max         155      78     24                 6451     2277     380
     Sum        1237     613    187                51591    18189    3019

     Using Slab Decomposition



     bravais-lattice index     =            4
     lattice parameter (alat)  =       6.6731  a.u.
     unit-cell volume          =     382.2140 (a.u.)^3
     number of atoms/cell      =            4
     number of atomic types    =            2
     number of electrons       =        36.00
     number of Kohn-Sham states=           18
     kinetic-energy cutoff     =      50.0000  Ry
     charge density cutoff     =     400.0000  Ry
     scf convergence threshold =      1.0E-08
     mixing beta               =       0.3000
     number of iterations used =            8  plain     mixing
     Exchange-correlation= PBE
                           (   1   4   3   4   0   0   0)

     celldm(1)=   6.673127  celldm(2)=   0.000000  celldm(3)=   1.485210
     celldm(4)=   0.000000  celldm(5)=   0.000000  celldm(6)=   0.000000

     crystal axes: (cart. coord. in units of alat)
               a(1) = (   1.000000   0.000000   0.000000 )  
               a(2) = (  -0.500000   0.866025   0.000000 )  
               a(3) = (   0.000000   0.000000   1.485210 )  

     reciprocal axes: (cart. coord. in units 2 pi/alat)
               b(1) = (  1.000000  0.577350 -0.000000 )  
               b(2) = (  0.000000  1.154701  0.000000 )  
               b(3) = (  0.000000 -0.000000  0.673306 )  


     PseudoPot. # 1 for Zn read from file:
     /home/jvc/QEspresso7.2/ZnO_database/pseudos/Zn.upf
     MD5 check sum: 7f56cabf9682ed8c977c2f7d0c5985c5
     Pseudo is Ultrasoft + core correction, Zval = 12.0
     Generated using &quot;atomic&quot; code by A. Dal Corso  v.6.2.2
     Using radial grid of 1201 points,  6 beta functions with: 
                l(1) =   0
                l(2) =   0
                l(3) =   1
                l(4) =   1
                l(5) =   2
                l(6) =   2
     Q(r) pseudized with 0 coefficients 


     PseudoPot. # 2 for O  read from file:
     /home/jvc/QEspresso7.2/ZnO_database/pseudos/O.upf
     MD5 check sum: 91400c9766925bcf19f520983a725ff0
     Pseudo is Ultrasoft + core correction, Zval =  6.0
     Generated using &quot;atomic&quot; code by A. Dal Corso  v.6.3MaX
     Using radial grid of 1095 points,  4 beta functions with: 
                l(1) =   0
                l(2) =   0
                l(3) =   1
                l(4) =   1
     Q(r) pseudized with 0 coefficients 


     atomic species   valence    mass     pseudopotential
        Zn            12.00    63.38000     Zn( 1.00)
        O              6.00    15.99900     O ( 1.00)

     12 Sym. Ops. (no inversion) found ( 6 have fractional translation)



   Cartesian axes

     site n.     atom                  positions (alat units)
         1           Zn  tau(   1) = (   0.5000000   0.2886751   0.7435459  )
         2           Zn  tau(   2) = (  -0.0000000   0.5773503   0.0009410  )
         3           O   tau(   3) = (   0.5000000   0.2886751   1.3065039  )
         4           O   tau(   4) = (  -0.0000000   0.5773503   0.5638991  )

     number of k points=    28
                       cart. coord. in units 2pi/alat
        k(    1) = (   0.0000000   0.0000000   0.0000000), wk =   0.0092593
        k(    2) = (   0.0000000   0.0000000   0.1122176), wk =   0.0185185
        k(    3) = (   0.0000000   0.0000000   0.2244352), wk =   0.0185185
        k(    4) = (   0.0000000   0.0000000  -0.3366528), wk =   0.0092593
        k(    5) = (   0.0000000   0.1924501   0.0000000), wk =   0.0555556
        k(    6) = (   0.0000000   0.1924501   0.1122176), wk =   0.1111111
        k(    7) = (   0.0000000   0.1924501   0.2244352), wk =   0.1111111
        k(    8) = (   0.0000000   0.1924501  -0.3366528), wk =   0.0555556
        k(    9) = (   0.0000000   0.3849002   0.0000000), wk =   0.0555556
        k(   10) = (   0.0000000   0.3849002   0.1122176), wk =   0.1111111
        k(   11) = (   0.0000000   0.3849002   0.2244352), wk =   0.1111111
        k(   12) = (   0.0000000   0.3849002  -0.3366528), wk =   0.0555556
        k(   13) = (   0.0000000  -0.5773503   0.0000000), wk =   0.0277778
        k(   14) = (   0.0000000  -0.5773503   0.1122176), wk =   0.0555556
        k(   15) = (   0.0000000  -0.5773503   0.2244352), wk =   0.0555556
        k(   16) = (   0.0000000  -0.5773503  -0.3366528), wk =   0.0277778
        k(   17) = (   0.1666667   0.2886751   0.0000000), wk =   0.0555556
        k(   18) = (   0.1666667   0.2886751   0.1122176), wk =   0.1111111
        k(   19) = (   0.1666667   0.2886751   0.2244352), wk =   0.1111111
        k(   20) = (   0.1666667   0.2886751  -0.3366528), wk =   0.0555556
        k(   21) = (   0.1666667   0.4811252   0.0000000), wk =   0.1111111
        k(   22) = (   0.1666667   0.4811252   0.1122176), wk =   0.2222222
        k(   23) = (   0.1666667   0.4811252   0.2244352), wk =   0.2222222
        k(   24) = (   0.1666667   0.4811252  -0.3366528), wk =   0.1111111
        k(   25) = (   0.3333333   0.5773503   0.0000000), wk =   0.0185185
        k(   26) = (   0.3333333   0.5773503   0.1122176), wk =   0.0370370
        k(   27) = (   0.3333333   0.5773503   0.2244352), wk =   0.0370370
        k(   28) = (   0.3333333   0.5773503  -0.3366528), wk =   0.0185185

     Dense  grid:    51591 G-vectors     FFT dimensions: (  45,  45,  64)

     Smooth grid:    18189 G-vectors     FFT dimensions: (  32,  32,  48)

     Estimated max dynamical RAM per process >      29.45 MB

     Estimated total dynamical RAM >     235.62 MB

     Check: negative core charge=   -0.000002

     Initial potential from superposition of free atoms

     starting charge      35.9925, renormalised to      36.0000
     Starting wfcs are   26 randomized atomic wfcs

     total cpu time spent up to now is        1.5 secs

     Self-consistent Calculation

     iteration #  1     ecut=    50.00 Ry     beta= 0.30
     Davidson diagonalization with overlap
     ethr =  1.00E-02,  avg # of iterations =  1.5

     total cpu time spent up to now is        2.3 secs

     total energy              =    -361.42334555 Ry
     estimated scf accuracy    <       0.76476495 Ry

     iteration #  2     ecut=    50.00 Ry     beta= 0.30
     Davidson diagonalization with overlap
     ethr =  2.12E-03,  avg # of iterations =  2.3

     total cpu time spent up to now is        3.3 secs

     total energy              =    -361.54547796 Ry
     estimated scf accuracy    <       0.08317081 Ry

     iteration #  3     ecut=    50.00 Ry     beta= 0.30
     Davidson diagonalization with overlap
     ethr =  2.31E-04,  avg # of iterations =  6.6

     total cpu time spent up to now is        4.8 secs

     total energy              =    -361.56199696 Ry
     estimated scf accuracy    <       0.08507343 Ry

     iteration #  4     ecut=    50.00 Ry     beta= 0.30
     Davidson diagonalization with overlap
     ethr =  2.31E-04,  avg # of iterations =  8.4

     total cpu time spent up to now is        6.7 secs

     total energy              =    -361.62233682 Ry
     estimated scf accuracy    <       0.30886990 Ry

     iteration #  5     ecut=    50.00 Ry     beta= 0.30
     Davidson diagonalization with overlap
     ethr =  2.31E-04,  avg # of iterations =  1.6

     total cpu time spent up to now is        7.4 secs

     total energy              =    -361.48759118 Ry
     estimated scf accuracy    <       0.18448391 Ry

     iteration #  6     ecut=    50.00 Ry     beta= 0.30
     Davidson diagonalization with overlap
     ethr =  2.31E-04,  avg # of iterations =  7.5

     total cpu time spent up to now is        9.1 secs

     total energy              =    -361.58065168 Ry
     estimated scf accuracy    <       0.41411201 Ry

     iteration #  7     ecut=    50.00 Ry     beta= 0.30
     Davidson diagonalization with overlap
     ethr =  2.31E-04,  avg # of iterations =  4.6

     total cpu time spent up to now is       10.2 secs

     total energy              =    -361.60839773 Ry
     estimated scf accuracy    <       0.07193151 Ry

     iteration #  8     ecut=    50.00 Ry     beta= 0.30
     Davidson diagonalization with overlap
     ethr =  2.00E-04,  avg # of iterations =  1.4

     total cpu time spent up to now is       11.0 secs

     total energy              =    -361.61031798 Ry
     estimated scf accuracy    <       0.06366441 Ry

     iteration #  9     ecut=    50.00 Ry     beta= 0.30
     Davidson diagonalization with overlap
     ethr =  1.77E-04,  avg # of iterations =  1.4

     total cpu time spent up to now is       11.8 secs

     total energy              =    -361.60475630 Ry
     estimated scf accuracy    <       0.05847965 Ry

     iteration # 10     ecut=    50.00 Ry     beta= 0.30
     Davidson diagonalization with overlap
     ethr =  1.62E-04,  avg # of iterations =  1.4

     total cpu time spent up to now is       12.6 secs

     total energy              =    -361.59278307 Ry
     estimated scf accuracy    <       0.04191920 Ry

     iteration # 11     ecut=    50.00 Ry     beta= 0.30
     Davidson diagonalization with overlap
     ethr =  1.16E-04,  avg # of iterations =  4.7

     total cpu time spent up to now is       13.6 secs

     total energy              =    -361.60179468 Ry
     estimated scf accuracy    <       0.00191437 Ry

     iteration # 12     ecut=    50.00 Ry     beta= 0.30
     Davidson diagonalization with overlap
     ethr =  5.32E-06,  avg # of iterations =  6.7

     total cpu time spent up to now is       15.1 secs

     total energy              =    -361.60462555 Ry
     estimated scf accuracy    <       0.00044121 Ry

     iteration # 13     ecut=    50.00 Ry     beta= 0.30
     Davidson diagonalization with overlap
     ethr =  1.23E-06,  avg # of iterations =  1.9

     total cpu time spent up to now is       15.9 secs

     total energy              =    -361.60440319 Ry
     estimated scf accuracy    <       0.00032578 Ry

     iteration # 14     ecut=    50.00 Ry     beta= 0.30
     Davidson diagonalization with overlap
     ethr =  9.05E-07,  avg # of iterations =  6.7

     total cpu time spent up to now is       17.4 secs

     total energy              =    -361.60460758 Ry
     estimated scf accuracy    <       0.00060252 Ry

     iteration # 15     ecut=    50.00 Ry     beta= 0.30
     Davidson diagonalization with overlap
     ethr =  9.05E-07,  avg # of iterations =  1.0

     total cpu time spent up to now is       18.2 secs

     total energy              =    -361.60440863 Ry
     estimated scf accuracy    <       0.00035186 Ry

     iteration # 16     ecut=    50.00 Ry     beta= 0.30
     Davidson diagonalization with overlap
     ethr =  9.05E-07,  avg # of iterations =  5.9

     total cpu time spent up to now is       19.6 secs

     total energy              =    -361.60451780 Ry
     estimated scf accuracy    <       0.00021894 Ry

     iteration # 17     ecut=    50.00 Ry     beta= 0.30
     Davidson diagonalization with overlap
     ethr =  6.08E-07,  avg # of iterations =  4.2

     total cpu time spent up to now is       20.6 secs

     total energy              =    -361.60457281 Ry
     estimated scf accuracy    <       0.00000475 Ry

     iteration # 18     ecut=    50.00 Ry     beta= 0.30
     Davidson diagonalization with overlap
     ethr =  1.32E-08,  avg # of iterations = 11.4

     total cpu time spent up to now is       23.0 secs

     total energy              =    -361.60451683 Ry
     estimated scf accuracy    <       0.00015968 Ry

     iteration # 19     ecut=    50.00 Ry     beta= 0.30
     Davidson diagonalization with overlap
     ethr =  1.32E-08,  avg # of iterations = 13.0

     total cpu time spent up to now is       25.7 secs

     total energy              =    -361.60465935 Ry
     estimated scf accuracy    <       0.00009629 Ry

     iteration # 20     ecut=    50.00 Ry     beta= 0.30
     Davidson diagonalization with overlap
     ethr =  1.32E-08,  avg # of iterations = 10.6

     total cpu time spent up to now is       27.9 secs

     total energy              =    -361.60454257 Ry
     estimated scf accuracy    <       0.00043076 Ry

     iteration # 21     ecut=    50.00 Ry     beta= 0.30
     Davidson diagonalization with overlap
     ethr =  1.32E-08,  avg # of iterations = 11.3

     total cpu time spent up to now is       30.3 secs

     total energy              =    -361.60460187 Ry
     estimated scf accuracy    <       0.00002910 Ry

     iteration # 22     ecut=    50.00 Ry     beta= 0.30
     Davidson diagonalization with overlap
     ethr =  1.32E-08,  avg # of iterations =  6.7

     total cpu time spent up to now is       31.9 secs

     total energy              =    -361.60461244 Ry
     estimated scf accuracy    <       0.00012606 Ry

     iteration # 23     ecut=    50.00 Ry     beta= 0.30
     Davidson diagonalization with overlap
     ethr =  1.32E-08,  avg # of iterations =  1.5

     total cpu time spent up to now is       32.6 secs

     total energy              =    -361.60461459 Ry
     estimated scf accuracy    <       0.00013724 Ry

     iteration # 24     ecut=    50.00 Ry     beta= 0.30
     Davidson diagonalization with overlap
     ethr =  1.32E-08,  avg # of iterations =  1.5

     total cpu time spent up to now is       33.4 secs

     total energy              =    -361.60463565 Ry
     estimated scf accuracy    <       0.00014412 Ry

     iteration # 25     ecut=    50.00 Ry     beta= 0.30
     Davidson diagonalization with overlap
     ethr =  1.32E-08,  avg # of iterations =  5.4

     total cpu time spent up to now is       34.7 secs

     total energy              =    -361.60458110 Ry
     estimated scf accuracy    <       0.00025654 Ry

     iteration # 26     ecut=    50.00 Ry     beta= 0.30
     Davidson diagonalization with overlap
     ethr =  1.32E-08,  avg # of iterations =  8.7

     total cpu time spent up to now is       36.6 secs

     total energy              =    -361.60456619 Ry
     estimated scf accuracy    <       0.00006863 Ry

     iteration # 27     ecut=    50.00 Ry     beta= 0.30
     Davidson diagonalization with overlap
     ethr =  1.32E-08,  avg # of iterations =  8.9

     total cpu time spent up to now is       38.5 secs

     total energy              =    -361.60457655 Ry
     estimated scf accuracy    <       0.00000096 Ry

     iteration # 28     ecut=    50.00 Ry     beta= 0.30
     Davidson diagonalization with overlap
     ethr =  2.67E-09,  avg # of iterations =  5.8

     total cpu time spent up to now is       39.7 secs

     total energy              =    -361.60457689 Ry
     estimated scf accuracy    <       0.00000013 Ry

     iteration # 29     ecut=    50.00 Ry     beta= 0.30
     Davidson diagonalization with overlap
     ethr =  3.57E-10,  avg # of iterations =  4.9

     total cpu time spent up to now is       41.0 secs

     total energy              =    -361.60457693 Ry
     estimated scf accuracy    <       0.00000007 Ry

     iteration # 30     ecut=    50.00 Ry     beta= 0.30
     Davidson diagonalization with overlap
     ethr =  1.92E-10,  avg # of iterations =  3.9

     total cpu time spent up to now is       42.0 secs

     End of self-consistent calculation

          k = 0.0000 0.0000 0.0000 (  2285 PWs)   bands (ev):

   -11.9768 -11.3934  -0.1361  -0.1147  -0.1147   0.0602   0.0602   0.5585
     0.5585   0.5984   0.7367   0.7367   0.9039   4.0760   4.0760   4.8619
     4.8619   4.9169

          k = 0.0000 0.0000 0.1122 (  2290 PWs)   bands (ev):

   -11.9385 -11.4330  -0.1729  -0.1117  -0.1117   0.0386   0.0386   0.1952
     0.5773   0.5773   0.7327   0.7327   1.4530   4.1316   4.1316   4.3212
     4.8123   4.8123

          k = 0.0000 0.0000 0.2244 (  2278 PWs)   bands (ev):

   -11.8332 -11.5412  -0.2446  -0.1318  -0.0970  -0.0970  -0.0113  -0.0113
     0.6241   0.6241   0.7146   0.7146   2.1858   3.6091   4.2814   4.2814
     4.6746   4.6746

          k = 0.0000 0.0000-0.3367 (  2266 PWs)   bands (ev):

   -11.6879 -11.6879  -0.2617  -0.2617  -0.0626  -0.0626  -0.0626  -0.0626
     0.6764   0.6764   0.6764   0.6764   2.9105   2.9105   4.4810   4.4810
     4.4810   4.4810

          k = 0.0000 0.1925 0.0000 (  2305 PWs)   bands (ev):

   -11.8842 -11.3691  -0.1893  -0.0678  -0.0606   0.0677   0.1429   0.5233
     0.5406   0.5615   0.7478   0.8882   1.0527   3.3452   3.7971   3.8033
     4.7450   4.7607

          k = 0.0000 0.1925 0.1122 (  2299 PWs)   bands (ev):

   -11.8498 -11.4034  -0.2182  -0.0726  -0.0615   0.0319   0.1193   0.2528
     0.5583   0.5789   0.7407   0.7774   1.5644   3.3888   3.6660   3.8703
     4.6854   4.7322

          k = 0.0000 0.1925 0.2244 (  2288 PWs)   bands (ev):

   -11.7555 -11.4975  -0.2808  -0.1643  -0.0468  -0.0392   0.0447   0.0637
     0.6188   0.6227   0.7168   0.7379   2.1974   3.1638   3.7906   4.0500
     4.5202   4.5345

          k = 0.0000 0.1925-0.3367 (  2296 PWs)   bands (ev):

   -11.6264 -11.6264  -0.2887  -0.2887  -0.0213  -0.0213   0.0042   0.0042
     0.6744   0.6744   0.6850   0.6850   2.7330   2.7330   4.1700   4.1700
     4.2887   4.2887

          k = 0.0000 0.3849 0.0000 (  2291 PWs)   bands (ev):

   -11.6744 -11.3400  -0.2244   0.0007   0.0246   0.1749   0.3397   0.4232
     0.5959   0.6176   0.7639   0.8999   1.5155   2.2267   2.8782   3.2623
     4.2912   4.4859

          k = 0.0000 0.3849 0.1122 (  2282 PWs)   bands (ev):

   -11.6505 -11.3606  -0.2557  -0.0309   0.0170   0.1460   0.3095   0.3189
     0.5888   0.6264   0.7515   0.8482   1.6474   2.3604   2.9152   3.3529
     4.3661   4.4093

          k = 0.0000 0.3849 0.2244 (  2287 PWs)   bands (ev):

   -11.5862 -11.4184  -0.3174  -0.1939   0.0653   0.1043   0.1776   0.2328
     0.6480   0.6506   0.7213   0.7881   1.8452   2.2764   3.4022   3.5913
     4.1976   4.3512

          k = 0.0000 0.3849-0.3367 (  2298 PWs)   bands (ev):

   -11.5007 -11.5007  -0.3183  -0.3183   0.1147   0.1147   0.1418   0.1418
     0.6848   0.6848   0.7220   0.7220   2.0585   2.0585   3.9007   3.9007
     4.0024   4.0024

          k = 0.0000-0.5774 0.0000 (  2274 PWs)   bands (ev):

   -11.5375 -11.3545  -0.2079   0.0196   0.1716   0.2799   0.3471   0.4554
     0.6184   0.6818   0.7702   0.8000   1.4831   2.0557   2.5773   2.9778
     3.9102   4.3467

          k = 0.0000-0.5774 0.1122 (  2266 PWs)   bands (ev):

   -11.5229 -11.3643  -0.2429   0.0339   0.0422   0.2637   0.3213   0.4209
     0.6723   0.6841   0.7529   0.8009   1.4401   1.9437   2.8885   3.0835
     4.0527   4.2625

          k = 0.0000-0.5774 0.2244 (  2268 PWs)   bands (ev):

   -11.4846 -11.3928  -0.3111  -0.1925   0.1078   0.2396   0.2725   0.3269
     0.6909   0.7236   0.7416   0.7978   1.4557   1.7405   3.3557   3.4986
     4.0295   4.2053

          k = 0.0000-0.5774-0.3367 (  2272 PWs)   bands (ev):

   -11.4363 -11.4363  -0.3184  -0.3184   0.2095   0.2095   0.2400   0.2400
     0.7030   0.7030   0.7811   0.7811   1.5674   1.5674   3.7016   3.7016
     4.0203   4.0203

          k = 0.1667 0.2887 0.0000 (  2295 PWs)   bands (ev):

   -11.7320 -11.3431  -0.1712  -0.0759   0.0219   0.1163   0.2958   0.5048
     0.5286   0.5946   0.7601   0.8979   1.4225   2.7530   2.7783   3.4053
     4.4374   4.4470

          k = 0.1667 0.2887 0.1122 (  2283 PWs)   bands (ev):

   -11.7049 -11.3678  -0.2070  -0.0843   0.0090   0.0910   0.2661   0.3195
     0.5419   0.6177   0.7501   0.8363   1.6983   2.7131   2.9726   3.4037
     4.3568   4.5013

          k = 0.1667 0.2887 0.2244 (  2283 PWs)   bands (ev):

   -11.6314 -11.4364  -0.2800  -0.1795   0.0064   0.0570   0.1244   0.1942
     0.6202   0.6469   0.7249   0.7788   2.0437   2.5496   3.4887   3.5480
     4.1382   4.4421

          k = 0.1667 0.2887-0.3367 (  2286 PWs)   bands (ev):

   -11.5327 -11.5327  -0.2908  -0.2908   0.0345   0.0345   0.1192   0.1192
     0.6763   0.6763   0.7164   0.7164   2.3145   2.3145   3.8246   3.8246
     4.0813   4.0813

          k = 0.1667 0.4811 0.0000 (  2256 PWs)   bands (ev):

   -11.5416 -11.3516  -0.1475  -0.0114   0.1947   0.2217   0.4348   0.4912
     0.5918   0.6252   0.7749   0.8905   1.5513   2.0544   2.5412   2.8269
     3.9102   4.1028

          k = 0.1667 0.4811 0.1122 (  2276 PWs)   bands (ev):

   -11.5266 -11.3618  -0.1699  -0.0236   0.1019   0.2146   0.3621   0.4420
     0.5955   0.6608   0.7695   0.8828   1.5403   2.0388   2.6166   3.0873
     3.9709   4.0838

          k = 0.1667 0.4811 0.2244 (  2274 PWs)   bands (ev):

   -11.4872 -11.3918  -0.2369  -0.1404   0.0644   0.1921   0.2733   0.3200
     0.6389   0.6746   0.7817   0.8550   1.6041   1.8981   2.9066   3.6148
     3.7294   4.2455

          k = 0.1667 0.4811-0.3367 (  2282 PWs)   bands (ev):

   -11.4371 -11.4371  -0.2525  -0.2525   0.1472   0.1472   0.2396   0.2396
     0.6663   0.6663   0.8163   0.8163   1.7355   1.7355   3.3042   3.3042
     4.1159   4.1159

          k = 0.3333 0.5774 0.0000 (  2250 PWs)   bands (ev):

   -11.4164 -11.4164  -0.1282   0.0987   0.0987   0.4991   0.4991   0.5260
     0.6401   0.6776   0.7905   0.7905   1.6799   1.8595   1.8595   3.3589
     3.3589   3.7558

          k = 0.3333 0.5774 0.1122 (  2271 PWs)   bands (ev):

   -11.4137 -11.4137  -0.1015   0.0361   0.0361   0.4406   0.4406   0.4904
     0.5981   0.6344   0.8372   0.8372   1.7852   1.7852   1.8755   3.5847
     3.5847   3.6268

          k = 0.3333 0.5774 0.2244 (  2280 PWs)   bands (ev):

   -11.4083 -11.4083  -0.0981  -0.0981  -0.0204   0.3059   0.3760   0.3760
     0.5811   0.6191   0.8946   0.8946   1.6893   1.6893   2.3048   3.2796
     3.9842   3.9842

          k = 0.3333 0.5774-0.3367 (  2280 PWs)   bands (ev):

   -11.4055 -11.4055  -0.1656  -0.1656   0.1172   0.1172   0.3554   0.3554
     0.5988   0.5988   0.9151   0.9151   1.6566   1.6566   2.8060   2.8060
     4.1696   4.1696

     highest occupied level (ev):     4.9169

!    total energy              =    -361.60457694 Ry
     estimated scf accuracy    <          2.4E-09 Ry

     The total energy is the sum of the following terms:
     one-electron contribution =    -172.07714834 Ry
     hartree contribution      =     124.75752907 Ry
     xc contribution           =    -109.27806177 Ry
     ewald contribution        =    -205.00689590 Ry

     convergence has been achieved in  30 iterations

     Forces acting on atoms (cartesian axes, Ry/au):

     atom    1 type  1   force =     0.00000000    0.00000000   -0.01245718
     atom    2 type  1   force =     0.00000000    0.00000000   -0.01245718
     atom    3 type  2   force =     0.00000000    0.00000000    0.01245718
     atom    4 type  2   force =     0.00000000    0.00000000    0.01245718
     The non-local contrib.  to forces
     atom    1 type  1   force =     0.00000000    0.00000000   -0.23008635
     atom    2 type  1   force =     0.00000000   -0.00000000   -0.23008635
     atom    3 type  2   force =     0.00000000   -0.00000000   -0.19798902
     atom    4 type  2   force =     0.00000000    0.00000000   -0.19798902
     The ionic contribution  to forces
     atom    1 type  1   force =    -0.00000000    0.00000000   -1.49895835
     atom    2 type  1   force =     0.00000000   -0.00000000   -1.49895835
     atom    3 type  2   force =    -0.00000000    0.00000000    1.49895835
     atom    4 type  2   force =     0.00000000   -0.00000000    1.49895835
     The local contribution  to forces
     atom    1 type  1   force =    -0.00000002    0.00000001    1.70142852
     atom    2 type  1   force =     0.00000007   -0.00000004    1.70142852
     atom    3 type  2   force =    -0.00000001    0.00000000   -1.29013259
     atom    4 type  2   force =     0.00000002   -0.00000001   -1.29013259
     The core correction contribution to forces
     atom    1 type  1   force =    -0.00000000    0.00000000    0.01512820
     atom    2 type  1   force =     0.00000001   -0.00000001    0.01512820
     atom    3 type  2   force =     0.00000000   -0.00000000    0.00163540
     atom    4 type  2   force =    -0.00000000    0.00000000    0.00163540
     The Hubbard contrib.    to forces
     atom    1 type  1   force =     0.00000000    0.00000000    0.00000000
     atom    2 type  1   force =     0.00000000    0.00000000    0.00000000
     atom    3 type  2   force =     0.00000000    0.00000000    0.00000000
     atom    4 type  2   force =     0.00000000    0.00000000    0.00000000
     The SCF correction term to forces
     atom    1 type  1   force =     0.00000000   -0.00000000    0.00004743
     atom    2 type  1   force =    -0.00000000    0.00000000    0.00004743
     atom    3 type  2   force =     0.00000000   -0.00000000    0.00000167
     atom    4 type  2   force =    -0.00000000    0.00000000    0.00000167

     Total force =     0.024914     Total SCF correction =     0.000067


     Computing stress (Cartesian axis) and pressure

          total   stress  (Ry/bohr**3)                   (kbar)     P=     -133.68
  -0.00114967  -0.00000000   0.00000000         -169.12       -0.00        0.00
  -0.00000000  -0.00114967   0.00000000           -0.00     -169.12        0.00
   0.00000000   0.00000000  -0.00042681            0.00        0.00      -62.79


     Writing all to output data dir ./ZnO_ANN.save/

     init_run     :      1.80s CPU      1.19s WALL (       1 calls)
     electrons    :    110.16s CPU     40.48s WALL (       1 calls)
     forces       :      0.69s CPU      0.35s WALL (       1 calls)
     stress       :      2.64s CPU      1.30s WALL (       1 calls)

     Called by init_run:
     wfcinit      :      0.97s CPU      0.36s WALL (       1 calls)
     potinit      :      0.29s CPU      0.30s WALL (       1 calls)
     hinit0       :      0.37s CPU      0.39s WALL (       1 calls)

     Called by electrons:
     c_bands      :     90.80s CPU     32.94s WALL (      30 calls)
     sum_band     :     13.86s CPU      5.32s WALL (      30 calls)
     v_of_rho     :      1.19s CPU      0.53s WALL (      31 calls)
     newd         :      4.05s CPU      1.61s WALL (      31 calls)
     mix_rho      :      0.18s CPU      0.09s WALL (      30 calls)

     Called by c_bands:
     init_us_2    :      1.44s CPU      0.52s WALL (    1764 calls)
     init_us_2:cp :      1.41s CPU      0.51s WALL (    1764 calls)
     cegterg      :     87.62s CPU     31.67s WALL (     840 calls)

     Called by *egterg:
     cdiaghg      :     15.89s CPU      5.24s WALL (    5359 calls)
     h_psi        :     55.34s CPU     22.36s WALL (    5387 calls)
     s_psi        :      1.56s CPU      0.46s WALL (    5387 calls)
     g_psi        :      0.60s CPU      0.15s WALL (    4519 calls)

     Called by h_psi:
     h_psi:calbec :      2.21s CPU      0.82s WALL (    5387 calls)
     vloc_psi     :     50.93s CPU     20.84s WALL (    5387 calls)
     add_vuspsi   :      1.58s CPU      0.51s WALL (    5387 calls)

     General routines
     calbec       :      2.76s CPU      1.00s WALL (    6367 calls)
     fft          :      0.81s CPU      0.44s WALL (     426 calls)
     ffts         :      0.17s CPU      0.15s WALL (      61 calls)
     fftw         :     48.65s CPU     19.97s WALL (  133536 calls)
     interpolate  :      0.21s CPU      0.17s WALL (      31 calls)

     Parallel routines

     PWSCF        :   1m55.83s CPU     43.81s WALL


   This run was terminated on:  19:21: 6  13Jun2025            

=------------------------------------------------------------------------------=
   JOB DONE.
=------------------------------------------------------------------------------=
Note: The following floating-point exceptions are signalling: IEEE_INVALID_FLAG
