Authorization required, but no authorization protocol specified

Authorization required, but no authorization protocol specified

Authorization required, but no authorization protocol specified

Authorization required, but no authorization protocol specified

Authorization required, but no authorization protocol specified

Authorization required, but no authorization protocol specified

Authorization required, but no authorization protocol specified

Authorization required, but no authorization protocol specified

Authorization required, but no authorization protocol specified

Authorization required, but no authorization protocol specified


     Program PWSCF v.7.2 starts on 13Jun2025 at 17:49:35 

     This program is part of the open-source Quantum ESPRESSO suite
     for quantum simulation of materials; please cite
         "P. Giannozzi et al., J. Phys.:Condens. Matter 21 395502 (2009);
         "P. Giannozzi et al., J. Phys.:Condens. Matter 29 465901 (2017);
         "P. Giannozzi et al., J. Chem. Phys. 152 154105 (2020);
          URL http://www.quantum-espresso.org", 
     in publications or presentations arising from this work. More details at
     http://www.quantum-espresso.org/quote

     Parallel version (MPI), running on     8 processors

     MPI processes distributed on     1 nodes
     120694 MiB available memory on the printing compute node when the environment starts

     Reading input from /home/jvc/QEspresso7.2/ZnO_database_python/SCFs.in/scf-6.30-1.71.in

     Current dimensions of program PWSCF are:
     Max number of different atomic species (ntypx) = 10
     Max number of k-points (npk) =  40000
     Max angular momentum in pseudopotentials (lmaxx) =  4
     file Zn.upf: wavefunction(s)  3D renormalized

     R & G space division:  proc/nbgrp/npool/nimage =       8
     Subspace diagonalization in iterative solution of the eigenvalue problem:
     a serial algorithm will be used


     Parallelization info
     --------------------
     sticks:   dense  smooth     PW     G-vecs:    dense   smooth      PW
     Min         137      68     20                 6244     2212     370
     Max         138      69     21                 6247     2219     375
     Sum        1099     547    163                49959    17719    2973

     Using Slab Decomposition



     bravais-lattice index     =            4
     lattice parameter (alat)  =       6.3024  a.u.
     unit-cell volume          =     370.9829 (a.u.)^3
     number of atoms/cell      =            4
     number of atomic types    =            2
     number of electrons       =        36.00
     number of Kohn-Sham states=           18
     kinetic-energy cutoff     =      50.0000  Ry
     charge density cutoff     =     400.0000  Ry
     scf convergence threshold =      1.0E-08
     mixing beta               =       0.3000
     number of iterations used =            8  plain     mixing
     Exchange-correlation= PBE
                           (   1   4   3   4   0   0   0)

     celldm(1)=   6.302398  celldm(2)=   0.000000  celldm(3)=   1.711220
     celldm(4)=   0.000000  celldm(5)=   0.000000  celldm(6)=   0.000000

     crystal axes: (cart. coord. in units of alat)
               a(1) = (   1.000000   0.000000   0.000000 )  
               a(2) = (  -0.500000   0.866025   0.000000 )  
               a(3) = (   0.000000   0.000000   1.711220 )  

     reciprocal axes: (cart. coord. in units 2 pi/alat)
               b(1) = (  1.000000  0.577350 -0.000000 )  
               b(2) = (  0.000000  1.154701  0.000000 )  
               b(3) = (  0.000000 -0.000000  0.584378 )  


     PseudoPot. # 1 for Zn read from file:
     /home/jvc/QEspresso7.2/ZnO_database/pseudos/Zn.upf
     MD5 check sum: 7f56cabf9682ed8c977c2f7d0c5985c5
     Pseudo is Ultrasoft + core correction, Zval = 12.0
     Generated using &quot;atomic&quot; code by A. Dal Corso  v.6.2.2
     Using radial grid of 1201 points,  6 beta functions with: 
                l(1) =   0
                l(2) =   0
                l(3) =   1
                l(4) =   1
                l(5) =   2
                l(6) =   2
     Q(r) pseudized with 0 coefficients 


     PseudoPot. # 2 for O  read from file:
     /home/jvc/QEspresso7.2/ZnO_database/pseudos/O.upf
     MD5 check sum: 91400c9766925bcf19f520983a725ff0
     Pseudo is Ultrasoft + core correction, Zval =  6.0
     Generated using &quot;atomic&quot; code by A. Dal Corso  v.6.3MaX
     Using radial grid of 1095 points,  4 beta functions with: 
                l(1) =   0
                l(2) =   0
                l(3) =   1
                l(4) =   1
     Q(r) pseudized with 0 coefficients 


     atomic species   valence    mass     pseudopotential
        Zn            12.00    63.38000     Zn( 1.00)
        O              6.00    15.99900     O ( 1.00)

     12 Sym. Ops. (no inversion) found ( 6 have fractional translation)



   Cartesian axes

     site n.     atom                  positions (alat units)
         1           Zn  tau(   1) = (   0.5000000   0.2886751   0.8566941  )
         2           Zn  tau(   2) = (  -0.0000000   0.5773503   0.0010842  )
         3           O   tau(   3) = (   0.5000000   0.2886751   1.5053197  )
         4           O   tau(   4) = (  -0.0000000   0.5773503   0.6497098  )

     number of k points=    28
                       cart. coord. in units 2pi/alat
        k(    1) = (   0.0000000   0.0000000   0.0000000), wk =   0.0092593
        k(    2) = (   0.0000000   0.0000000   0.0973964), wk =   0.0185185
        k(    3) = (   0.0000000   0.0000000   0.1947928), wk =   0.0185185
        k(    4) = (   0.0000000   0.0000000  -0.2921892), wk =   0.0092593
        k(    5) = (   0.0000000   0.1924501   0.0000000), wk =   0.0555556
        k(    6) = (   0.0000000   0.1924501   0.0973964), wk =   0.1111111
        k(    7) = (   0.0000000   0.1924501   0.1947928), wk =   0.1111111
        k(    8) = (   0.0000000   0.1924501  -0.2921892), wk =   0.0555556
        k(    9) = (   0.0000000   0.3849002   0.0000000), wk =   0.0555556
        k(   10) = (   0.0000000   0.3849002   0.0973964), wk =   0.1111111
        k(   11) = (   0.0000000   0.3849002   0.1947928), wk =   0.1111111
        k(   12) = (   0.0000000   0.3849002  -0.2921892), wk =   0.0555556
        k(   13) = (   0.0000000  -0.5773503   0.0000000), wk =   0.0277778
        k(   14) = (   0.0000000  -0.5773503   0.0973964), wk =   0.0555556
        k(   15) = (   0.0000000  -0.5773503   0.1947928), wk =   0.0555556
        k(   16) = (   0.0000000  -0.5773503  -0.2921892), wk =   0.0277778
        k(   17) = (   0.1666667   0.2886751   0.0000000), wk =   0.0555556
        k(   18) = (   0.1666667   0.2886751   0.0973964), wk =   0.1111111
        k(   19) = (   0.1666667   0.2886751   0.1947928), wk =   0.1111111
        k(   20) = (   0.1666667   0.2886751  -0.2921892), wk =   0.0555556
        k(   21) = (   0.1666667   0.4811252   0.0000000), wk =   0.1111111
        k(   22) = (   0.1666667   0.4811252   0.0973964), wk =   0.2222222
        k(   23) = (   0.1666667   0.4811252   0.1947928), wk =   0.2222222
        k(   24) = (   0.1666667   0.4811252  -0.2921892), wk =   0.1111111
        k(   25) = (   0.3333333   0.5773503   0.0000000), wk =   0.0185185
        k(   26) = (   0.3333333   0.5773503   0.0973964), wk =   0.0370370
        k(   27) = (   0.3333333   0.5773503   0.1947928), wk =   0.0370370
        k(   28) = (   0.3333333   0.5773503  -0.2921892), wk =   0.0185185

     Dense  grid:    49959 G-vectors     FFT dimensions: (  45,  45,  72)

     Smooth grid:    17719 G-vectors     FFT dimensions: (  30,  30,  50)

     Estimated max dynamical RAM per process >      28.80 MB

     Estimated total dynamical RAM >     230.37 MB

     Check: negative core charge=   -0.000002

     Initial potential from superposition of free atoms

     starting charge      35.9925, renormalised to      36.0000
     Starting wfcs are   26 randomized atomic wfcs

     total cpu time spent up to now is        1.6 secs

     Self-consistent Calculation

     iteration #  1     ecut=    50.00 Ry     beta= 0.30
     Davidson diagonalization with overlap
     ethr =  1.00E-02,  avg # of iterations =  1.6

     total cpu time spent up to now is        2.5 secs

     total energy              =    -361.44240118 Ry
     estimated scf accuracy    <       0.74416489 Ry

     iteration #  2     ecut=    50.00 Ry     beta= 0.30
     Davidson diagonalization with overlap
     ethr =  2.07E-03,  avg # of iterations =  2.0

     total cpu time spent up to now is        3.6 secs

     total energy              =    -361.55866143 Ry
     estimated scf accuracy    <       0.08442164 Ry

     iteration #  3     ecut=    50.00 Ry     beta= 0.30
     Davidson diagonalization with overlap
     ethr =  2.35E-04,  avg # of iterations =  6.5

     total cpu time spent up to now is        5.4 secs

     total energy              =    -361.57888370 Ry
     estimated scf accuracy    <       0.07892012 Ry

     iteration #  4     ecut=    50.00 Ry     beta= 0.30
     Davidson diagonalization with overlap
     ethr =  2.19E-04,  avg # of iterations =  8.2

     total cpu time spent up to now is        7.6 secs

     total energy              =    -361.63731999 Ry
     estimated scf accuracy    <       0.32523057 Ry

     iteration #  5     ecut=    50.00 Ry     beta= 0.30
     Davidson diagonalization with overlap
     ethr =  2.19E-04,  avg # of iterations =  2.0

     total cpu time spent up to now is        8.6 secs

     total energy              =    -361.53902373 Ry
     estimated scf accuracy    <       0.19848738 Ry

     iteration #  6     ecut=    50.00 Ry     beta= 0.30
     Davidson diagonalization with overlap
     ethr =  2.19E-04,  avg # of iterations =  5.9

     total cpu time spent up to now is       10.2 secs

     total energy              =    -361.62650690 Ry
     estimated scf accuracy    <       0.03816478 Ry

     iteration #  7     ecut=    50.00 Ry     beta= 0.30
     Davidson diagonalization with overlap
     ethr =  1.06E-04,  avg # of iterations =  1.3

     total cpu time spent up to now is       11.1 secs

     total energy              =    -361.61973414 Ry
     estimated scf accuracy    <       0.03463754 Ry

     iteration #  8     ecut=    50.00 Ry     beta= 0.30
     Davidson diagonalization with overlap
     ethr =  9.62E-05,  avg # of iterations =  1.0

     total cpu time spent up to now is       12.0 secs

     total energy              =    -361.61809602 Ry
     estimated scf accuracy    <       0.02011428 Ry

     iteration #  9     ecut=    50.00 Ry     beta= 0.30
     Davidson diagonalization with overlap
     ethr =  5.59E-05,  avg # of iterations =  1.6

     total cpu time spent up to now is       13.0 secs

     total energy              =    -361.61653234 Ry
     estimated scf accuracy    <       0.01216590 Ry

     iteration # 10     ecut=    50.00 Ry     beta= 0.30
     Davidson diagonalization with overlap
     ethr =  3.38E-05,  avg # of iterations =  2.0

     total cpu time spent up to now is       13.9 secs

     total energy              =    -361.61636291 Ry
     estimated scf accuracy    <       0.00550477 Ry

     iteration # 11     ecut=    50.00 Ry     beta= 0.30
     Davidson diagonalization with overlap
     ethr =  1.53E-05,  avg # of iterations =  4.3

     total cpu time spent up to now is       15.1 secs

     total energy              =    -361.61679835 Ry
     estimated scf accuracy    <       0.00119023 Ry

     iteration # 12     ecut=    50.00 Ry     beta= 0.30
     Davidson diagonalization with overlap
     ethr =  3.31E-06,  avg # of iterations =  6.5

     total cpu time spent up to now is       16.8 secs

     total energy              =    -361.61810680 Ry
     estimated scf accuracy    <       0.00099128 Ry

     iteration # 13     ecut=    50.00 Ry     beta= 0.30
     Davidson diagonalization with overlap
     ethr =  2.75E-06,  avg # of iterations =  1.3

     total cpu time spent up to now is       17.7 secs

     total energy              =    -361.61840054 Ry
     estimated scf accuracy    <       0.00092805 Ry

     iteration # 14     ecut=    50.00 Ry     beta= 0.30
     Davidson diagonalization with overlap
     ethr =  2.58E-06,  avg # of iterations =  1.8

     total cpu time spent up to now is       18.7 secs

     total energy              =    -361.61765931 Ry
     estimated scf accuracy    <       0.00161945 Ry

     iteration # 15     ecut=    50.00 Ry     beta= 0.30
     Davidson diagonalization with overlap
     ethr =  2.58E-06,  avg # of iterations =  2.1

     total cpu time spent up to now is       19.7 secs

     total energy              =    -361.61771377 Ry
     estimated scf accuracy    <       0.00033616 Ry

     iteration # 16     ecut=    50.00 Ry     beta= 0.30
     Davidson diagonalization with overlap
     ethr =  9.34E-07,  avg # of iterations =  5.0

     total cpu time spent up to now is       21.1 secs

     total energy              =    -361.61788877 Ry
     estimated scf accuracy    <       0.00000788 Ry

     iteration # 17     ecut=    50.00 Ry     beta= 0.30
     Davidson diagonalization with overlap
     ethr =  2.19E-08,  avg # of iterations =  8.5

     total cpu time spent up to now is       23.1 secs

     total energy              =    -361.61788212 Ry
     estimated scf accuracy    <       0.00008214 Ry

     iteration # 18     ecut=    50.00 Ry     beta= 0.30
     Davidson diagonalization with overlap
     ethr =  2.19E-08,  avg # of iterations =  4.5

     total cpu time spent up to now is       24.6 secs

     total energy              =    -361.61788888 Ry
     estimated scf accuracy    <       0.00002079 Ry

     iteration # 19     ecut=    50.00 Ry     beta= 0.30
     Davidson diagonalization with overlap
     ethr =  2.19E-08,  avg # of iterations =  1.0

     total cpu time spent up to now is       25.4 secs

     total energy              =    -361.61787771 Ry
     estimated scf accuracy    <       0.00002581 Ry

     iteration # 20     ecut=    50.00 Ry     beta= 0.30
     Davidson diagonalization with overlap
     ethr =  2.19E-08,  avg # of iterations =  4.9

     total cpu time spent up to now is       26.9 secs

     total energy              =    -361.61789239 Ry
     estimated scf accuracy    <       0.00000025 Ry

     iteration # 21     ecut=    50.00 Ry     beta= 0.30
     Davidson diagonalization with overlap
     c_bands:  1 eigenvalues not converged
     c_bands:  1 eigenvalues not converged
     c_bands:  1 eigenvalues not converged
     ethr =  7.03E-10,  avg # of iterations = 14.8

     total cpu time spent up to now is       30.7 secs

     total energy              =    -361.61788058 Ry
     estimated scf accuracy    <       0.00014061 Ry

     iteration # 22     ecut=    50.00 Ry     beta= 0.30
     Davidson diagonalization with overlap
     c_bands:  1 eigenvalues not converged
     c_bands:  1 eigenvalues not converged
     ethr =  7.03E-10,  avg # of iterations = 13.3

     total cpu time spent up to now is       34.0 secs

     total energy              =    -361.61788952 Ry
     estimated scf accuracy    <       0.00002604 Ry

     iteration # 23     ecut=    50.00 Ry     beta= 0.30
     Davidson diagonalization with overlap
     ethr =  7.03E-10,  avg # of iterations =  2.1

     total cpu time spent up to now is       35.0 secs

     total energy              =    -361.61788678 Ry
     estimated scf accuracy    <       0.00002835 Ry

     iteration # 24     ecut=    50.00 Ry     beta= 0.30
     Davidson diagonalization with overlap
     ethr =  7.03E-10,  avg # of iterations =  5.3

     total cpu time spent up to now is       36.4 secs

     total energy              =    -361.61787446 Ry
     estimated scf accuracy    <       0.00002015 Ry

     iteration # 25     ecut=    50.00 Ry     beta= 0.30
     Davidson diagonalization with overlap
     c_bands:  1 eigenvalues not converged
     ethr =  7.03E-10,  avg # of iterations = 14.4

     total cpu time spent up to now is       39.9 secs

     total energy              =    -361.61788069 Ry
     estimated scf accuracy    <       0.00001045 Ry

     iteration # 26     ecut=    50.00 Ry     beta= 0.30
     Davidson diagonalization with overlap
     ethr =  7.03E-10,  avg # of iterations = 11.0

     total cpu time spent up to now is       42.7 secs

     total energy              =    -361.61788229 Ry
     estimated scf accuracy    <       0.00000005 Ry

     iteration # 27     ecut=    50.00 Ry     beta= 0.30
     Davidson diagonalization with overlap
     ethr =  1.40E-10,  avg # of iterations =  3.8

     total cpu time spent up to now is       43.7 secs

     total energy              =    -361.61788230 Ry
     estimated scf accuracy    <       0.00000003 Ry

     iteration # 28     ecut=    50.00 Ry     beta= 0.30
     Davidson diagonalization with overlap
     ethr =  7.90E-11,  avg # of iterations =  1.6

     total cpu time spent up to now is       44.6 secs

     total energy              =    -361.61788229 Ry
     estimated scf accuracy    <       0.00000003 Ry

     iteration # 29     ecut=    50.00 Ry     beta= 0.30
     Davidson diagonalization with overlap
     ethr =  7.76E-11,  avg # of iterations =  2.0

     total cpu time spent up to now is       45.6 secs

     total energy              =    -361.61788230 Ry
     estimated scf accuracy    <       0.00000001 Ry

     iteration # 30     ecut=    50.00 Ry     beta= 0.30
     Davidson diagonalization with overlap
     ethr =  3.67E-11,  avg # of iterations =  1.5

     total cpu time spent up to now is       46.5 secs

     total energy              =    -361.61788229 Ry
     estimated scf accuracy    <       0.00000002 Ry

     iteration # 31     ecut=    50.00 Ry     beta= 0.30
     Davidson diagonalization with overlap
     ethr =  3.67E-11,  avg # of iterations =  5.4

     total cpu time spent up to now is       47.9 secs

     End of self-consistent calculation

          k = 0.0000 0.0000 0.0000 (  2215 PWs)   bands (ev):

   -11.7849 -11.3319   0.1122   0.1122   0.1642   0.2358   0.2358   0.4710
     0.9564   0.9564   1.0775   1.0775   1.4475   4.8083   4.8083   5.1362
     5.3323   5.3323

          k = 0.0000 0.0000 0.0974 (  2184 PWs)   bands (ev):

   -11.7558 -11.3636   0.1183   0.1183   0.1451   0.2251   0.2251   0.3433
     0.9671   0.9671   1.0719   1.0719   1.7251   4.5603   4.8439   4.8439
     5.2977   5.2977

          k = 0.0000 0.0000 0.1948 (  2202 PWs)   bands (ev):

   -11.6755 -11.4491   0.1081   0.1357   0.1357   0.1759   0.1971   0.1971
     0.9932   0.9932   1.0538   1.0538   2.3178   3.7847   4.9406   4.9406
     5.2025   5.2025

          k = 0.0000 0.0000-0.2922 (  2220 PWs)   bands (ev):

   -11.5636 -11.5636   0.1014   0.1014   0.1637   0.1637   0.1637   0.1637
     1.0253   1.0253   1.0253   1.0253   3.0273   3.0273   5.0719   5.0719
     5.0719   5.0719

          k = 0.0000 0.1925 0.0000 (  2190 PWs)   bands (ev):

   -11.6695 -11.2704   0.0320   0.1826   0.2044   0.2759   0.3350   0.5919
     0.9125   0.9555   1.0832   1.1863   1.4971   3.8910   4.2212   4.5246
     5.0240   5.1591

          k = 0.0000 0.1925 0.0974 (  2200 PWs)   bands (ev):

   -11.6436 -11.2980   0.0224   0.1807   0.1903   0.2647   0.3222   0.4714
     0.9299   0.9650   1.0759   1.1242   1.8209   3.8600   4.1446   4.5678
     4.9350   5.1171

          k = 0.0000 0.1925 0.1948 (  2210 PWs)   bands (ev):

   -11.5722 -11.3726   0.0058   0.0965   0.2134   0.2571   0.2892   0.3385
     0.9718   0.9908   1.0549   1.0729   2.4027   3.5401   4.2173   4.6853
     4.7126   5.0022

          k = 0.0000 0.1925-0.2922 (  2220 PWs)   bands (ev):

   -11.4732 -11.4732   0.0203   0.0203   0.2487   0.2487   0.2797   0.2797
     1.0232   1.0232   1.0239   1.0239   3.0108   3.0108   4.4438   4.4438
     4.8443   4.8443

          k = 0.0000 0.3849 0.0000 (  2210 PWs)   bands (ev):

   -11.4159 -11.1590  -0.0256   0.2077   0.2966   0.5204   0.5589   0.7485
     0.8920   1.0106   1.1000   1.2719   1.8483   2.4621   3.1791   3.9484
     4.6008   4.7906

          k = 0.0000 0.3849 0.0974 (  2218 PWs)   bands (ev):

   -11.3985 -11.1760  -0.0365   0.1678   0.3117   0.5092   0.5385   0.6682
     0.9127   1.0157   1.0925   1.2095   2.0007   2.5481   3.2011   4.0072
     4.5771   4.7356

          k = 0.0000 0.3849 0.1948 (  2215 PWs)   bands (ev):

   -11.3511 -11.2225  -0.0496   0.0670   0.3545   0.4852   0.4918   0.5530
     0.9745   1.0303   1.0739   1.1286   2.2175   2.5672   3.4947   4.1655
     4.4075   4.5848

          k = 0.0000 0.3849-0.2922 (  2212 PWs)   bands (ev):

   -11.2866 -11.2866  -0.0220  -0.0220   0.4172   0.4172   0.4993   0.4993
     1.0510   1.0510   1.0512   1.0512   2.4132   2.4132   4.0049   4.0049
     4.3770   4.3770

          k = 0.0000-0.5774 0.0000 (  2212 PWs)   bands (ev):

   -11.2617 -11.1246   0.0378   0.2431   0.3337   0.6506   0.6821   0.8273
     1.0233   1.0807   1.1205   1.1855   1.6684   2.0810   2.9318   3.6409
     4.2003   4.5940

          k = 0.0000-0.5774 0.0974 (  2224 PWs)   bands (ev):

   -11.2518 -11.1330   0.0197   0.1852   0.3533   0.6510   0.6549   0.7952
     1.0513   1.0819   1.1150   1.1840   1.6563   2.0168   3.1395   3.7092
     4.2491   4.5326

          k = 0.0000-0.5774 0.1948 (  2212 PWs)   bands (ev):

   -11.2253 -11.1567  -0.0111   0.0719   0.4098   0.5835   0.6592   0.7342
     1.0861   1.1037   1.1070   1.1761   1.6726   1.8804   3.5973   3.8910
     4.2596   4.3642

          k = 0.0000-0.5774-0.2922 (  2216 PWs)   bands (ev):

   -11.1903 -11.1903  -0.0040  -0.0040   0.4927   0.4927   0.6852   0.6852
     1.0932   1.0932   1.1523   1.1523   1.7518   1.7518   4.0370   4.0370
     4.1307   4.1307

          k = 0.1667 0.2887 0.0000 (  2213 PWs)   bands (ev):

   -11.4842 -11.1842   0.0500   0.1699   0.3122   0.3468   0.5206   0.7274
     0.8714   0.9744   1.0933   1.2694   1.7591   3.1667   3.1677   3.9538
     4.7321   4.7667

          k = 0.1667 0.2887 0.0974 (  2216 PWs)   bands (ev):

   -11.4641 -11.2043   0.0353   0.1581   0.3087   0.3331   0.5052   0.6130
     0.8986   0.9907   1.0859   1.1996   2.0098   3.1150   3.2763   3.9786
     4.6739   4.7206

          k = 0.1667 0.2887 0.1948 (  2212 PWs)   bands (ev):

   -11.4093 -11.2593   0.0117   0.0981   0.3091   0.3167   0.4682   0.4780
     0.9640   1.0145   1.0672   1.1212   2.4026   2.9570   3.6071   4.0831
     4.5180   4.5185

          k = 0.1667 0.2887-0.2922 (  2218 PWs)   bands (ev):

   -11.3344 -11.3344   0.0264   0.0264   0.3157   0.3157   0.4413   0.4413
     1.0323   1.0323   1.0522   1.0522   2.7181   2.7181   4.0535   4.0535
     4.3334   4.3334

          k = 0.1667 0.4811 0.0000 (  2219 PWs)   bands (ev):

   -11.2669 -11.1222   0.1035   0.3215   0.3904   0.6049   0.6944   0.7563
     0.9286   1.0061   1.1415   1.3072   1.7957   2.2742   2.9246   3.2354
     4.1767   4.3278

          k = 0.1667 0.4811 0.0974 (  2218 PWs)   bands (ev):

   -11.2565 -11.1312   0.1002   0.2855   0.3740   0.5986   0.6611   0.7032
     0.9414   1.0366   1.1418   1.2882   1.8065   2.2527   3.0459   3.3625
     4.1390   4.3343

          k = 0.1667 0.4811 0.1948 (  2222 PWs)   bands (ev):

   -11.2287 -11.1563   0.0906   0.1875   0.3853   0.5534   0.5980   0.6404
     0.9993   1.0568   1.1504   1.2380   1.8786   2.1464   3.3168   3.6918
     3.9739   4.3302

          k = 0.1667 0.4811-0.2922 (  2218 PWs)   bands (ev):

   -11.1918 -11.1918   0.1084   0.1084   0.4525   0.4525   0.6066   0.6066
     1.0458   1.0458   1.1830   1.1830   2.0042   2.0042   3.6170   3.6170
     4.1431   4.1431

          k = 0.3333 0.5774 0.0000 (  2235 PWs)   bands (ev):

   -11.1484 -11.1484   0.1188   0.5147   0.5147   0.6712   0.9065   0.9065
     0.9130   0.9785   1.1485   1.1485   1.9877   1.9877   2.2254   3.7085
     3.7085   3.7437

          k = 0.3333 0.5774 0.0974 (  2232 PWs)   bands (ev):

   -11.1475 -11.1475   0.1430   0.4694   0.4694   0.6081   0.8628   0.8628
     0.9200   0.9748   1.2092   1.2092   1.9488   1.9488   2.3412   3.6426
     3.8312   3.8312

          k = 0.3333 0.5774 0.1948 (  2232 PWs)   bands (ev):

   -11.1457 -11.1457   0.2141   0.3784   0.3784   0.4708   0.8181   0.8181
     0.9339   0.9646   1.2925   1.2925   1.8811   1.8811   2.6339   3.3717
     4.0663   4.0663

          k = 0.3333 0.5774-0.2922 (  2226 PWs)   bands (ev):

   -11.1448 -11.1448   0.3279   0.3279   0.3342   0.3342   0.8047   0.8047
     0.9499   0.9499   1.3265   1.3265   1.8505   1.8505   3.0067   3.0067
     4.1808   4.1808

     highest occupied level (ev):     5.3323

!    total energy              =    -361.61788229 Ry
     estimated scf accuracy    <          1.2E-09 Ry

     The total energy is the sum of the following terms:
     one-electron contribution =    -167.99426251 Ry
     hartree contribution      =     123.14893529 Ry
     xc contribution           =    -109.32354036 Ry
     ewald contribution        =    -207.44901472 Ry

     convergence has been achieved in  31 iterations

     Forces acting on atoms (cartesian axes, Ry/au):

     atom    1 type  1   force =     0.00000000    0.00000000    0.00309455
     atom    2 type  1   force =     0.00000000    0.00000000    0.00309455
     atom    3 type  2   force =     0.00000000    0.00000000   -0.00309455
     atom    4 type  2   force =     0.00000000   -0.00000000   -0.00309455
     The non-local contrib.  to forces
     atom    1 type  1   force =     0.00000000   -0.00000000    0.14797178
     atom    2 type  1   force =     0.00000000    0.00000000    0.14797178
     atom    3 type  2   force =     0.00000000   -0.00000000    0.15575019
     atom    4 type  2   force =     0.00000000    0.00000000    0.15575019
     The ionic contribution  to forces
     atom    1 type  1   force =    -0.00000000    0.00000000    1.17173509
     atom    2 type  1   force =     0.00000000   -0.00000000    1.17173509
     atom    3 type  2   force =    -0.00000000    0.00000000   -1.17173509
     atom    4 type  2   force =     0.00000000   -0.00000000   -1.17173509
     The local contribution  to forces
     atom    1 type  1   force =    -0.00000002    0.00000001   -1.30699831
     atom    2 type  1   force =     0.00000007   -0.00000004   -1.30699831
     atom    3 type  2   force =    -0.00000001    0.00000000    1.01422743
     atom    4 type  2   force =     0.00000002   -0.00000001    1.01422743
     The core correction contribution to forces
     atom    1 type  1   force =    -0.00000000    0.00000000   -0.00959857
     atom    2 type  1   force =     0.00000001   -0.00000000   -0.00959857
     atom    3 type  2   force =     0.00000000   -0.00000000   -0.00135421
     atom    4 type  2   force =    -0.00000000    0.00000000   -0.00135421
     The Hubbard contrib.    to forces
     atom    1 type  1   force =     0.00000000    0.00000000    0.00000000
     atom    2 type  1   force =     0.00000000    0.00000000    0.00000000
     atom    3 type  2   force =     0.00000000    0.00000000    0.00000000
     atom    4 type  2   force =     0.00000000    0.00000000    0.00000000
     The SCF correction term to forces
     atom    1 type  1   force =     0.00000000   -0.00000000   -0.00002341
     atom    2 type  1   force =    -0.00000000    0.00000000   -0.00002341
     atom    3 type  2   force =    -0.00000000    0.00000000    0.00000916
     atom    4 type  2   force =     0.00000000   -0.00000000    0.00000916

     Total force =     0.006189     Total SCF correction =     0.000036


     Computing stress (Cartesian axis) and pressure

          total   stress  (Ry/bohr**3)                   (kbar)     P=     -116.97
  -0.00063508   0.00000000  -0.00000000          -93.42        0.00       -0.00
   0.00000000  -0.00063508  -0.00000000            0.00      -93.42       -0.00
  -0.00000000  -0.00000000  -0.00111523           -0.00       -0.00     -164.06


     Writing all to output data dir ./ZnO_ANN.save/

     init_run     :      1.99s CPU      1.29s WALL (       1 calls)
     electrons    :    124.45s CPU     46.33s WALL (       1 calls)
     forces       :      0.75s CPU      0.36s WALL (       1 calls)
     stress       :      2.73s CPU      1.42s WALL (       1 calls)

     Called by init_run:
     wfcinit      :      1.15s CPU      0.44s WALL (       1 calls)
     potinit      :      0.25s CPU      0.25s WALL (       1 calls)
     hinit0       :      0.46s CPU      0.47s WALL (       1 calls)

     Called by electrons:
     c_bands      :    102.76s CPU     37.79s WALL (      31 calls)
     sum_band     :     16.01s CPU      6.22s WALL (      31 calls)
     v_of_rho     :      1.35s CPU      0.60s WALL (      32 calls)
     newd         :      4.05s CPU      1.62s WALL (      32 calls)
     mix_rho      :      0.22s CPU      0.10s WALL (      31 calls)

     Called by c_bands:
     init_us_2    :      1.44s CPU      0.52s WALL (    1820 calls)
     init_us_2:cp :      1.42s CPU      0.51s WALL (    1820 calls)
     cegterg      :     99.62s CPU     36.54s WALL (     868 calls)

     Called by *egterg:
     cdiaghg      :     14.77s CPU      4.80s WALL (    4993 calls)
     h_psi        :     69.16s CPU     27.99s WALL (    5021 calls)
     s_psi        :      1.52s CPU      0.44s WALL (    5021 calls)
     g_psi        :      0.57s CPU      0.14s WALL (    4125 calls)

     Called by h_psi:
     h_psi:calbec :      2.24s CPU      0.79s WALL (    5021 calls)
     vloc_psi     :     64.81s CPU     26.54s WALL (    5021 calls)
     add_vuspsi   :      1.52s CPU      0.49s WALL (    5021 calls)

     General routines
     calbec       :      2.82s CPU      0.99s WALL (    6029 calls)
     fft          :      0.95s CPU      0.52s WALL (     439 calls)
     ffts         :      0.14s CPU      0.12s WALL (      63 calls)
     fftw         :     64.00s CPU     26.31s WALL (  132396 calls)
     interpolate  :      0.18s CPU      0.14s WALL (      32 calls)

     Parallel routines

     PWSCF        :   2m10.46s CPU     49.90s WALL


   This run was terminated on:  17:50:25  13Jun2025            

=------------------------------------------------------------------------------=
   JOB DONE.
=------------------------------------------------------------------------------=
Note: The following floating-point exceptions are signalling: IEEE_INVALID_FLAG
