Authorization required, but no authorization protocol specified

Authorization required, but no authorization protocol specified

Authorization required, but no authorization protocol specified

Authorization required, but no authorization protocol specified

Authorization required, but no authorization protocol specified

Authorization required, but no authorization protocol specified

Authorization required, but no authorization protocol specified

Authorization required, but no authorization protocol specified

Authorization required, but no authorization protocol specified

Authorization required, but no authorization protocol specified


     Program PWSCF v.7.2 starts on 13Jun2025 at 17:33:23 

     This program is part of the open-source Quantum ESPRESSO suite
     for quantum simulation of materials; please cite
         "P. Giannozzi et al., J. Phys.:Condens. Matter 21 395502 (2009);
         "P. Giannozzi et al., J. Phys.:Condens. Matter 29 465901 (2017);
         "P. Giannozzi et al., J. Chem. Phys. 152 154105 (2020);
          URL http://www.quantum-espresso.org", 
     in publications or presentations arising from this work. More details at
     http://www.quantum-espresso.org/quote

     Parallel version (MPI), running on     8 processors

     MPI processes distributed on     1 nodes
     120710 MiB available memory on the printing compute node when the environment starts

     Reading input from /home/jvc/QEspresso7.2/ZnO_database_python/SCFs.in/scf-6.24-1.71.in

     Current dimensions of program PWSCF are:
     Max number of different atomic species (ntypx) = 10
     Max number of k-points (npk) =  40000
     Max angular momentum in pseudopotentials (lmaxx) =  4
     file Zn.upf: wavefunction(s)  3D renormalized

     R & G space division:  proc/nbgrp/npool/nimage =       8
     Subspace diagonalization in iterative solution of the eigenvalue problem:
     a serial algorithm will be used


     Parallelization info
     --------------------
     sticks:   dense  smooth     PW     G-vecs:    dense   smooth      PW
     Min         133      66     20                 6089     2132     360
     Max         134      68     21                 6096     2135     365
     Sum        1069     535    163                48751    17071    2901

     Using Slab Decomposition



     bravais-lattice index     =            4
     lattice parameter (alat)  =       6.2406  a.u.
     unit-cell volume          =     360.1783 (a.u.)^3
     number of atoms/cell      =            4
     number of atomic types    =            2
     number of electrons       =        36.00
     number of Kohn-Sham states=           18
     kinetic-energy cutoff     =      50.0000  Ry
     charge density cutoff     =     400.0000  Ry
     scf convergence threshold =      1.0E-08
     mixing beta               =       0.3000
     number of iterations used =            8  plain     mixing
     Exchange-correlation= PBE
                           (   1   4   3   4   0   0   0)

     celldm(1)=   6.240610  celldm(2)=   0.000000  celldm(3)=   1.711220
     celldm(4)=   0.000000  celldm(5)=   0.000000  celldm(6)=   0.000000

     crystal axes: (cart. coord. in units of alat)
               a(1) = (   1.000000   0.000000   0.000000 )  
               a(2) = (  -0.500000   0.866025   0.000000 )  
               a(3) = (   0.000000   0.000000   1.711220 )  

     reciprocal axes: (cart. coord. in units 2 pi/alat)
               b(1) = (  1.000000  0.577350 -0.000000 )  
               b(2) = (  0.000000  1.154701  0.000000 )  
               b(3) = (  0.000000 -0.000000  0.584378 )  


     PseudoPot. # 1 for Zn read from file:
     /home/jvc/QEspresso7.2/ZnO_database/pseudos/Zn.upf
     MD5 check sum: 7f56cabf9682ed8c977c2f7d0c5985c5
     Pseudo is Ultrasoft + core correction, Zval = 12.0
     Generated using &quot;atomic&quot; code by A. Dal Corso  v.6.2.2
     Using radial grid of 1201 points,  6 beta functions with: 
                l(1) =   0
                l(2) =   0
                l(3) =   1
                l(4) =   1
                l(5) =   2
                l(6) =   2
     Q(r) pseudized with 0 coefficients 


     PseudoPot. # 2 for O  read from file:
     /home/jvc/QEspresso7.2/ZnO_database/pseudos/O.upf
     MD5 check sum: 91400c9766925bcf19f520983a725ff0
     Pseudo is Ultrasoft + core correction, Zval =  6.0
     Generated using &quot;atomic&quot; code by A. Dal Corso  v.6.3MaX
     Using radial grid of 1095 points,  4 beta functions with: 
                l(1) =   0
                l(2) =   0
                l(3) =   1
                l(4) =   1
     Q(r) pseudized with 0 coefficients 


     atomic species   valence    mass     pseudopotential
        Zn            12.00    63.38000     Zn( 1.00)
        O              6.00    15.99900     O ( 1.00)

     12 Sym. Ops. (no inversion) found ( 6 have fractional translation)



   Cartesian axes

     site n.     atom                  positions (alat units)
         1           Zn  tau(   1) = (   0.5000000   0.2886751   0.8566941  )
         2           Zn  tau(   2) = (  -0.0000000   0.5773503   0.0010842  )
         3           O   tau(   3) = (   0.5000000   0.2886751   1.5053197  )
         4           O   tau(   4) = (  -0.0000000   0.5773503   0.6497098  )

     number of k points=    28
                       cart. coord. in units 2pi/alat
        k(    1) = (   0.0000000   0.0000000   0.0000000), wk =   0.0092593
        k(    2) = (   0.0000000   0.0000000   0.0973964), wk =   0.0185185
        k(    3) = (   0.0000000   0.0000000   0.1947928), wk =   0.0185185
        k(    4) = (   0.0000000   0.0000000  -0.2921892), wk =   0.0092593
        k(    5) = (   0.0000000   0.1924501   0.0000000), wk =   0.0555556
        k(    6) = (   0.0000000   0.1924501   0.0973964), wk =   0.1111111
        k(    7) = (   0.0000000   0.1924501   0.1947928), wk =   0.1111111
        k(    8) = (   0.0000000   0.1924501  -0.2921892), wk =   0.0555556
        k(    9) = (   0.0000000   0.3849002   0.0000000), wk =   0.0555556
        k(   10) = (   0.0000000   0.3849002   0.0973964), wk =   0.1111111
        k(   11) = (   0.0000000   0.3849002   0.1947928), wk =   0.1111111
        k(   12) = (   0.0000000   0.3849002  -0.2921892), wk =   0.0555556
        k(   13) = (   0.0000000  -0.5773503   0.0000000), wk =   0.0277778
        k(   14) = (   0.0000000  -0.5773503   0.0973964), wk =   0.0555556
        k(   15) = (   0.0000000  -0.5773503   0.1947928), wk =   0.0555556
        k(   16) = (   0.0000000  -0.5773503  -0.2921892), wk =   0.0277778
        k(   17) = (   0.1666667   0.2886751   0.0000000), wk =   0.0555556
        k(   18) = (   0.1666667   0.2886751   0.0973964), wk =   0.1111111
        k(   19) = (   0.1666667   0.2886751   0.1947928), wk =   0.1111111
        k(   20) = (   0.1666667   0.2886751  -0.2921892), wk =   0.0555556
        k(   21) = (   0.1666667   0.4811252   0.0000000), wk =   0.1111111
        k(   22) = (   0.1666667   0.4811252   0.0973964), wk =   0.2222222
        k(   23) = (   0.1666667   0.4811252   0.1947928), wk =   0.2222222
        k(   24) = (   0.1666667   0.4811252  -0.2921892), wk =   0.1111111
        k(   25) = (   0.3333333   0.5773503   0.0000000), wk =   0.0185185
        k(   26) = (   0.3333333   0.5773503   0.0973964), wk =   0.0370370
        k(   27) = (   0.3333333   0.5773503   0.1947928), wk =   0.0370370
        k(   28) = (   0.3333333   0.5773503  -0.2921892), wk =   0.0185185

     Dense  grid:    48751 G-vectors     FFT dimensions: (  40,  40,  72)

     Smooth grid:    17071 G-vectors     FFT dimensions: (  30,  30,  50)

     Estimated max dynamical RAM per process >      27.92 MB

     Estimated total dynamical RAM >     223.33 MB

     Check: negative core charge=   -0.000002

     Initial potential from superposition of free atoms

     starting charge      35.9925, renormalised to      36.0000
     Starting wfcs are   26 randomized atomic wfcs

     total cpu time spent up to now is        1.7 secs

     Self-consistent Calculation

     iteration #  1     ecut=    50.00 Ry     beta= 0.30
     Davidson diagonalization with overlap
     ethr =  1.00E-02,  avg # of iterations =  1.6

     total cpu time spent up to now is        2.6 secs

     total energy              =    -361.45383079 Ry
     estimated scf accuracy    <       0.73170891 Ry

     iteration #  2     ecut=    50.00 Ry     beta= 0.30
     Davidson diagonalization with overlap
     ethr =  2.03E-03,  avg # of iterations =  2.0

     total cpu time spent up to now is        3.7 secs

     total energy              =    -361.56656113 Ry
     estimated scf accuracy    <       0.08437225 Ry

     iteration #  3     ecut=    50.00 Ry     beta= 0.30
     Davidson diagonalization with overlap
     ethr =  2.34E-04,  avg # of iterations =  6.2

     total cpu time spent up to now is        5.4 secs

     total energy              =    -361.58989887 Ry
     estimated scf accuracy    <       0.07182185 Ry

     iteration #  4     ecut=    50.00 Ry     beta= 0.30
     Davidson diagonalization with overlap
     ethr =  2.00E-04,  avg # of iterations =  8.2

     total cpu time spent up to now is        7.6 secs

     total energy              =    -361.64048439 Ry
     estimated scf accuracy    <       0.29704389 Ry

     iteration #  5     ecut=    50.00 Ry     beta= 0.30
     Davidson diagonalization with overlap
     ethr =  2.00E-04,  avg # of iterations =  2.0

     total cpu time spent up to now is        8.6 secs

     total energy              =    -361.51117195 Ry
     estimated scf accuracy    <       0.17645511 Ry

     iteration #  6     ecut=    50.00 Ry     beta= 0.30
     Davidson diagonalization with overlap
     ethr =  2.00E-04,  avg # of iterations =  9.2

     total cpu time spent up to now is       10.7 secs

     total energy              =    -361.61292101 Ry
     estimated scf accuracy    <       0.41730913 Ry

     iteration #  7     ecut=    50.00 Ry     beta= 0.30
     Davidson diagonalization with overlap
     ethr =  2.00E-04,  avg # of iterations =  4.6

     total cpu time spent up to now is       11.9 secs

     total energy              =    -361.63780597 Ry
     estimated scf accuracy    <       0.10683423 Ry

     iteration #  8     ecut=    50.00 Ry     beta= 0.30
     Davidson diagonalization with overlap
     ethr =  2.00E-04,  avg # of iterations =  1.6

     total cpu time spent up to now is       12.9 secs

     total energy              =    -361.63640924 Ry
     estimated scf accuracy    <       0.10181506 Ry

     iteration #  9     ecut=    50.00 Ry     beta= 0.30
     Davidson diagonalization with overlap
     ethr =  2.00E-04,  avg # of iterations =  1.5

     total cpu time spent up to now is       13.8 secs

     total energy              =    -361.63533953 Ry
     estimated scf accuracy    <       0.08741634 Ry

     iteration # 10     ecut=    50.00 Ry     beta= 0.30
     Davidson diagonalization with overlap
     ethr =  2.00E-04,  avg # of iterations =  1.1

     total cpu time spent up to now is       14.6 secs

     total energy              =    -361.61376436 Ry
     estimated scf accuracy    <       0.07762560 Ry

     iteration # 11     ecut=    50.00 Ry     beta= 0.30
     Davidson diagonalization with overlap
     ethr =  2.00E-04,  avg # of iterations =  2.1

     total cpu time spent up to now is       15.6 secs

     total energy              =    -361.60984538 Ry
     estimated scf accuracy    <       0.02935875 Ry

     iteration # 12     ecut=    50.00 Ry     beta= 0.30
     Davidson diagonalization with overlap
     ethr =  8.16E-05,  avg # of iterations =  5.2

     total cpu time spent up to now is       17.0 secs

     total energy              =    -361.62845642 Ry
     estimated scf accuracy    <       0.00137963 Ry

     iteration # 13     ecut=    50.00 Ry     beta= 0.30
     Davidson diagonalization with overlap
     ethr =  3.83E-06,  avg # of iterations = 10.2

     total cpu time spent up to now is       19.4 secs

     total energy              =    -361.62325135 Ry
     estimated scf accuracy    <       0.03469523 Ry

     iteration # 14     ecut=    50.00 Ry     beta= 0.30
     Davidson diagonalization with overlap
     ethr =  3.83E-06,  avg # of iterations =  8.3

     total cpu time spent up to now is       21.6 secs

     total energy              =    -361.62482046 Ry
     estimated scf accuracy    <       0.00513584 Ry

     iteration # 15     ecut=    50.00 Ry     beta= 0.30
     Davidson diagonalization with overlap
     ethr =  3.83E-06,  avg # of iterations =  1.8

     total cpu time spent up to now is       22.5 secs

     total energy              =    -361.62568827 Ry
     estimated scf accuracy    <       0.00327199 Ry

     iteration # 16     ecut=    50.00 Ry     beta= 0.30
     Davidson diagonalization with overlap
     ethr =  3.83E-06,  avg # of iterations =  1.0

     total cpu time spent up to now is       23.4 secs

     total energy              =    -361.62359368 Ry
     estimated scf accuracy    <       0.00456541 Ry

     iteration # 17     ecut=    50.00 Ry     beta= 0.30
     Davidson diagonalization with overlap
     ethr =  3.83E-06,  avg # of iterations =  5.4

     total cpu time spent up to now is       24.9 secs

     total energy              =    -361.62492804 Ry
     estimated scf accuracy    <       0.00007385 Ry

     iteration # 18     ecut=    50.00 Ry     beta= 0.30
     Davidson diagonalization with overlap
     ethr =  2.05E-07,  avg # of iterations = 10.0

     total cpu time spent up to now is       27.3 secs

     total energy              =    -361.62542305 Ry
     estimated scf accuracy    <       0.00233588 Ry

     iteration # 19     ecut=    50.00 Ry     beta= 0.30
     Davidson diagonalization with overlap
     ethr =  2.05E-07,  avg # of iterations =  2.3

     total cpu time spent up to now is       28.3 secs

     total energy              =    -361.62526431 Ry
     estimated scf accuracy    <       0.00279670 Ry

     iteration # 20     ecut=    50.00 Ry     beta= 0.30
     Davidson diagonalization with overlap
     ethr =  2.05E-07,  avg # of iterations =  1.1

     total cpu time spent up to now is       29.2 secs

     total energy              =    -361.62656745 Ry
     estimated scf accuracy    <       0.00249443 Ry

     iteration # 21     ecut=    50.00 Ry     beta= 0.30
     Davidson diagonalization with overlap
     ethr =  2.05E-07,  avg # of iterations = 11.0

     total cpu time spent up to now is       31.8 secs

     total energy              =    -361.62672733 Ry
     estimated scf accuracy    <       0.00913873 Ry

     iteration # 22     ecut=    50.00 Ry     beta= 0.30
     Davidson diagonalization with overlap
     ethr =  2.05E-07,  avg # of iterations =  1.5

     total cpu time spent up to now is       32.7 secs

     total energy              =    -361.62387355 Ry
     estimated scf accuracy    <       0.00870762 Ry

     iteration # 23     ecut=    50.00 Ry     beta= 0.30
     Davidson diagonalization with overlap
     ethr =  2.05E-07,  avg # of iterations = 11.9

     total cpu time spent up to now is       35.7 secs

     total energy              =    -361.62489577 Ry
     estimated scf accuracy    <       0.00045580 Ry

     iteration # 24     ecut=    50.00 Ry     beta= 0.30
     Davidson diagonalization with overlap
     ethr =  2.05E-07,  avg # of iterations =  2.4

     total cpu time spent up to now is       36.7 secs

     total energy              =    -361.62476479 Ry
     estimated scf accuracy    <       0.00067503 Ry

     iteration # 25     ecut=    50.00 Ry     beta= 0.30
     Davidson diagonalization with overlap
     ethr =  2.05E-07,  avg # of iterations =  2.0

     total cpu time spent up to now is       37.6 secs

     total energy              =    -361.62455057 Ry
     estimated scf accuracy    <       0.00044711 Ry

     iteration # 26     ecut=    50.00 Ry     beta= 0.30
     Davidson diagonalization with overlap
     ethr =  2.05E-07,  avg # of iterations =  8.6

     total cpu time spent up to now is       39.8 secs

     total energy              =    -361.62468279 Ry
     estimated scf accuracy    <       0.00003159 Ry

     iteration # 27     ecut=    50.00 Ry     beta= 0.30
     Davidson diagonalization with overlap
     ethr =  8.78E-08,  avg # of iterations =  1.8

     total cpu time spent up to now is       40.7 secs

     total energy              =    -361.62467837 Ry
     estimated scf accuracy    <       0.00001270 Ry

     iteration # 28     ecut=    50.00 Ry     beta= 0.30
     Davidson diagonalization with overlap
     ethr =  3.53E-08,  avg # of iterations =  5.0

     total cpu time spent up to now is       42.1 secs

     total energy              =    -361.62468633 Ry
     estimated scf accuracy    <       0.00000155 Ry

     iteration # 29     ecut=    50.00 Ry     beta= 0.30
     Davidson diagonalization with overlap
     ethr =  4.30E-09,  avg # of iterations =  6.5

     total cpu time spent up to now is       43.8 secs

     total energy              =    -361.62468438 Ry
     estimated scf accuracy    <       0.00001297 Ry

     iteration # 30     ecut=    50.00 Ry     beta= 0.30
     Davidson diagonalization with overlap
     ethr =  4.30E-09,  avg # of iterations =  4.2

     total cpu time spent up to now is       45.1 secs

     total energy              =    -361.62468377 Ry
     estimated scf accuracy    <       0.00000320 Ry

     iteration # 31     ecut=    50.00 Ry     beta= 0.30
     Davidson diagonalization with overlap
     ethr =  4.30E-09,  avg # of iterations =  5.0

     total cpu time spent up to now is       46.5 secs

     total energy              =    -361.62468453 Ry
     estimated scf accuracy    <       0.00000001 Ry

     iteration # 32     ecut=    50.00 Ry     beta= 0.30
     Davidson diagonalization with overlap
     ethr =  3.60E-11,  avg # of iterations = 13.7

     total cpu time spent up to now is       49.9 secs

     total energy              =    -361.62468448 Ry
     estimated scf accuracy    <       0.00000198 Ry

     iteration # 33     ecut=    50.00 Ry     beta= 0.30
     Davidson diagonalization with overlap
     ethr =  3.60E-11,  avg # of iterations = 11.2

     total cpu time spent up to now is       52.9 secs

     total energy              =    -361.62468451 Ry
     estimated scf accuracy    <       0.00000023 Ry

     iteration # 34     ecut=    50.00 Ry     beta= 0.30
     Davidson diagonalization with overlap
     ethr =  3.60E-11,  avg # of iterations = 10.5

     total cpu time spent up to now is       55.4 secs

     total energy              =    -361.62468456 Ry
     estimated scf accuracy    <       0.00000002 Ry

     iteration # 35     ecut=    50.00 Ry     beta= 0.30
     Davidson diagonalization with overlap
     ethr =  3.60E-11,  avg # of iterations = 10.0

     total cpu time spent up to now is       57.9 secs

     total energy              =    -361.62468454 Ry
     estimated scf accuracy    <       0.00000016 Ry

     iteration # 36     ecut=    50.00 Ry     beta= 0.30
     Davidson diagonalization with overlap
     ethr =  3.60E-11,  avg # of iterations =  8.7

     total cpu time spent up to now is       60.1 secs

     End of self-consistent calculation

          k = 0.0000 0.0000 0.0000 (  2071 PWs)   bands (ev):

   -11.5969 -11.1115   0.3997   0.3997   0.4552   0.5317   0.5317   0.6836
     1.3195   1.3195   1.4488   1.4488   1.7984   5.1672   5.1672   5.5095
     5.7168   5.7168

          k = 0.0000 0.0000 0.0974 (  2124 PWs)   bands (ev):

   -11.5659 -11.1456   0.4055   0.4055   0.4319   0.5194   0.5194   0.5718
     1.3296   1.3296   1.4422   1.4422   2.0671   4.9362   5.2043   5.2043
     5.6803   5.6803

          k = 0.0000 0.0000 0.1948 (  2142 PWs)   bands (ev):

   -11.4800 -11.2374   0.3837   0.4221   0.4242   0.4242   0.4897   0.4897
     1.3576   1.3576   1.4227   1.4227   2.6610   4.1508   5.3057   5.3057
     5.5805   5.5805

          k = 0.0000 0.0000-0.2922 (  2124 PWs)   bands (ev):

   -11.3602 -11.3602   0.3631   0.3631   0.4543   0.4543   0.4543   0.4543
     1.3926   1.3926   1.3926   1.3926   3.3813   3.3813   5.4435   5.4435
     5.4435   5.4435

          k = 0.0000 0.1925 0.0000 (  2128 PWs)   bands (ev):

   -11.4739 -11.0460   0.3042   0.4736   0.4946   0.5703   0.6354   0.8405
     1.2702   1.3169   1.4546   1.5603   1.8191   4.2390   4.5973   4.8711
     5.3890   5.5359

          k = 0.0000 0.1925 0.0974 (  2126 PWs)   bands (ev):

   -11.4462 -11.0756   0.2927   0.4620   0.4819   0.5571   0.6218   0.7327
     1.2891   1.3275   1.4468   1.4959   2.1483   4.2222   4.5046   4.9165
     5.2981   5.4920

          k = 0.0000 0.1925 0.1948 (  2136 PWs)   bands (ev):

   -11.3697 -11.1558   0.2704   0.3585   0.5063   0.5488   0.5867   0.6220
     1.3345   1.3552   1.4240   1.4427   2.7439   3.9122   4.5620   5.0396
     5.0692   5.3716

          k = 0.0000 0.1925-0.2922 (  2142 PWs)   bands (ev):

   -11.2637 -11.2637   0.2796   0.2796   0.5437   0.5437   0.5701   0.5701
     1.3897   1.3897   1.3908   1.3908   3.3700   3.3700   4.7927   4.7927
     5.2063   5.2063

          k = 0.0000 0.3849 0.0000 (  2148 PWs)   bands (ev):

   -11.2028 -10.9272   0.2258   0.4832   0.5948   0.8250   0.8737   1.0665
     1.2424   1.3755   1.4723   1.6544   2.1288   2.7731   3.5256   4.2674
     4.9465   5.1500

          k = 0.0000 0.3849 0.0974 (  2152 PWs)   bands (ev):

   -11.1841 -10.9454   0.2134   0.4360   0.6106   0.8122   0.8517   0.9762
     1.2674   1.3811   1.4644   1.5851   2.3132   2.8658   3.5355   4.3293
     4.9225   5.0925

          k = 0.0000 0.3849 0.1948 (  2150 PWs)   bands (ev):

   -11.1333 -10.9954   0.1970   0.3209   0.6561   0.7932   0.7947   0.8570
     1.3349   1.3970   1.4444   1.5001   2.5559   2.9099   3.8097   4.4957
     4.7474   4.9350

          k = 0.0000 0.3849-0.2922 (  2156 PWs)   bands (ev):

   -11.0641 -11.0641   0.2244   0.2244   0.7224   0.7224   0.8016   0.8016
     1.4174   1.4174   1.4196   1.4196   2.7596   2.7596   4.3311   4.3311
     4.7174   4.7174

          k = 0.0000-0.5774 0.0000 (  2156 PWs)   bands (ev):

   -11.0375 -10.8906   0.2978   0.4920   0.6344   0.9729   1.0068   1.1402
     1.3728   1.4507   1.4941   1.5639   2.0041   2.3764   3.2235   3.9422
     4.5313   4.9430

          k = 0.0000-0.5774 0.0974 (  2154 PWs)   bands (ev):

   -11.0268 -10.8996   0.2764   0.4321   0.6555   0.9711   0.9775   1.1014
     1.4092   1.4522   1.4883   1.5620   1.9910   2.3166   3.4375   4.0145
     4.5810   4.8789

          k = 0.0000-0.5774 0.1948 (  2148 PWs)   bands (ev):

   -10.9984 -10.9249   0.2382   0.3149   0.7154   0.9005   0.9734   1.0381
     1.4568   1.4747   1.4758   1.5529   2.0024   2.1903   3.9090   4.2064
     4.5913   4.7028

          k = 0.0000-0.5774-0.2922 (  2136 PWs)   bands (ev):

   -10.9608 -10.9608   0.2393   0.2393   0.8038   0.8038   0.9935   0.9935
     1.4647   1.4647   1.5262   1.5262   2.0725   2.0725   4.3620   4.3620
     4.4584   4.4584

          k = 0.1667 0.2887 0.0000 (  2153 PWs)   bands (ev):

   -11.2759 -10.9541   0.3099   0.4504   0.6103   0.6403   0.8324   1.0283
     1.2255   1.3362   1.4653   1.6533   2.0432   3.4777   3.5307   4.2801
     5.0928   5.1204

          k = 0.1667 0.2887 0.0974 (  2147 PWs)   bands (ev):

   -11.2544 -10.9757   0.2931   0.4324   0.6062   0.6252   0.8159   0.9096
     1.2547   1.3541   1.4574   1.5751   2.3219   3.4797   3.5857   4.3047
     5.0320   5.0726

          k = 0.1667 0.2887 0.1948 (  2164 PWs)   bands (ev):

   -11.1957 -11.0347   0.2647   0.3555   0.6055   0.6097   0.7761   0.7790
     1.3247   1.3799   1.4368   1.4927   2.7446   3.3212   3.9184   4.4129
     4.8620   4.8695

          k = 0.1667 0.2887-0.2922 (  2168 PWs)   bands (ev):

   -11.1152 -11.1152   0.2769   0.2769   0.6108   0.6108   0.7464   0.7464
     1.3989   1.3989   1.4196   1.4196   3.0762   3.0762   4.3782   4.3782
     4.6754   4.6754

          k = 0.1667 0.4811 0.0000 (  2157 PWs)   bands (ev):

   -11.0432 -10.8881   0.3720   0.6008   0.6744   0.9121   1.0170   1.0831
     1.2842   1.3671   1.5152   1.6945   2.0880   2.5974   3.2145   3.5278
     4.5071   4.6708

          k = 0.1667 0.4811 0.0974 (  2157 PWs)   bands (ev):

   -11.0320 -10.8977   0.3651   0.5540   0.6655   0.9032   0.9814   1.0219
     1.2983   1.4025   1.5153   1.6739   2.1086   2.5820   3.3361   3.6590
     4.4720   4.6725

          k = 0.1667 0.4811 0.1948 (  2159 PWs)   bands (ev):

   -11.0021 -10.9245   0.3479   0.4444   0.6823   0.8535   0.9137   0.9545
     1.3613   1.4249   1.5240   1.6184   2.1971   2.4786   3.6179   3.9972
     4.3042   4.6635

          k = 0.1667 0.4811-0.2922 (  2158 PWs)   bands (ev):

   -10.9626 -10.9626   0.3616   0.3616   0.7524   0.7524   0.9185   0.9185
     1.4125   1.4125   1.5585   1.5585   2.3329   2.3329   3.9297   3.9297
     4.4690   4.4690

          k = 0.3333 0.5774 0.0000 (  2157 PWs)   bands (ev):

   -10.9163 -10.9163   0.3972   0.8174   0.8174   0.9754   1.2587   1.2587
     1.2642   1.3397   1.4830   1.4830   2.2969   2.2969   2.4930   4.0222
     4.0222   4.0644

          k = 0.3333 0.5774 0.0974 (  2148 PWs)   bands (ev):

   -10.9153 -10.9153   0.4220   0.7656   0.7656   0.9077   1.1991   1.1991
     1.2734   1.3357   1.5654   1.5654   2.2587   2.2587   2.6139   3.9599
     4.1469   4.1469

          k = 0.3333 0.5774 0.1948 (  2151 PWs)   bands (ev):

   -10.9133 -10.9133   0.4953   0.6619   0.6619   0.7618   1.1451   1.1451
     1.2902   1.3243   1.6716   1.6716   2.1893   2.1893   2.9175   3.6799
     4.3870   4.3870

          k = 0.3333 0.5774-0.2922 (  2154 PWs)   bands (ev):

   -10.9123 -10.9123   0.6118   0.6118   0.6129   0.6129   1.1296   1.1296
     1.3080   1.3080   1.7153   1.7153   2.1561   2.1561   3.3029   3.3029
     4.5042   4.5042

     highest occupied level (ev):     5.7168

!    total energy              =    -361.62468457 Ry
     estimated scf accuracy    <          2.4E-10 Ry

     The total energy is the sum of the following terms:
     one-electron contribution =    -164.69497671 Ry
     hartree contribution      =     121.95056185 Ry
     xc contribution           =    -109.37730436 Ry
     ewald contribution        =    -209.50296536 Ry

     convergence has been achieved in  36 iterations

     Forces acting on atoms (cartesian axes, Ry/au):

     atom    1 type  1   force =     0.00000000    0.00000000    0.00553407
     atom    2 type  1   force =     0.00000000   -0.00000000    0.00553407
     atom    3 type  2   force =     0.00000000    0.00000000   -0.00553407
     atom    4 type  2   force =     0.00000000   -0.00000000   -0.00553407
     The non-local contrib.  to forces
     atom    1 type  1   force =     0.00000000    0.00000000    0.15040324
     atom    2 type  1   force =     0.00000000    0.00000000    0.15040324
     atom    3 type  2   force =    -0.00000000   -0.00000000    0.15446147
     atom    4 type  2   force =     0.00000000    0.00000000    0.15446147
     The ionic contribution  to forces
     atom    1 type  1   force =    -0.00000000    0.00000000    1.19505263
     atom    2 type  1   force =     0.00000000   -0.00000000    1.19505263
     atom    3 type  2   force =    -0.00000000    0.00000000   -1.19505263
     atom    4 type  2   force =     0.00000000   -0.00000000   -1.19505263
     The local contribution  to forces
     atom    1 type  1   force =    -0.00000002    0.00000001   -1.32992311
     atom    2 type  1   force =     0.00000006   -0.00000004   -1.32992311
     atom    3 type  2   force =    -0.00000001    0.00000000    1.03637767
     atom    4 type  2   force =     0.00000002   -0.00000001    1.03637767
     The core correction contribution to forces
     atom    1 type  1   force =    -0.00000000    0.00000000   -0.00999491
     atom    2 type  1   force =     0.00000001   -0.00000000   -0.00999491
     atom    3 type  2   force =     0.00000000   -0.00000000   -0.00132177
     atom    4 type  2   force =    -0.00000000    0.00000000   -0.00132177
     The Hubbard contrib.    to forces
     atom    1 type  1   force =     0.00000000    0.00000000    0.00000000
     atom    2 type  1   force =     0.00000000    0.00000000    0.00000000
     atom    3 type  2   force =     0.00000000    0.00000000    0.00000000
     atom    4 type  2   force =     0.00000000    0.00000000    0.00000000
     The SCF correction term to forces
     atom    1 type  1   force =    -0.00000000    0.00000000   -0.00000364
     atom    2 type  1   force =     0.00000000   -0.00000000   -0.00000364
     atom    3 type  2   force =    -0.00000000    0.00000000    0.00000133
     atom    4 type  2   force =     0.00000000   -0.00000000    0.00000133

     Total force =     0.011068     Total SCF correction =     0.000005


     Computing stress (Cartesian axis) and pressure

          total   stress  (Ry/bohr**3)                   (kbar)     P=      -92.29
  -0.00044533  -0.00000000   0.00000000          -65.51       -0.00        0.00
  -0.00000000  -0.00044533   0.00000000           -0.00      -65.51        0.00
   0.00000000   0.00000000  -0.00099140            0.00        0.00     -145.84


     Writing all to output data dir ./ZnO_ANN.save/

     init_run     :      2.00s CPU      1.32s WALL (       1 calls)
     electrons    :    156.06s CPU     58.48s WALL (       1 calls)
     forces       :      0.75s CPU      0.36s WALL (       1 calls)
     stress       :      2.60s CPU      1.26s WALL (       1 calls)

     Called by init_run:
     wfcinit      :      1.13s CPU      0.43s WALL (       1 calls)
     potinit      :      0.24s CPU      0.24s WALL (       1 calls)
     hinit0       :      0.50s CPU      0.51s WALL (       1 calls)

     Called by electrons:
     c_bands      :    132.19s CPU     49.00s WALL (      36 calls)
     sum_band     :     17.75s CPU      6.98s WALL (      36 calls)
     v_of_rho     :      1.32s CPU      0.57s WALL (      37 calls)
     newd         :      4.47s CPU      1.81s WALL (      37 calls)
     mix_rho      :      0.26s CPU      0.11s WALL (      36 calls)

     Called by c_bands:
     init_us_2    :      1.61s CPU      0.58s WALL (    2100 calls)
     init_us_2:cp :      1.58s CPU      0.57s WALL (    2100 calls)
     cegterg      :    128.54s CPU     47.58s WALL (    1008 calls)

     Called by *egterg:
     cdiaghg      :     19.78s CPU      6.45s WALL (    6591 calls)
     h_psi        :     88.52s CPU     36.02s WALL (    6619 calls)
     s_psi        :      1.91s CPU      0.57s WALL (    6619 calls)
     g_psi        :      0.71s CPU      0.18s WALL (    5583 calls)

     Called by h_psi:
     h_psi:calbec :      2.88s CPU      1.06s WALL (    6619 calls)
     vloc_psi     :     83.02s CPU     34.12s WALL (    6619 calls)
     add_vuspsi   :      1.88s CPU      0.62s WALL (    6619 calls)

     General routines
     calbec       :      3.51s CPU      1.27s WALL (    7767 calls)
     fft          :      1.07s CPU      0.60s WALL (     504 calls)
     ffts         :      0.15s CPU      0.12s WALL (      73 calls)
     fftw         :     82.21s CPU     33.88s WALL (  168410 calls)
     interpolate  :      0.19s CPU      0.14s WALL (      37 calls)

     Parallel routines

     PWSCF        :   2m41.97s CPU   1m 1.91s WALL


   This run was terminated on:  17:34:25  13Jun2025            

=------------------------------------------------------------------------------=
   JOB DONE.
=------------------------------------------------------------------------------=
Note: The following floating-point exceptions are signalling: IEEE_INVALID_FLAG
