Authorization required, but no authorization protocol specified

Authorization required, but no authorization protocol specified

Authorization required, but no authorization protocol specified

Authorization required, but no authorization protocol specified

Authorization required, but no authorization protocol specified

Authorization required, but no authorization protocol specified

Authorization required, but no authorization protocol specified
Authorization required, but no authorization protocol specified


Authorization required, but no authorization protocol specified

Authorization required, but no authorization protocol specified


     Program PWSCF v.7.2 starts on 13Jun2025 at 19:41:43 

     This program is part of the open-source Quantum ESPRESSO suite
     for quantum simulation of materials; please cite
         "P. Giannozzi et al., J. Phys.:Condens. Matter 21 395502 (2009);
         "P. Giannozzi et al., J. Phys.:Condens. Matter 29 465901 (2017);
         "P. Giannozzi et al., J. Chem. Phys. 152 154105 (2020);
          URL http://www.quantum-espresso.org", 
     in publications or presentations arising from this work. More details at
     http://www.quantum-espresso.org/quote

     Parallel version (MPI), running on     8 processors

     MPI processes distributed on     1 nodes
     120702 MiB available memory on the printing compute node when the environment starts

     Reading input from /home/jvc/QEspresso7.2/ZnO_database_python/SCFs.in/scf-6.73-1.58.in

     Current dimensions of program PWSCF are:
     Max number of different atomic species (ntypx) = 10
     Max number of k-points (npk) =  40000
     Max angular momentum in pseudopotentials (lmaxx) =  4
     file Zn.upf: wavefunction(s)  3D renormalized

     R & G space division:  proc/nbgrp/npool/nimage =       8
     Subspace diagonalization in iterative solution of the eigenvalue problem:
     a serial algorithm will be used


     Parallelization info
     --------------------
     sticks:   dense  smooth     PW     G-vecs:    dense   smooth      PW
     Min         157      79     23                 7078     2513     413
     Max         158      80     24                 7082     2516     420
     Sum        1261     637    187                56635    20111    3333

     Using Slab Decomposition



     bravais-lattice index     =            4
     lattice parameter (alat)  =       6.7349  a.u.
     unit-cell volume          =     418.5555 (a.u.)^3
     number of atoms/cell      =            4
     number of atomic types    =            2
     number of electrons       =        36.00
     number of Kohn-Sham states=           18
     kinetic-energy cutoff     =      50.0000  Ry
     charge density cutoff     =     400.0000  Ry
     scf convergence threshold =      1.0E-08
     mixing beta               =       0.3000
     number of iterations used =            8  plain     mixing
     Exchange-correlation= PBE
                           (   1   4   3   4   0   0   0)

     celldm(1)=   6.734915  celldm(2)=   0.000000  celldm(3)=   1.582071
     celldm(4)=   0.000000  celldm(5)=   0.000000  celldm(6)=   0.000000

     crystal axes: (cart. coord. in units of alat)
               a(1) = (   1.000000   0.000000   0.000000 )  
               a(2) = (  -0.500000   0.866025   0.000000 )  
               a(3) = (   0.000000   0.000000   1.582071 )  

     reciprocal axes: (cart. coord. in units 2 pi/alat)
               b(1) = (  1.000000  0.577350 -0.000000 )  
               b(2) = (  0.000000  1.154701  0.000000 )  
               b(3) = (  0.000000 -0.000000  0.632083 )  


     PseudoPot. # 1 for Zn read from file:
     /home/jvc/QEspresso7.2/ZnO_database/pseudos/Zn.upf
     MD5 check sum: 7f56cabf9682ed8c977c2f7d0c5985c5
     Pseudo is Ultrasoft + core correction, Zval = 12.0
     Generated using &quot;atomic&quot; code by A. Dal Corso  v.6.2.2
     Using radial grid of 1201 points,  6 beta functions with: 
                l(1) =   0
                l(2) =   0
                l(3) =   1
                l(4) =   1
                l(5) =   2
                l(6) =   2
     Q(r) pseudized with 0 coefficients 


     PseudoPot. # 2 for O  read from file:
     /home/jvc/QEspresso7.2/ZnO_database/pseudos/O.upf
     MD5 check sum: 91400c9766925bcf19f520983a725ff0
     Pseudo is Ultrasoft + core correction, Zval =  6.0
     Generated using &quot;atomic&quot; code by A. Dal Corso  v.6.3MaX
     Using radial grid of 1095 points,  4 beta functions with: 
                l(1) =   0
                l(2) =   0
                l(3) =   1
                l(4) =   1
     Q(r) pseudized with 0 coefficients 


     atomic species   valence    mass     pseudopotential
        Zn            12.00    63.38000     Zn( 1.00)
        O              6.00    15.99900     O ( 1.00)

     12 Sym. Ops. (no inversion) found ( 6 have fractional translation)



   Cartesian axes

     site n.     atom                  positions (alat units)
         1           Zn  tau(   1) = (   0.5000000   0.2886751   0.7920380  )
         2           Zn  tau(   2) = (  -0.0000000   0.5773503   0.0010024  )
         3           O   tau(   3) = (   0.5000000   0.2886751   1.3917107  )
         4           O   tau(   4) = (  -0.0000000   0.5773503   0.6006751  )

     number of k points=    28
                       cart. coord. in units 2pi/alat
        k(    1) = (   0.0000000   0.0000000   0.0000000), wk =   0.0092593
        k(    2) = (   0.0000000   0.0000000   0.1053471), wk =   0.0185185
        k(    3) = (   0.0000000   0.0000000   0.2106943), wk =   0.0185185
        k(    4) = (   0.0000000   0.0000000  -0.3160414), wk =   0.0092593
        k(    5) = (   0.0000000   0.1924501   0.0000000), wk =   0.0555556
        k(    6) = (   0.0000000   0.1924501   0.1053471), wk =   0.1111111
        k(    7) = (   0.0000000   0.1924501   0.2106943), wk =   0.1111111
        k(    8) = (   0.0000000   0.1924501  -0.3160414), wk =   0.0555556
        k(    9) = (   0.0000000   0.3849002   0.0000000), wk =   0.0555556
        k(   10) = (   0.0000000   0.3849002   0.1053471), wk =   0.1111111
        k(   11) = (   0.0000000   0.3849002   0.2106943), wk =   0.1111111
        k(   12) = (   0.0000000   0.3849002  -0.3160414), wk =   0.0555556
        k(   13) = (   0.0000000  -0.5773503   0.0000000), wk =   0.0277778
        k(   14) = (   0.0000000  -0.5773503   0.1053471), wk =   0.0555556
        k(   15) = (   0.0000000  -0.5773503   0.2106943), wk =   0.0555556
        k(   16) = (   0.0000000  -0.5773503  -0.3160414), wk =   0.0277778
        k(   17) = (   0.1666667   0.2886751   0.0000000), wk =   0.0555556
        k(   18) = (   0.1666667   0.2886751   0.1053471), wk =   0.1111111
        k(   19) = (   0.1666667   0.2886751   0.2106943), wk =   0.1111111
        k(   20) = (   0.1666667   0.2886751  -0.3160414), wk =   0.0555556
        k(   21) = (   0.1666667   0.4811252   0.0000000), wk =   0.1111111
        k(   22) = (   0.1666667   0.4811252   0.1053471), wk =   0.2222222
        k(   23) = (   0.1666667   0.4811252   0.2106943), wk =   0.2222222
        k(   24) = (   0.1666667   0.4811252  -0.3160414), wk =   0.1111111
        k(   25) = (   0.3333333   0.5773503   0.0000000), wk =   0.0185185
        k(   26) = (   0.3333333   0.5773503   0.1053471), wk =   0.0370370
        k(   27) = (   0.3333333   0.5773503   0.2106943), wk =   0.0370370
        k(   28) = (   0.3333333   0.5773503  -0.3160414), wk =   0.0185185

     Dense  grid:    56635 G-vectors     FFT dimensions: (  45,  45,  72)

     Smooth grid:    20111 G-vectors     FFT dimensions: (  32,  32,  48)

     Estimated max dynamical RAM per process >      32.03 MB

     Estimated total dynamical RAM >     256.25 MB

     Check: negative core charge=   -0.000002

     Initial potential from superposition of free atoms

     starting charge      35.9925, renormalised to      36.0000
     Starting wfcs are   26 randomized atomic wfcs

     total cpu time spent up to now is        1.7 secs

     Self-consistent Calculation

     iteration #  1     ecut=    50.00 Ry     beta= 0.30
     Davidson diagonalization with overlap
     ethr =  1.00E-02,  avg # of iterations =  1.3

     total cpu time spent up to now is        2.5 secs

     total energy              =    -361.37811105 Ry
     estimated scf accuracy    <       0.81267145 Ry

     iteration #  2     ecut=    50.00 Ry     beta= 0.30
     Davidson diagonalization with overlap
     ethr =  2.26E-03,  avg # of iterations =  2.2

     total cpu time spent up to now is        3.4 secs

     total energy              =    -361.49494528 Ry
     estimated scf accuracy    <       0.09635723 Ry

     iteration #  3     ecut=    50.00 Ry     beta= 0.30
     Davidson diagonalization with overlap
     ethr =  2.68E-04,  avg # of iterations =  5.5

     total cpu time spent up to now is        4.8 secs

     total energy              =    -361.49587204 Ry
     estimated scf accuracy    <       0.15321806 Ry

     iteration #  4     ecut=    50.00 Ry     beta= 0.30
     Davidson diagonalization with overlap
     ethr =  2.68E-04,  avg # of iterations =  9.0

     total cpu time spent up to now is        6.9 secs

     total energy              =    -361.63598738 Ry
     estimated scf accuracy    <       0.38706849 Ry

     iteration #  5     ecut=    50.00 Ry     beta= 0.30
     Davidson diagonalization with overlap
     ethr =  2.68E-04,  avg # of iterations =  1.0

     total cpu time spent up to now is        7.7 secs

     total energy              =    -361.47011865 Ry
     estimated scf accuracy    <       0.31420779 Ry

     iteration #  6     ecut=    50.00 Ry     beta= 0.30
     Davidson diagonalization with overlap
     ethr =  2.68E-04,  avg # of iterations =  6.3

     total cpu time spent up to now is        9.1 secs

     total energy              =    -361.57080742 Ry
     estimated scf accuracy    <       0.05265768 Ry

     iteration #  7     ecut=    50.00 Ry     beta= 0.30
     Davidson diagonalization with overlap
     ethr =  1.46E-04,  avg # of iterations =  1.5

     total cpu time spent up to now is        9.9 secs

     total energy              =    -361.57516115 Ry
     estimated scf accuracy    <       0.02185799 Ry

     iteration #  8     ecut=    50.00 Ry     beta= 0.30
     Davidson diagonalization with overlap
     ethr =  6.07E-05,  avg # of iterations =  1.1

     total cpu time spent up to now is       10.7 secs

     total energy              =    -361.57750135 Ry
     estimated scf accuracy    <       0.02538750 Ry

     iteration #  9     ecut=    50.00 Ry     beta= 0.30
     Davidson diagonalization with overlap
     ethr =  6.07E-05,  avg # of iterations =  1.1

     total cpu time spent up to now is       11.5 secs

     total energy              =    -361.57882351 Ry
     estimated scf accuracy    <       0.02639086 Ry

     iteration # 10     ecut=    50.00 Ry     beta= 0.30
     Davidson diagonalization with overlap
     ethr =  6.07E-05,  avg # of iterations =  1.0

     total cpu time spent up to now is       12.3 secs

     total energy              =    -361.57816675 Ry
     estimated scf accuracy    <       0.02890400 Ry

     iteration # 11     ecut=    50.00 Ry     beta= 0.30
     Davidson diagonalization with overlap
     ethr =  6.07E-05,  avg # of iterations =  1.0

     total cpu time spent up to now is       13.1 secs

     total energy              =    -361.56964489 Ry
     estimated scf accuracy    <       0.02680371 Ry

     iteration # 12     ecut=    50.00 Ry     beta= 0.30
     Davidson diagonalization with overlap
     ethr =  6.07E-05,  avg # of iterations =  2.0

     total cpu time spent up to now is       14.0 secs

     total energy              =    -361.56968916 Ry
     estimated scf accuracy    <       0.00962175 Ry

     iteration # 13     ecut=    50.00 Ry     beta= 0.30
     Davidson diagonalization with overlap
     ethr =  2.67E-05,  avg # of iterations =  4.9

     total cpu time spent up to now is       15.1 secs

     total energy              =    -361.57214637 Ry
     estimated scf accuracy    <       0.00050567 Ry

     iteration # 14     ecut=    50.00 Ry     beta= 0.30
     Davidson diagonalization with overlap
     ethr =  1.40E-06,  avg # of iterations =  9.4

     total cpu time spent up to now is       17.1 secs

     total energy              =    -361.57190869 Ry
     estimated scf accuracy    <       0.00488133 Ry

     iteration # 15     ecut=    50.00 Ry     beta= 0.30
     Davidson diagonalization with overlap
     ethr =  1.40E-06,  avg # of iterations =  8.3

     total cpu time spent up to now is       18.9 secs

     total energy              =    -361.57327625 Ry
     estimated scf accuracy    <       0.00030973 Ry

     iteration # 16     ecut=    50.00 Ry     beta= 0.30
     Davidson diagonalization with overlap
     ethr =  8.60E-07,  avg # of iterations =  5.2

     total cpu time spent up to now is       20.1 secs

     total energy              =    -361.57296430 Ry
     estimated scf accuracy    <       0.00152995 Ry

     iteration # 17     ecut=    50.00 Ry     beta= 0.30
     Davidson diagonalization with overlap
     ethr =  8.60E-07,  avg # of iterations =  4.9

     total cpu time spent up to now is       21.3 secs

     total energy              =    -361.57310425 Ry
     estimated scf accuracy    <       0.00043419 Ry

     iteration # 18     ecut=    50.00 Ry     beta= 0.30
     Davidson diagonalization with overlap
     ethr =  8.60E-07,  avg # of iterations =  1.0

     total cpu time spent up to now is       22.1 secs

     total energy              =    -361.57333865 Ry
     estimated scf accuracy    <       0.00039234 Ry

     iteration # 19     ecut=    50.00 Ry     beta= 0.30
     Davidson diagonalization with overlap
     ethr =  8.60E-07,  avg # of iterations =  5.4

     total cpu time spent up to now is       23.4 secs

     total energy              =    -361.57345387 Ry
     estimated scf accuracy    <       0.00252191 Ry

     iteration # 20     ecut=    50.00 Ry     beta= 0.30
     Davidson diagonalization with overlap
     ethr =  8.60E-07,  avg # of iterations =  1.0

     total cpu time spent up to now is       24.2 secs

     total energy              =    -361.57308488 Ry
     estimated scf accuracy    <       0.00220524 Ry

     iteration # 21     ecut=    50.00 Ry     beta= 0.30
     Davidson diagonalization with overlap
     ethr =  8.60E-07,  avg # of iterations =  2.3

     total cpu time spent up to now is       25.1 secs

     total energy              =    -361.57266729 Ry
     estimated scf accuracy    <       0.00141532 Ry

     iteration # 22     ecut=    50.00 Ry     beta= 0.30
     Davidson diagonalization with overlap
     ethr =  8.60E-07,  avg # of iterations =  5.5

     total cpu time spent up to now is       26.5 secs

     total energy              =    -361.57302194 Ry
     estimated scf accuracy    <       0.00000157 Ry

     iteration # 23     ecut=    50.00 Ry     beta= 0.30
     Davidson diagonalization with overlap
     ethr =  4.35E-09,  avg # of iterations = 13.7

     total cpu time spent up to now is       29.5 secs

     total energy              =    -361.57306658 Ry
     estimated scf accuracy    <       0.00033362 Ry

     iteration # 24     ecut=    50.00 Ry     beta= 0.30
     Davidson diagonalization with overlap
     ethr =  4.35E-09,  avg # of iterations =  4.6

     total cpu time spent up to now is       30.6 secs

     total energy              =    -361.57302696 Ry
     estimated scf accuracy    <       0.00028605 Ry

     iteration # 25     ecut=    50.00 Ry     beta= 0.30
     Davidson diagonalization with overlap
     ethr =  4.35E-09,  avg # of iterations = 10.8

     total cpu time spent up to now is       32.7 secs

     total energy              =    -361.57303758 Ry
     estimated scf accuracy    <       0.00012418 Ry

     iteration # 26     ecut=    50.00 Ry     beta= 0.30
     Davidson diagonalization with overlap
     ethr =  4.35E-09,  avg # of iterations =  1.1

     total cpu time spent up to now is       33.5 secs

     total energy              =    -361.57304166 Ry
     estimated scf accuracy    <       0.00013276 Ry

     iteration # 27     ecut=    50.00 Ry     beta= 0.30
     Davidson diagonalization with overlap
     ethr =  4.35E-09,  avg # of iterations =  2.2

     total cpu time spent up to now is       34.5 secs

     total energy              =    -361.57303763 Ry
     estimated scf accuracy    <       0.00014713 Ry

     iteration # 28     ecut=    50.00 Ry     beta= 0.30
     Davidson diagonalization with overlap
     ethr =  4.35E-09,  avg # of iterations =  1.0

     total cpu time spent up to now is       35.2 secs

     total energy              =    -361.57298817 Ry
     estimated scf accuracy    <       0.00014072 Ry

     iteration # 29     ecut=    50.00 Ry     beta= 0.30
     Davidson diagonalization with overlap
     ethr =  4.35E-09,  avg # of iterations = 12.9

     total cpu time spent up to now is       37.8 secs

     total energy              =    -361.57300595 Ry
     estimated scf accuracy    <       0.00000215 Ry

     iteration # 30     ecut=    50.00 Ry     beta= 0.30
     Davidson diagonalization with overlap
     ethr =  4.35E-09,  avg # of iterations =  2.0

     total cpu time spent up to now is       38.7 secs

     total energy              =    -361.57300544 Ry
     estimated scf accuracy    <       0.00000084 Ry

     iteration # 31     ecut=    50.00 Ry     beta= 0.30
     Davidson diagonalization with overlap
     ethr =  2.34E-09,  avg # of iterations =  7.6

     total cpu time spent up to now is       40.4 secs

     total energy              =    -361.57300583 Ry
     estimated scf accuracy    <       0.00000259 Ry

     iteration # 32     ecut=    50.00 Ry     beta= 0.30
     Davidson diagonalization with overlap
     ethr =  2.34E-09,  avg # of iterations =  5.0

     total cpu time spent up to now is       41.6 secs

     total energy              =    -361.57300615 Ry
     estimated scf accuracy    <       0.00000007 Ry

     iteration # 33     ecut=    50.00 Ry     beta= 0.30
     Davidson diagonalization with overlap
     ethr =  1.98E-10,  avg # of iterations =  6.5

     total cpu time spent up to now is       43.0 secs

     total energy              =    -361.57300620 Ry
     estimated scf accuracy    <       0.00000002 Ry

     iteration # 34     ecut=    50.00 Ry     beta= 0.30
     Davidson diagonalization with overlap
     ethr =  4.30E-11,  avg # of iterations =  3.1

     total cpu time spent up to now is       43.9 secs

     total energy              =    -361.57300619 Ry
     estimated scf accuracy    <       0.00000001 Ry

     iteration # 35     ecut=    50.00 Ry     beta= 0.30
     Davidson diagonalization with overlap
     ethr =  3.00E-11,  avg # of iterations =  6.2

     total cpu time spent up to now is       45.3 secs

     total energy              =    -361.57300620 Ry
     estimated scf accuracy    <       0.00000002 Ry

     iteration # 36     ecut=    50.00 Ry     beta= 0.30
     Davidson diagonalization with overlap
     ethr =  3.00E-11,  avg # of iterations =  4.7

     total cpu time spent up to now is       46.5 secs

     End of self-consistent calculation

          k = 0.0000 0.0000 0.0000 (  2489 PWs)   bands (ev):

   -12.5024 -12.0914  -0.9970  -0.9970  -0.9892  -0.8778  -0.8778  -0.4619
    -0.4619  -0.3568  -0.3428  -0.3428   0.1806   3.2942   3.2942   3.8548
     3.8548   3.8576

          k = 0.0000 0.0000 0.1053 (  2502 PWs)   bands (ev):

   -12.4755 -12.1197  -1.0030  -0.9931  -0.9931  -0.8900  -0.8900  -0.6002
    -0.4509  -0.4509  -0.3472  -0.3472   0.5504   3.2387   3.3329   3.3329
     3.8184   3.8184

          k = 0.0000 0.0000 0.2107 (  2508 PWs)   bands (ev):

   -12.4017 -12.1962  -1.0214  -0.9793  -0.9793  -0.9202  -0.9202  -0.8604
    -0.4227  -0.4227  -0.3624  -0.3624   1.1689   2.5248   3.4376   3.4376
     3.7180   3.7180

          k = 0.0000 0.0000-0.3160 (  2544 PWs)   bands (ev):

   -12.2997 -12.2997  -0.9927  -0.9927  -0.9539  -0.9539  -0.9539  -0.9539
    -0.3898  -0.3898  -0.3898  -0.3898   1.8378   1.8378   3.5789   3.5789
     3.5789   3.5789

          k = 0.0000 0.1925 0.0000 (  2499 PWs)   bands (ev):

   -12.4225 -12.0604  -1.0286  -0.9508  -0.9389  -0.8519  -0.8065  -0.4882
    -0.4641  -0.4611  -0.3363  -0.2232   0.3892   2.5163   2.8056   3.0580
     3.7235   3.7348

          k = 0.0000 0.1925 0.1053 (  2507 PWs)   bands (ev):

   -12.3986 -12.0849  -1.0378  -0.9447  -0.9437  -0.8668  -0.8200  -0.6031
    -0.4692  -0.4507  -0.3426  -0.2959   0.6940   2.4694   2.7621   3.1047
     3.6659   3.6906

          k = 0.0000 0.1925 0.2107 (  2518 PWs)   bands (ev):

   -12.3329 -12.1517  -1.0518  -0.9599  -0.9255  -0.9013  -0.8540  -0.8090
    -0.4298  -0.4238  -0.3613  -0.3414   1.2164   2.1646   2.9037   3.2310
     3.4720   3.5691

          k = 0.0000 0.1925-0.3160 (  2512 PWs)   bands (ev):

   -12.2426 -12.2426  -1.0268  -1.0268  -0.8933  -0.8933  -0.8896  -0.8896
    -0.3905  -0.3905  -0.3834  -0.3834   1.7247   1.7247   3.1829   3.1829
     3.4012   3.4012

          k = 0.0000 0.3849 0.0000 (  2491 PWs)   bands (ev):

   -12.2452 -12.0111  -1.0265  -0.8821  -0.8653  -0.7031  -0.6437  -0.5555
    -0.4502  -0.4183  -0.3259  -0.1948   0.8103   1.3690   1.9465   2.5940
     3.3308   3.4770

          k = 0.0000 0.3849 0.1053 (  2497 PWs)   bands (ev):

   -12.2290 -12.0262  -1.0388  -0.8912  -0.8687  -0.7147  -0.6623  -0.6007
    -0.4516  -0.4131  -0.3340  -0.2345   0.8508   1.4268   2.0289   2.6558
     3.3531   3.4195

          k = 0.0000 0.3849 0.2107 (  2508 PWs)   bands (ev):

   -12.1851 -12.0679  -1.0578  -0.9631  -0.8305  -0.7380  -0.7114  -0.6998
    -0.4094  -0.3984  -0.3536  -0.2938   0.9675   1.3284   2.4401   2.8221
     3.2617   3.2739

          k = 0.0000 0.3849-0.3160 (  2494 PWs)   bands (ev):

   -12.1259 -12.1259  -1.0381  -1.0381  -0.7736  -0.7736  -0.7417  -0.7417
    -0.3770  -0.3770  -0.3514  -0.3514   1.1387   1.1387   2.9432   2.9432
     3.0440   3.0440

          k = 0.0000-0.5774 0.0000 (  2506 PWs)   bands (ev):

   -12.1340 -12.0064  -1.0112  -0.8625  -0.7387  -0.6489  -0.5550  -0.5109
    -0.3713  -0.3685  -0.3195  -0.2804   0.5896   1.1335   1.8180   2.3567
     2.9843   3.3413

          k = 0.0000-0.5774 0.1053 (  2482 PWs)   bands (ev):

   -12.1245 -12.0140  -1.0258  -0.8445  -0.8119  -0.6479  -0.5770  -0.5175
    -0.3670  -0.3567  -0.3276  -0.2796   0.5561   1.0353   2.0481   2.4270
     3.0716   3.2777

          k = 0.0000-0.5774 0.2107 (  2492 PWs)   bands (ev):

   -12.0993 -12.0354  -1.0490  -0.9431  -0.7940  -0.6385  -0.6385  -0.5617
    -0.3629  -0.3432  -0.3211  -0.2821   0.5626   0.8397   2.5287   2.6142
     3.1032   3.1469

          k = 0.0000-0.5774-0.3160 (  2520 PWs)   bands (ev):

   -12.0664 -12.0664  -1.0322  -1.0322  -0.7195  -0.7195  -0.6099  -0.6099
    -0.3554  -0.3554  -0.2945  -0.2945   0.6652   0.6652   2.8617   2.8617
     2.9632   2.9632

          k = 0.1667 0.2887 0.0000 (  2507 PWs)   bands (ev):

   -12.2932 -12.0206  -0.9817  -0.9424  -0.8658  -0.7907  -0.6748  -0.5107
    -0.4870  -0.4418  -0.3290  -0.1935   0.7325   1.8298   1.9942   2.6260
     3.4227   3.4688

          k = 0.1667 0.2887 0.1053 (  2508 PWs)   bands (ev):

   -12.2747 -12.0385  -0.9964  -0.9393  -0.8718  -0.8018  -0.6919  -0.5933
    -0.4850  -0.4246  -0.3363  -0.2418   0.8825   1.7682   2.1448   2.6467
     3.3621   3.4736

          k = 0.1667 0.2887 0.2107 (  2499 PWs)   bands (ev):

   -12.2241 -12.0877  -1.0223  -0.9535  -0.8690  -0.8219  -0.7512  -0.7350
    -0.4279  -0.4046  -0.3541  -0.3016   1.1390   1.5989   2.5423   2.7616
     3.1992   3.3620

          k = 0.1667 0.2887-0.3160 (  2500 PWs)   bands (ev):

   -12.1556 -12.1556  -1.0086  -1.0086  -0.8455  -0.8455  -0.7798  -0.7798
    -0.3850  -0.3850  -0.3569  -0.3569   1.3788   1.3788   2.9320   2.9320
     3.0593   3.0593

          k = 0.1667 0.4811 0.0000 (  2490 PWs)   bands (ev):

   -12.1372 -12.0045  -0.9766  -0.8600  -0.7073  -0.6480  -0.5531  -0.5268
    -0.4419  -0.4111  -0.3081  -0.1951   0.7736   1.1841   1.8153   2.0847
     2.9930   3.0929

          k = 0.1667 0.4811 0.1053 (  2495 PWs)   bands (ev):

   -12.1274 -12.0124  -0.9753  -0.8669  -0.7566  -0.6569  -0.5819  -0.5545
    -0.4398  -0.3892  -0.3080  -0.2052   0.7407   1.1327   1.9210   2.2545
     2.9808   3.1127

          k = 0.1667 0.4811 0.2107 (  2489 PWs)   bands (ev):

   -12.1012 -12.0348  -0.9834  -0.9005  -0.8064  -0.6741  -0.6380  -0.6248
    -0.4051  -0.3767  -0.2965  -0.2325   0.7497   0.9896   2.1589   2.6507
     2.7892   3.1967

          k = 0.1667 0.4811-0.3160 (  2496 PWs)   bands (ev):

   -12.0670 -12.0670  -0.9698  -0.9698  -0.7446  -0.7446  -0.6546  -0.6546
    -0.3820  -0.3820  -0.2675  -0.2675   0.8432   0.8432   2.4607   2.4607
     3.0599   3.0599

          k = 0.3333 0.5774 0.0000 (  2484 PWs)   bands (ev):

   -12.0423 -12.0423  -0.9826  -0.7413  -0.7413  -0.5108  -0.4863  -0.4863
    -0.4172  -0.4162  -0.2498  -0.2498   1.0067   1.0067   1.1801   2.5153
     2.5153   2.7238

          k = 0.3333 0.5774 0.1053 (  2484 PWs)   bands (ev):

   -12.0412 -12.0412  -0.9598  -0.7768  -0.7768  -0.5411  -0.5047  -0.5047
    -0.4405  -0.4205  -0.2285  -0.2285   0.9381   0.9381   1.2974   2.6214
     2.6766   2.6766

          k = 0.3333 0.5774 0.2107 (  2502 PWs)   bands (ev):

   -12.0389 -12.0389  -0.8924  -0.8494  -0.8494  -0.6525  -0.5291  -0.5291
    -0.4497  -0.4296  -0.1964  -0.1964   0.8347   0.8347   1.5948   2.3463
     2.9700   2.9700

          k = 0.3333 0.5774-0.3160 (  2490 PWs)   bands (ev):

   -12.0378 -12.0378  -0.8853  -0.8853  -0.7848  -0.7848  -0.5380  -0.5380
    -0.4410  -0.4410  -0.1833  -0.1833   0.7942   0.7942   1.9747   1.9747
     3.1080   3.1080

     highest occupied level (ev):     3.8576

!    total energy              =    -361.57300620 Ry
     estimated scf accuracy    <          4.2E-11 Ry

     The total energy is the sum of the following terms:
     one-electron contribution =    -181.11775984 Ry
     hartree contribution      =     127.98549806 Ry
     xc contribution           =    -109.11987710 Ry
     ewald contribution        =    -199.32086732 Ry

     convergence has been achieved in  36 iterations

     Forces acting on atoms (cartesian axes, Ry/au):

     atom    1 type  1   force =     0.00000000    0.00000000    0.00049403
     atom    2 type  1   force =    -0.00000000   -0.00000000    0.00049403
     atom    3 type  2   force =     0.00000000   -0.00000000   -0.00049403
     atom    4 type  2   force =     0.00000000    0.00000000   -0.00049403
     The non-local contrib.  to forces
     atom    1 type  1   force =     0.00000000    0.00000000   -0.05561420
     atom    2 type  1   force =     0.00000000    0.00000000   -0.05561420
     atom    3 type  2   force =     0.00000000    0.00000000   -0.04545362
     atom    4 type  2   force =     0.00000000   -0.00000000   -0.04545362
     The ionic contribution  to forces
     atom    1 type  1   force =    -0.00000000    0.00000000   -0.30151887
     atom    2 type  1   force =     0.00000000   -0.00000000   -0.30151887
     atom    3 type  2   force =    -0.00000000    0.00000000    0.30151887
     atom    4 type  2   force =     0.00000000   -0.00000000    0.30151887
     The local contribution  to forces
     atom    1 type  1   force =    -0.00000002    0.00000001    0.35431429
     atom    2 type  1   force =     0.00000007   -0.00000004    0.35431429
     atom    3 type  2   force =    -0.00000001    0.00000000   -0.25694720
     atom    4 type  2   force =     0.00000002   -0.00000001   -0.25694720
     The core correction contribution to forces
     atom    1 type  1   force =    -0.00000000    0.00000000    0.00331277
     atom    2 type  1   force =     0.00000001   -0.00000001    0.00331277
     atom    3 type  2   force =     0.00000000   -0.00000000    0.00038892
     atom    4 type  2   force =    -0.00000000    0.00000000    0.00038892
     The Hubbard contrib.    to forces
     atom    1 type  1   force =     0.00000000    0.00000000    0.00000000
     atom    2 type  1   force =     0.00000000    0.00000000    0.00000000
     atom    3 type  2   force =     0.00000000    0.00000000    0.00000000
     atom    4 type  2   force =     0.00000000    0.00000000    0.00000000
     The SCF correction term to forces
     atom    1 type  1   force =    -0.00000000    0.00000000    0.00000096
     atom    2 type  1   force =     0.00000000   -0.00000000    0.00000096
     atom    3 type  2   force =    -0.00000000    0.00000000   -0.00000008
     atom    4 type  2   force =     0.00000000   -0.00000000   -0.00000008

     Total force =     0.000988     Total SCF correction =     0.000001


     Computing stress (Cartesian axis) and pressure

          total   stress  (Ry/bohr**3)                   (kbar)     P=     -187.89
  -0.00131689  -0.00000000   0.00000000         -193.72       -0.00        0.00
  -0.00000000  -0.00131689   0.00000000           -0.00     -193.72        0.00
  -0.00000000  -0.00000000  -0.00119789           -0.00       -0.00     -176.22


     Writing all to output data dir ./ZnO_ANN.save/

     init_run     :      1.93s CPU      1.34s WALL (       1 calls)
     electrons    :    122.40s CPU     44.81s WALL (       1 calls)
     forces       :      0.72s CPU      0.40s WALL (       1 calls)
     stress       :      2.98s CPU      1.50s WALL (       1 calls)

     Called by init_run:
     wfcinit      :      0.97s CPU      0.37s WALL (       1 calls)
     potinit      :      0.30s CPU      0.30s WALL (       1 calls)
     hinit0       :      0.49s CPU      0.51s WALL (       1 calls)

     Called by electrons:
     c_bands      :     97.48s CPU     35.07s WALL (      36 calls)
     sum_band     :     17.60s CPU      6.76s WALL (      36 calls)
     v_of_rho     :      1.60s CPU      0.72s WALL (      37 calls)
     newd         :      5.35s CPU      2.14s WALL (      37 calls)
     mix_rho      :      0.26s CPU      0.12s WALL (      36 calls)

     Called by c_bands:
     init_us_2    :      1.91s CPU      0.68s WALL (    2100 calls)
     init_us_2:cp :      1.88s CPU      0.67s WALL (    2100 calls)
     cegterg      :     93.22s CPU     33.41s WALL (    1008 calls)

     Called by *egterg:
     cdiaghg      :     16.31s CPU      5.33s WALL (    5550 calls)
     h_psi        :     59.07s CPU     23.79s WALL (    5578 calls)
     s_psi        :      1.74s CPU      0.48s WALL (    5578 calls)
     g_psi        :      0.64s CPU      0.16s WALL (    4542 calls)

     Called by h_psi:
     h_psi:calbec :      2.50s CPU      0.88s WALL (    5578 calls)
     vloc_psi     :     54.13s CPU     22.15s WALL (    5578 calls)
     add_vuspsi   :      1.75s CPU      0.55s WALL (    5578 calls)

     General routines
     calbec       :      3.17s CPU      1.11s WALL (    6726 calls)
     fft          :      1.15s CPU      0.64s WALL (     504 calls)
     ffts         :      0.18s CPU      0.15s WALL (      73 calls)
     fftw         :     52.01s CPU     21.37s WALL (  141528 calls)
     interpolate  :      0.24s CPU      0.18s WALL (      37 calls)

     Parallel routines

     PWSCF        :   2m 8.58s CPU     48.54s WALL


   This run was terminated on:  19:42:31  13Jun2025            

=------------------------------------------------------------------------------=
   JOB DONE.
=------------------------------------------------------------------------------=
Note: The following floating-point exceptions are signalling: IEEE_INVALID_FLAG
