Authorization required, but no authorization protocol specified

Authorization required, but no authorization protocol specified

Authorization required, but no authorization protocol specified

Authorization required, but no authorization protocol specified

Authorization required, but no authorization protocol specified

Authorization required, but no authorization protocol specified

Authorization required, but no authorization protocol specified

Authorization required, but no authorization protocol specified

Authorization required, but no authorization protocol specified

Authorization required, but no authorization protocol specified


     Program PWSCF v.7.2 starts on 13Jun2025 at 17: 2:11 

     This program is part of the open-source Quantum ESPRESSO suite
     for quantum simulation of materials; please cite
         "P. Giannozzi et al., J. Phys.:Condens. Matter 21 395502 (2009);
         "P. Giannozzi et al., J. Phys.:Condens. Matter 29 465901 (2017);
         "P. Giannozzi et al., J. Chem. Phys. 152 154105 (2020);
          URL http://www.quantum-espresso.org", 
     in publications or presentations arising from this work. More details at
     http://www.quantum-espresso.org/quote

     Parallel version (MPI), running on     8 processors

     MPI processes distributed on     1 nodes
     120716 MiB available memory on the printing compute node when the environment starts

     Reading input from /home/jvc/QEspresso7.2/ZnO_database_python/SCFs.in/scf-6.12-1.68.in

     Current dimensions of program PWSCF are:
     Max number of different atomic species (ntypx) = 10
     Max number of k-points (npk) =  40000
     Max angular momentum in pseudopotentials (lmaxx) =  4
     file Zn.upf: wavefunction(s)  3D renormalized

     R & G space division:  proc/nbgrp/npool/nimage =       8
     Subspace diagonalization in iterative solution of the eigenvalue problem:
     a serial algorithm will be used


     Parallelization info
     --------------------
     sticks:   dense  smooth     PW     G-vecs:    dense   smooth      PW
     Min         129      63     20                 5607     1977     336
     Max         130      64     22                 5612     1984     339
     Sum        1039     511    163                44879    15857    2695

     Using Slab Decomposition



     bravais-lattice index     =            4
     lattice parameter (alat)  =       6.1170  a.u.
     unit-cell volume          =     332.8024 (a.u.)^3
     number of atoms/cell      =            4
     number of atomic types    =            2
     number of electrons       =        36.00
     number of Kohn-Sham states=           18
     kinetic-energy cutoff     =      50.0000  Ry
     charge density cutoff     =     400.0000  Ry
     scf convergence threshold =      1.0E-08
     mixing beta               =       0.3000
     number of iterations used =            8  plain     mixing
     Exchange-correlation= PBE
                           (   1   4   3   4   0   0   0)

     celldm(1)=   6.117033  celldm(2)=   0.000000  celldm(3)=   1.678933
     celldm(4)=   0.000000  celldm(5)=   0.000000  celldm(6)=   0.000000

     crystal axes: (cart. coord. in units of alat)
               a(1) = (   1.000000   0.000000   0.000000 )  
               a(2) = (  -0.500000   0.866025   0.000000 )  
               a(3) = (   0.000000   0.000000   1.678933 )  

     reciprocal axes: (cart. coord. in units 2 pi/alat)
               b(1) = (  1.000000  0.577350 -0.000000 )  
               b(2) = (  0.000000  1.154701  0.000000 )  
               b(3) = (  0.000000 -0.000000  0.595616 )  


     PseudoPot. # 1 for Zn read from file:
     /home/jvc/QEspresso7.2/ZnO_database/pseudos/Zn.upf
     MD5 check sum: 7f56cabf9682ed8c977c2f7d0c5985c5
     Pseudo is Ultrasoft + core correction, Zval = 12.0
     Generated using &quot;atomic&quot; code by A. Dal Corso  v.6.2.2
     Using radial grid of 1201 points,  6 beta functions with: 
                l(1) =   0
                l(2) =   0
                l(3) =   1
                l(4) =   1
                l(5) =   2
                l(6) =   2
     Q(r) pseudized with 0 coefficients 


     PseudoPot. # 2 for O  read from file:
     /home/jvc/QEspresso7.2/ZnO_database/pseudos/O.upf
     MD5 check sum: 91400c9766925bcf19f520983a725ff0
     Pseudo is Ultrasoft + core correction, Zval =  6.0
     Generated using &quot;atomic&quot; code by A. Dal Corso  v.6.3MaX
     Using radial grid of 1095 points,  4 beta functions with: 
                l(1) =   0
                l(2) =   0
                l(3) =   1
                l(4) =   1
     Q(r) pseudized with 0 coefficients 


     atomic species   valence    mass     pseudopotential
        Zn            12.00    63.38000     Zn( 1.00)
        O              6.00    15.99900     O ( 1.00)

     12 Sym. Ops. (no inversion) found ( 6 have fractional translation)



   Cartesian axes

     site n.     atom                  positions (alat units)
         1           Zn  tau(   1) = (   0.5000000   0.2886751   0.8405301  )
         2           Zn  tau(   2) = (  -0.0000000   0.5773503   0.0010637  )
         3           O   tau(   3) = (   0.5000000   0.2886751   1.4769175  )
         4           O   tau(   4) = (  -0.0000000   0.5773503   0.6374511  )

     number of k points=    28
                       cart. coord. in units 2pi/alat
        k(    1) = (   0.0000000   0.0000000   0.0000000), wk =   0.0092593
        k(    2) = (   0.0000000   0.0000000   0.0992694), wk =   0.0185185
        k(    3) = (   0.0000000   0.0000000   0.1985388), wk =   0.0185185
        k(    4) = (   0.0000000   0.0000000  -0.2978082), wk =   0.0092593
        k(    5) = (   0.0000000   0.1924501   0.0000000), wk =   0.0555556
        k(    6) = (   0.0000000   0.1924501   0.0992694), wk =   0.1111111
        k(    7) = (   0.0000000   0.1924501   0.1985388), wk =   0.1111111
        k(    8) = (   0.0000000   0.1924501  -0.2978082), wk =   0.0555556
        k(    9) = (   0.0000000   0.3849002   0.0000000), wk =   0.0555556
        k(   10) = (   0.0000000   0.3849002   0.0992694), wk =   0.1111111
        k(   11) = (   0.0000000   0.3849002   0.1985388), wk =   0.1111111
        k(   12) = (   0.0000000   0.3849002  -0.2978082), wk =   0.0555556
        k(   13) = (   0.0000000  -0.5773503   0.0000000), wk =   0.0277778
        k(   14) = (   0.0000000  -0.5773503   0.0992694), wk =   0.0555556
        k(   15) = (   0.0000000  -0.5773503   0.1985388), wk =   0.0555556
        k(   16) = (   0.0000000  -0.5773503  -0.2978082), wk =   0.0277778
        k(   17) = (   0.1666667   0.2886751   0.0000000), wk =   0.0555556
        k(   18) = (   0.1666667   0.2886751   0.0992694), wk =   0.1111111
        k(   19) = (   0.1666667   0.2886751   0.1985388), wk =   0.1111111
        k(   20) = (   0.1666667   0.2886751  -0.2978082), wk =   0.0555556
        k(   21) = (   0.1666667   0.4811252   0.0000000), wk =   0.1111111
        k(   22) = (   0.1666667   0.4811252   0.0992694), wk =   0.2222222
        k(   23) = (   0.1666667   0.4811252   0.1985388), wk =   0.2222222
        k(   24) = (   0.1666667   0.4811252  -0.2978082), wk =   0.1111111
        k(   25) = (   0.3333333   0.5773503   0.0000000), wk =   0.0185185
        k(   26) = (   0.3333333   0.5773503   0.0992694), wk =   0.0370370
        k(   27) = (   0.3333333   0.5773503   0.1985388), wk =   0.0370370
        k(   28) = (   0.3333333   0.5773503  -0.2978082), wk =   0.0185185

     Dense  grid:    44879 G-vectors     FFT dimensions: (  40,  40,  72)

     Smooth grid:    15857 G-vectors     FFT dimensions: (  27,  27,  48)

     Estimated max dynamical RAM per process >      26.05 MB

     Estimated total dynamical RAM >     208.43 MB

     Check: negative core charge=   -0.000002

     Initial potential from superposition of free atoms

     starting charge      35.9925, renormalised to      36.0000
     Starting wfcs are   26 randomized atomic wfcs

     total cpu time spent up to now is        1.6 secs

     Self-consistent Calculation

     iteration #  1     ecut=    50.00 Ry     beta= 0.30
     Davidson diagonalization with overlap
     ethr =  1.00E-02,  avg # of iterations =  1.8

     total cpu time spent up to now is        2.4 secs

     total energy              =    -361.47693639 Ry
     estimated scf accuracy    <       0.69531118 Ry

     iteration #  2     ecut=    50.00 Ry     beta= 0.30
     Davidson diagonalization with overlap
     ethr =  1.93E-03,  avg # of iterations =  2.0

     total cpu time spent up to now is        3.4 secs

     total energy              =    -361.57731514 Ry
     estimated scf accuracy    <       0.08756101 Ry

     iteration #  3     ecut=    50.00 Ry     beta= 0.30
     Davidson diagonalization with overlap
     ethr =  2.43E-04,  avg # of iterations =  6.0

     total cpu time spent up to now is        5.0 secs

     total energy              =    -361.60774067 Ry
     estimated scf accuracy    <       0.05885704 Ry

     iteration #  4     ecut=    50.00 Ry     beta= 0.30
     Davidson diagonalization with overlap
     ethr =  1.63E-04,  avg # of iterations =  8.3

     total cpu time spent up to now is        7.0 secs

     total energy              =    -361.64675221 Ry
     estimated scf accuracy    <       0.24662647 Ry

     iteration #  5     ecut=    50.00 Ry     beta= 0.30
     Davidson diagonalization with overlap
     ethr =  1.63E-04,  avg # of iterations =  2.0

     total cpu time spent up to now is        7.9 secs

     total energy              =    -361.53277709 Ry
     estimated scf accuracy    <       0.14226496 Ry

     iteration #  6     ecut=    50.00 Ry     beta= 0.30
     Davidson diagonalization with overlap
     ethr =  1.63E-04,  avg # of iterations = 10.4

     total cpu time spent up to now is       10.1 secs

     total energy              =    -361.53877095 Ry
     estimated scf accuracy    <       1.07303534 Ry

     iteration #  7     ecut=    50.00 Ry     beta= 0.30
     Davidson diagonalization with overlap
     ethr =  1.63E-04,  avg # of iterations =  8.2

     total cpu time spent up to now is       12.1 secs

     total energy              =    -361.63389106 Ry
     estimated scf accuracy    <       0.07235162 Ry

     iteration #  8     ecut=    50.00 Ry     beta= 0.30
     Davidson diagonalization with overlap
     ethr =  1.63E-04,  avg # of iterations =  1.6

     total cpu time spent up to now is       12.9 secs

     total energy              =    -361.63015154 Ry
     estimated scf accuracy    <       0.04224037 Ry

     iteration #  9     ecut=    50.00 Ry     beta= 0.30
     Davidson diagonalization with overlap
     ethr =  1.17E-04,  avg # of iterations =  2.0

     total cpu time spent up to now is       13.8 secs

     total energy              =    -361.62486319 Ry
     estimated scf accuracy    <       0.01986255 Ry

     iteration # 10     ecut=    50.00 Ry     beta= 0.30
     Davidson diagonalization with overlap
     ethr =  5.52E-05,  avg # of iterations =  5.6

     total cpu time spent up to now is       15.1 secs

     total energy              =    -361.63426822 Ry
     estimated scf accuracy    <       0.00087936 Ry

     iteration # 11     ecut=    50.00 Ry     beta= 0.30
     Davidson diagonalization with overlap
     ethr =  2.44E-06,  avg # of iterations =  5.9

     total cpu time spent up to now is       16.5 secs

     total energy              =    -361.63475445 Ry
     estimated scf accuracy    <       0.00110939 Ry

     iteration # 12     ecut=    50.00 Ry     beta= 0.30
     Davidson diagonalization with overlap
     ethr =  2.44E-06,  avg # of iterations =  1.2

     total cpu time spent up to now is       17.3 secs

     total energy              =    -361.63443748 Ry
     estimated scf accuracy    <       0.00065046 Ry

     iteration # 13     ecut=    50.00 Ry     beta= 0.30
     Davidson diagonalization with overlap
     ethr =  1.81E-06,  avg # of iterations =  5.8

     total cpu time spent up to now is       18.6 secs

     total energy              =    -361.63467484 Ry
     estimated scf accuracy    <       0.00008916 Ry

     iteration # 14     ecut=    50.00 Ry     beta= 0.30
     Davidson diagonalization with overlap
     ethr =  2.48E-07,  avg # of iterations =  6.3

     total cpu time spent up to now is       20.2 secs

     total energy              =    -361.63471229 Ry
     estimated scf accuracy    <       0.00011557 Ry

     iteration # 15     ecut=    50.00 Ry     beta= 0.30
     Davidson diagonalization with overlap
     ethr =  2.48E-07,  avg # of iterations =  2.0

     total cpu time spent up to now is       21.0 secs

     total energy              =    -361.63470449 Ry
     estimated scf accuracy    <       0.00003284 Ry

     iteration # 16     ecut=    50.00 Ry     beta= 0.30
     Davidson diagonalization with overlap
     ethr =  9.12E-08,  avg # of iterations =  6.1

     total cpu time spent up to now is       22.5 secs

     total energy              =    -361.63472752 Ry
     estimated scf accuracy    <       0.00001169 Ry

     iteration # 17     ecut=    50.00 Ry     beta= 0.30
     Davidson diagonalization with overlap
     ethr =  3.25E-08,  avg # of iterations =  1.7

     total cpu time spent up to now is       23.3 secs

     total energy              =    -361.63472411 Ry
     estimated scf accuracy    <       0.00000619 Ry

     iteration # 18     ecut=    50.00 Ry     beta= 0.30
     Davidson diagonalization with overlap
     ethr =  1.72E-08,  avg # of iterations =  5.8

     total cpu time spent up to now is       24.8 secs

     total energy              =    -361.63473425 Ry
     estimated scf accuracy    <       0.00000458 Ry

     iteration # 19     ecut=    50.00 Ry     beta= 0.30
     Davidson diagonalization with overlap
     ethr =  1.27E-08,  avg # of iterations =  6.4

     total cpu time spent up to now is       26.4 secs

     total energy              =    -361.63473507 Ry
     estimated scf accuracy    <       0.00003948 Ry

     iteration # 20     ecut=    50.00 Ry     beta= 0.30
     Davidson diagonalization with overlap
     ethr =  1.27E-08,  avg # of iterations =  1.1

     total cpu time spent up to now is       27.2 secs

     total energy              =    -361.63472836 Ry
     estimated scf accuracy    <       0.00003284 Ry

     iteration # 21     ecut=    50.00 Ry     beta= 0.30
     Davidson diagonalization with overlap
     ethr =  1.27E-08,  avg # of iterations =  3.8

     total cpu time spent up to now is       28.3 secs

     total energy              =    -361.63472847 Ry
     estimated scf accuracy    <       0.00001490 Ry

     iteration # 22     ecut=    50.00 Ry     beta= 0.30
     Davidson diagonalization with overlap
     ethr =  1.27E-08,  avg # of iterations =  1.8

     total cpu time spent up to now is       29.1 secs

     total energy              =    -361.63472476 Ry
     estimated scf accuracy    <       0.00001150 Ry

     iteration # 23     ecut=    50.00 Ry     beta= 0.30
     Davidson diagonalization with overlap
     ethr =  1.27E-08,  avg # of iterations =  5.1

     total cpu time spent up to now is       30.5 secs

     total energy              =    -361.63472774 Ry
     estimated scf accuracy    <       0.00000007 Ry

     iteration # 24     ecut=    50.00 Ry     beta= 0.30
     Davidson diagonalization with overlap
     ethr =  1.86E-10,  avg # of iterations =  9.2

     total cpu time spent up to now is       32.7 secs

     total energy              =    -361.63472711 Ry
     estimated scf accuracy    <       0.00000192 Ry

     iteration # 25     ecut=    50.00 Ry     beta= 0.30
     Davidson diagonalization with overlap
     ethr =  1.86E-10,  avg # of iterations = 10.2

     total cpu time spent up to now is       35.1 secs

     total energy              =    -361.63472752 Ry
     estimated scf accuracy    <       0.00000003 Ry

     iteration # 26     ecut=    50.00 Ry     beta= 0.30
     Davidson diagonalization with overlap
     ethr =  7.15E-11,  avg # of iterations =  3.1

     total cpu time spent up to now is       36.1 secs

     End of self-consistent calculation

          k = 0.0000 0.0000 0.0000 (  1979 PWs)   bands (ev):

   -11.0673 -10.4586   1.1966   1.1966   1.2541   1.2880   1.3592   1.3592
     2.3192   2.3192   2.4874   2.4874   2.7983   6.1318   6.1318   6.6129
     6.7953   6.7953

          k = 0.0000 0.0000 0.0993 (  1985 PWs)   bands (ev):

   -11.0287 -10.5016   1.1998   1.2037   1.2037   1.2156   1.3441   1.3441
     2.3335   2.3335   2.4795   2.4795   3.0665   6.0473   6.1768   6.1768
     6.7515   6.7515

          k = 0.0000 0.0000 0.1985 (  1955 PWs)   bands (ev):

   -10.9215 -10.6174   1.0840   1.1301   1.2259   1.2259   1.3065   1.3065
     2.3714   2.3714   2.4557   2.4557   3.6864   5.2455   6.2994   6.2994
     6.6313   6.6313

          k = 0.0000 0.0000-0.2978 (  1932 PWs)   bands (ev):

   -10.7716 -10.7716   1.0646   1.0646   1.2623   1.2623   1.2623   1.2623
     2.4171   2.4171   2.4171   2.4171   4.4457   4.4457   6.4660   6.4660
     6.4660   6.4660

          k = 0.0000 0.1925 0.0000 (  1982 PWs)   bands (ev):

   -10.9250 -10.3874   1.0600   1.2793   1.2995   1.3823   1.4773   1.5145
     2.2603   2.3167   2.4959   2.6091   2.7670   5.1914   5.6712   5.8012
     6.4570   6.5997

          k = 0.0000 0.1925 0.0993 (  1980 PWs)   bands (ev):

   -10.8902 -10.4247   1.0388   1.2227   1.2890   1.3559   1.4599   1.4637
     2.2849   2.3308   2.4859   2.5368   3.1173   5.2180   5.5360   5.8560
     6.3654   6.5473

          k = 0.0000 0.1925 0.1985 (  1980 PWs)   bands (ev):

   -10.7945 -10.5257   0.9922   1.0616   1.3175   1.3456   1.4096   1.4155
     2.3438   2.3675   2.4572   2.4788   3.7578   4.9871   5.5275   6.0046
     6.1111   6.4034

          k = 0.0000 0.1925-0.2978 (  1976 PWs)   bands (ev):

   -10.6614 -10.6614   0.9802   0.9802   1.3626   1.3626   1.3673   1.3673
     2.4141   2.4141   2.4143   2.4143   4.4288   4.4288   5.7902   5.7902
     6.2051   6.2051

          k = 0.0000 0.3849 0.0000 (  1994 PWs)   bands (ev):

   -10.6081 -10.2609   0.9241   1.2470   1.4152   1.6437   1.7555   1.9121
     2.2187   2.3859   2.5159   2.7058   2.9726   3.6765   4.5310   5.1206
     5.9504   6.1772

          k = 0.0000 0.3849 0.0993 (  1990 PWs)   bands (ev):

   -10.5845 -10.2836   0.9031   1.1720   1.4339   1.6243   1.7277   1.8003
     2.2553   2.3936   2.5051   2.6298   3.2311   3.7902   4.5107   5.1964
     5.9378   6.1094

          k = 0.0000 0.3849 0.1985 (  1988 PWs)   bands (ev):

   -10.5201 -10.3462   0.8688   1.0066   1.4874   1.5998   1.6559   1.6760
     2.3428   2.4149   2.4782   2.5417   3.5324   3.9038   4.7454   5.3980
     5.7667   5.9229

          k = 0.0000 0.3849-0.2978 (  2002 PWs)   bands (ev):

   -10.4327 -10.4327   0.8886   0.8886   1.5669   1.5669   1.6140   1.6140
     2.4446   2.4446   2.4452   2.4452   3.7574   3.7574   5.3149   5.3149
     5.6640   5.6640

          k = 0.0000-0.5774 0.0000 (  1970 PWs)   bands (ev):

   -10.4115 -10.2268   1.0101   1.1807   1.4608   1.8469   1.9207   1.9273
     2.3512   2.4766   2.5378   2.6157   3.0277   3.2579   4.0603   4.7451
     5.4978   5.9475

          k = 0.0000-0.5774 0.0993 (  1992 PWs)   bands (ev):

   -10.3979 -10.2378   0.9749   1.1064   1.4853   1.8339   1.8823   1.8835
     2.4063   2.4783   2.5286   2.6142   3.0021   3.2108   4.3053   4.8351
     5.5594   5.8720

          k = 0.0000-0.5774 0.1985 (  2010 PWs)   bands (ev):

   -10.3615 -10.2690   0.9071   0.9659   1.5565   1.7839   1.8118   1.8282
     2.4842   2.4981   2.5103   2.6029   2.9896   3.1141   4.8369   5.0701
     5.5852   5.6641

          k = 0.0000-0.5774-0.2978 (  2012 PWs)   bands (ev):

   -10.3139 -10.3139   0.8870   0.8870   1.6634   1.6634   1.8054   1.8054
     2.4946   2.4946   2.5676   2.5676   3.0297   3.0297   5.3404   5.3404
     5.3735   5.3735

          k = 0.1667 0.2887 0.0000 (  1985 PWs)   bands (ev):

   -10.6940 -10.2888   1.0309   1.2208   1.4265   1.4577   1.7012   1.8312
     2.2070   2.3362   2.5079   2.7184   2.8998   4.3566   4.5544   5.1847
     6.1260   6.1448

          k = 0.1667 0.2887 0.0993 (  1987 PWs)   bands (ev):

   -10.6669 -10.3159   1.0041   1.1782   1.4202   1.4362   1.6791   1.7072
     2.2437   2.3614   2.4974   2.6213   3.2475   4.4686   4.5142   5.2026
     6.0543   6.1043

          k = 0.1667 0.2887 0.1985 (  1973 PWs)   bands (ev):

   -10.5929 -10.3901   0.9539   1.0474   1.4175   1.4221   1.5964   1.6261
     2.3317   2.3961   2.4709   2.5340   3.7394   4.3594   4.8308   5.3266
     5.8621   5.8857

          k = 0.1667 0.2887-0.2978 (  1974 PWs)   bands (ev):

   -10.4915 -10.4915   0.9519   0.9519   1.4242   1.4242   1.5803   1.5803
     2.4227   2.4227   2.4477   2.4477   4.1026   4.1026   5.3463   5.3463
     5.6354   5.6354

          k = 0.1667 0.4811 0.0000 (  1991 PWs)   bands (ev):

   -10.4189 -10.2234   1.1041   1.3414   1.4738   1.7281   1.9159   1.9752
     2.2745   2.3635   2.5561   2.7641   2.9562   3.5485   4.0402   4.3561
     5.4693   5.6620

          k = 0.1667 0.4811 0.0993 (  1990 PWs)   bands (ev):

   -10.4046 -10.2352   1.0828   1.2738   1.4678   1.7085   1.8766   1.8886
     2.2918   2.4185   2.5548   2.7478   2.9972   3.5535   4.1568   4.5122
     5.4433   5.6556

          k = 0.1667 0.4811 0.1985 (  1995 PWs)   bands (ev):

   -10.3663 -10.2684   1.0339   1.1273   1.4900   1.6550   1.7875   1.8084
     2.3697   2.4476   2.5639   2.6802   3.1306   3.4534   4.4706   4.9046
     5.2568   5.6525

          k = 0.1667 0.4811-0.2978 (  1986 PWs)   bands (ev):

   -10.3161 -10.3161   1.0302   1.0302   1.5660   1.5660   1.7692   1.7692
     2.4319   2.4319   2.6064   2.6064   3.2951   3.2951   4.8278   4.8278
     5.4410   5.4410

          k = 0.3333 0.5774 0.0000 (  1995 PWs)   bands (ev):

   -10.2649 -10.2649   1.1653   1.6155   1.6155   1.8230   2.1899   2.1899
     2.2405   2.3500   2.3945   2.3945   3.2495   3.2598   3.2598   4.9232
     4.9232   5.0231

          k = 0.3333 0.5774 0.0993 (  2001 PWs)   bands (ev):

   -10.2633 -10.2633   1.1917   1.5371   1.5371   1.7393   2.0850   2.0850
     2.2548   2.3444   2.5447   2.5447   3.2182   3.2182   3.3892   4.9048
     5.0645   5.0645

          k = 0.3333 0.5774 0.1985 (  1992 PWs)   bands (ev):

   -10.2600 -10.2600   1.2712   1.3858   1.3858   1.5682   2.0117   2.0117
     2.2802   2.3286   2.7194   2.7194   3.1337   3.1337   3.7340   4.5894
     5.3385   5.3385

          k = 0.3333 0.5774-0.2978 (  1956 PWs)   bands (ev):

   -10.2584 -10.2584   1.3156   1.3156   1.4006   1.4006   1.9929   1.9929
     2.3063   2.3063   2.7987   2.7987   3.0829   3.0829   4.1668   4.1668
     5.4730   5.4730

     highest occupied level (ev):     6.7953

!    total energy              =    -361.63472753 Ry
     estimated scf accuracy    <          3.2E-09 Ry

     The total energy is the sum of the following terms:
     one-electron contribution =    -155.60254562 Ry
     hartree contribution      =     118.67028587 Ry
     xc contribution           =    -109.52836904 Ry
     ewald contribution        =    -215.17409875 Ry

     convergence has been achieved in  26 iterations

     Forces acting on atoms (cartesian axes, Ry/au):

     atom    1 type  1   force =     0.00000000    0.00000000    0.00957684
     atom    2 type  1   force =     0.00000000    0.00000000    0.00957684
     atom    3 type  2   force =     0.00000000    0.00000000   -0.00957684
     atom    4 type  2   force =     0.00000000    0.00000000   -0.00957684
     The non-local contrib.  to forces
     atom    1 type  1   force =     0.00000000    0.00000000    0.10482818
     atom    2 type  1   force =     0.00000000   -0.00000000    0.10482818
     atom    3 type  2   force =     0.00000000   -0.00000000    0.10261227
     atom    4 type  2   force =    -0.00000000    0.00000000    0.10261227
     The ionic contribution  to forces
     atom    1 type  1   force =    -0.00000000    0.00000000    0.86735070
     atom    2 type  1   force =     0.00000000   -0.00000000    0.86735070
     atom    3 type  2   force =    -0.00000000    0.00000000   -0.86735070
     atom    4 type  2   force =     0.00000000   -0.00000000   -0.86735070
     The local contribution  to forces
     atom    1 type  1   force =    -0.00000002    0.00000001   -0.95516091
     atom    2 type  1   force =     0.00000006   -0.00000004   -0.95516090
     atom    3 type  2   force =    -0.00000001    0.00000000    0.75599443
     atom    4 type  2   force =     0.00000002   -0.00000001    0.75599442
     The core correction contribution to forces
     atom    1 type  1   force =    -0.00000000    0.00000000   -0.00743537
     atom    2 type  1   force =     0.00000001   -0.00000000   -0.00743537
     atom    3 type  2   force =     0.00000000   -0.00000000   -0.00083945
     atom    4 type  2   force =    -0.00000000    0.00000000   -0.00083945
     The Hubbard contrib.    to forces
     atom    1 type  1   force =     0.00000000    0.00000000    0.00000000
     atom    2 type  1   force =     0.00000000    0.00000000    0.00000000
     atom    3 type  2   force =     0.00000000    0.00000000    0.00000000
     atom    4 type  2   force =     0.00000000    0.00000000    0.00000000
     The SCF correction term to forces
     atom    1 type  1   force =    -0.00000000    0.00000000   -0.00000370
     atom    2 type  1   force =     0.00000000   -0.00000000   -0.00000370
     atom    3 type  2   force =    -0.00000000    0.00000000    0.00000867
     atom    4 type  2   force =     0.00000000   -0.00000000    0.00000867

     Total force =     0.019154     Total SCF correction =     0.000013


     Computing stress (Cartesian axis) and pressure

          total   stress  (Ry/bohr**3)                   (kbar)     P=       -9.79
   0.00010638   0.00000000  -0.00000000           15.65        0.00       -0.00
   0.00000000   0.00010638  -0.00000000            0.00       15.65       -0.00
  -0.00000000  -0.00000000  -0.00041234           -0.00       -0.00      -60.66


     Writing all to output data dir ./ZnO_ANN.save/

     init_run     :      1.86s CPU      1.26s WALL (       1 calls)
     electrons    :     91.71s CPU     34.51s WALL (       1 calls)
     forces       :      0.65s CPU      0.31s WALL (       1 calls)
     stress       :      2.31s CPU      1.14s WALL (       1 calls)

     Called by init_run:
     wfcinit      :      0.99s CPU      0.39s WALL (       1 calls)
     potinit      :      0.23s CPU      0.23s WALL (       1 calls)
     hinit0       :      0.51s CPU      0.52s WALL (       1 calls)

     Called by electrons:
     c_bands      :     75.69s CPU     28.19s WALL (      26 calls)
     sum_band     :     11.78s CPU      4.60s WALL (      26 calls)
     v_of_rho     :      0.93s CPU      0.42s WALL (      27 calls)
     newd         :      3.09s CPU      1.25s WALL (      27 calls)
     mix_rho      :      0.16s CPU      0.07s WALL (      26 calls)

     Called by c_bands:
     init_us_2    :      1.09s CPU      0.39s WALL (    1540 calls)
     init_us_2:cp :      1.07s CPU      0.38s WALL (    1540 calls)
     cegterg      :     73.35s CPU     27.27s WALL (     728 calls)

     Called by *egterg:
     cdiaghg      :     12.05s CPU      4.03s WALL (    4182 calls)
     h_psi        :     49.91s CPU     20.39s WALL (    4210 calls)
     s_psi        :      1.15s CPU      0.34s WALL (    4210 calls)
     g_psi        :      0.39s CPU      0.10s WALL (    3454 calls)

     Called by h_psi:
     h_psi:calbec :      1.75s CPU      0.64s WALL (    4210 calls)
     vloc_psi     :     46.58s CPU     19.24s WALL (    4210 calls)
     add_vuspsi   :      1.15s CPU      0.38s WALL (    4210 calls)

     General routines
     calbec       :      2.26s CPU      0.81s WALL (    5078 calls)
     fft          :      0.80s CPU      0.50s WALL (     374 calls)
     ffts         :      0.13s CPU      0.11s WALL (      53 calls)
     fftw         :     46.77s CPU     19.34s WALL (  109574 calls)
     interpolate  :      0.15s CPU      0.12s WALL (      27 calls)

     Parallel routines

     PWSCF        :   1m37.06s CPU     37.70s WALL


   This run was terminated on:  17: 2:49  13Jun2025            

=------------------------------------------------------------------------------=
   JOB DONE.
=------------------------------------------------------------------------------=
Note: The following floating-point exceptions are signalling: IEEE_INVALID_FLAG
