Authorization required, but no authorization protocol specified

Authorization required, but no authorization protocol specified

Authorization required, but no authorization protocol specified

Authorization required, but no authorization protocol specified

Authorization required, but no authorization protocol specified

Authorization required, but no authorization protocol specified

Authorization required, but no authorization protocol specified

Authorization required, but no authorization protocol specified

Authorization required, but no authorization protocol specified

Authorization required, but no authorization protocol specified


     Program PWSCF v.7.2 starts on 13Jun2025 at 16:41:38 

     This program is part of the open-source Quantum ESPRESSO suite
     for quantum simulation of materials; please cite
         "P. Giannozzi et al., J. Phys.:Condens. Matter 21 395502 (2009);
         "P. Giannozzi et al., J. Phys.:Condens. Matter 29 465901 (2017);
         "P. Giannozzi et al., J. Chem. Phys. 152 154105 (2020);
          URL http://www.quantum-espresso.org", 
     in publications or presentations arising from this work. More details at
     http://www.quantum-espresso.org/quote

     Parallel version (MPI), running on     8 processors

     MPI processes distributed on     1 nodes
     120703 MiB available memory on the printing compute node when the environment starts

     Reading input from /home/jvc/QEspresso7.2/ZnO_database_python/SCFs.in/scf-6.06-1.55.in

     Current dimensions of program PWSCF are:
     Max number of different atomic species (ntypx) = 10
     Max number of k-points (npk) =  40000
     Max angular momentum in pseudopotentials (lmaxx) =  4
     file Zn.upf: wavefunction(s)  3D renormalized

     R & G space division:  proc/nbgrp/npool/nimage =       8
     Subspace diagonalization in iterative solution of the eigenvalue problem:
     a serial algorithm will be used


     Parallelization info
     --------------------
     sticks:   dense  smooth     PW     G-vecs:    dense   smooth      PW
     Min         126      63     18                 5034     1786     298
     Max         127      65     19                 5039     1787     303
     Sum        1015     511    151                40289    14293    2417

     Using Slab Decomposition



     bravais-lattice index     =            4
     lattice parameter (alat)  =       6.0552  a.u.
     unit-cell volume          =     297.9868 (a.u.)^3
     number of atoms/cell      =            4
     number of atomic types    =            2
     number of electrons       =        36.00
     number of Kohn-Sham states=           18
     kinetic-energy cutoff     =      50.0000  Ry
     charge density cutoff     =     400.0000  Ry
     scf convergence threshold =      1.0E-08
     mixing beta               =       0.3000
     number of iterations used =            8  plain     mixing
     Exchange-correlation= PBE
                           (   1   4   3   4   0   0   0)

     celldm(1)=   6.055245  celldm(2)=   0.000000  celldm(3)=   1.549784
     celldm(4)=   0.000000  celldm(5)=   0.000000  celldm(6)=   0.000000

     crystal axes: (cart. coord. in units of alat)
               a(1) = (   1.000000   0.000000   0.000000 )  
               a(2) = (  -0.500000   0.866025   0.000000 )  
               a(3) = (   0.000000   0.000000   1.549784 )  

     reciprocal axes: (cart. coord. in units 2 pi/alat)
               b(1) = (  1.000000  0.577350 -0.000000 )  
               b(2) = (  0.000000  1.154701  0.000000 )  
               b(3) = (  0.000000 -0.000000  0.645251 )  


     PseudoPot. # 1 for Zn read from file:
     /home/jvc/QEspresso7.2/ZnO_database/pseudos/Zn.upf
     MD5 check sum: 7f56cabf9682ed8c977c2f7d0c5985c5
     Pseudo is Ultrasoft + core correction, Zval = 12.0
     Generated using &quot;atomic&quot; code by A. Dal Corso  v.6.2.2
     Using radial grid of 1201 points,  6 beta functions with: 
                l(1) =   0
                l(2) =   0
                l(3) =   1
                l(4) =   1
                l(5) =   2
                l(6) =   2
     Q(r) pseudized with 0 coefficients 


     PseudoPot. # 2 for O  read from file:
     /home/jvc/QEspresso7.2/ZnO_database/pseudos/O.upf
     MD5 check sum: 91400c9766925bcf19f520983a725ff0
     Pseudo is Ultrasoft + core correction, Zval =  6.0
     Generated using &quot;atomic&quot; code by A. Dal Corso  v.6.3MaX
     Using radial grid of 1095 points,  4 beta functions with: 
                l(1) =   0
                l(2) =   0
                l(3) =   1
                l(4) =   1
     Q(r) pseudized with 0 coefficients 


     atomic species   valence    mass     pseudopotential
        Zn            12.00    63.38000     Zn( 1.00)
        O              6.00    15.99900     O ( 1.00)

     12 Sym. Ops. (no inversion) found ( 6 have fractional translation)



   Cartesian axes

     site n.     atom                  positions (alat units)
         1           Zn  tau(   1) = (   0.5000000   0.2886751   0.7758739  )
         2           Zn  tau(   2) = (  -0.0000000   0.5773503   0.0009819  )
         3           O   tau(   3) = (   0.5000000   0.2886751   1.3633085  )
         4           O   tau(   4) = (  -0.0000000   0.5773503   0.5884164  )

     number of k points=    28
                       cart. coord. in units 2pi/alat
        k(    1) = (   0.0000000   0.0000000   0.0000000), wk =   0.0092593
        k(    2) = (   0.0000000   0.0000000   0.1075419), wk =   0.0185185
        k(    3) = (   0.0000000   0.0000000   0.2150837), wk =   0.0185185
        k(    4) = (   0.0000000   0.0000000  -0.3226256), wk =   0.0092593
        k(    5) = (   0.0000000   0.1924501   0.0000000), wk =   0.0555556
        k(    6) = (   0.0000000   0.1924501   0.1075419), wk =   0.1111111
        k(    7) = (   0.0000000   0.1924501   0.2150837), wk =   0.1111111
        k(    8) = (   0.0000000   0.1924501  -0.3226256), wk =   0.0555556
        k(    9) = (   0.0000000   0.3849002   0.0000000), wk =   0.0555556
        k(   10) = (   0.0000000   0.3849002   0.1075419), wk =   0.1111111
        k(   11) = (   0.0000000   0.3849002   0.2150837), wk =   0.1111111
        k(   12) = (   0.0000000   0.3849002  -0.3226256), wk =   0.0555556
        k(   13) = (   0.0000000  -0.5773503   0.0000000), wk =   0.0277778
        k(   14) = (   0.0000000  -0.5773503   0.1075419), wk =   0.0555556
        k(   15) = (   0.0000000  -0.5773503   0.2150837), wk =   0.0555556
        k(   16) = (   0.0000000  -0.5773503  -0.3226256), wk =   0.0277778
        k(   17) = (   0.1666667   0.2886751   0.0000000), wk =   0.0555556
        k(   18) = (   0.1666667   0.2886751   0.1075419), wk =   0.1111111
        k(   19) = (   0.1666667   0.2886751   0.2150837), wk =   0.1111111
        k(   20) = (   0.1666667   0.2886751  -0.3226256), wk =   0.0555556
        k(   21) = (   0.1666667   0.4811252   0.0000000), wk =   0.1111111
        k(   22) = (   0.1666667   0.4811252   0.1075419), wk =   0.2222222
        k(   23) = (   0.1666667   0.4811252   0.2150837), wk =   0.2222222
        k(   24) = (   0.1666667   0.4811252  -0.3226256), wk =   0.1111111
        k(   25) = (   0.3333333   0.5773503   0.0000000), wk =   0.0185185
        k(   26) = (   0.3333333   0.5773503   0.1075419), wk =   0.0370370
        k(   27) = (   0.3333333   0.5773503   0.2150837), wk =   0.0370370
        k(   28) = (   0.3333333   0.5773503  -0.3226256), wk =   0.0185185

     Dense  grid:    40289 G-vectors     FFT dimensions: (  40,  40,  60)

     Smooth grid:    14293 G-vectors     FFT dimensions: (  27,  27,  48)

     Estimated max dynamical RAM per process >      23.71 MB

     Estimated total dynamical RAM >     189.70 MB

     Check: negative core charge=   -0.000002

     Initial potential from superposition of free atoms

     starting charge      35.9925, renormalised to      36.0000
     Starting wfcs are   26 randomized atomic wfcs

     total cpu time spent up to now is        1.5 secs

     Self-consistent Calculation

     iteration #  1     ecut=    50.00 Ry     beta= 0.30
     Davidson diagonalization with overlap
     ethr =  1.00E-02,  avg # of iterations =  2.0

     total cpu time spent up to now is        2.3 secs

     total energy              =    -361.46613632 Ry
     estimated scf accuracy    <       0.67740742 Ry

     iteration #  2     ecut=    50.00 Ry     beta= 0.30
     Davidson diagonalization with overlap
     ethr =  1.88E-03,  avg # of iterations =  2.0

     total cpu time spent up to now is        3.3 secs

     total energy              =    -361.54193293 Ry
     estimated scf accuracy    <       0.10582061 Ry

     iteration #  3     ecut=    50.00 Ry     beta= 0.30
     Davidson diagonalization with overlap
     ethr =  2.94E-04,  avg # of iterations =  6.2

     total cpu time spent up to now is        4.8 secs

     total energy              =    -361.58193044 Ry
     estimated scf accuracy    <       0.07126033 Ry

     iteration #  4     ecut=    50.00 Ry     beta= 0.30
     Davidson diagonalization with overlap
     ethr =  1.98E-04,  avg # of iterations =  6.8

     total cpu time spent up to now is        6.5 secs

     total energy              =    -361.64210128 Ry
     estimated scf accuracy    <       0.11627059 Ry

     iteration #  5     ecut=    50.00 Ry     beta= 0.30
     Davidson diagonalization with overlap
     ethr =  1.98E-04,  avg # of iterations =  1.0

     total cpu time spent up to now is        7.2 secs

     total energy              =    -361.59172370 Ry
     estimated scf accuracy    <       0.10665184 Ry

     iteration #  6     ecut=    50.00 Ry     beta= 0.30
     Davidson diagonalization with overlap
     ethr =  1.98E-04,  avg # of iterations =  2.3

     total cpu time spent up to now is        8.1 secs

     total energy              =    -361.60059052 Ry
     estimated scf accuracy    <       0.01899472 Ry

     iteration #  7     ecut=    50.00 Ry     beta= 0.30
     Davidson diagonalization with overlap
     ethr =  5.28E-05,  avg # of iterations =  5.9

     total cpu time spent up to now is        9.5 secs

     total energy              =    -361.61427071 Ry
     estimated scf accuracy    <       0.00023568 Ry

     iteration #  8     ecut=    50.00 Ry     beta= 0.30
     Davidson diagonalization with overlap
     ethr =  6.55E-07,  avg # of iterations = 10.7

     total cpu time spent up to now is       11.9 secs

     total energy              =    -361.61404586 Ry
     estimated scf accuracy    <       0.00838203 Ry

     iteration #  9     ecut=    50.00 Ry     beta= 0.30
     Davidson diagonalization with overlap
     ethr =  6.55E-07,  avg # of iterations =  7.7

     total cpu time spent up to now is       13.7 secs

     total energy              =    -361.61410684 Ry
     estimated scf accuracy    <       0.00242823 Ry

     iteration # 10     ecut=    50.00 Ry     beta= 0.30
     Davidson diagonalization with overlap
     ethr =  6.55E-07,  avg # of iterations =  2.0

     total cpu time spent up to now is       14.5 secs

     total energy              =    -361.61434281 Ry
     estimated scf accuracy    <       0.00183709 Ry

     iteration # 11     ecut=    50.00 Ry     beta= 0.30
     Davidson diagonalization with overlap
     ethr =  6.55E-07,  avg # of iterations =  1.0

     total cpu time spent up to now is       15.2 secs

     total energy              =    -361.61429282 Ry
     estimated scf accuracy    <       0.00218025 Ry

     iteration # 12     ecut=    50.00 Ry     beta= 0.30
     Davidson diagonalization with overlap
     ethr =  6.55E-07,  avg # of iterations =  1.0

     total cpu time spent up to now is       16.0 secs

     total energy              =    -361.61424986 Ry
     estimated scf accuracy    <       0.00204877 Ry

     iteration # 13     ecut=    50.00 Ry     beta= 0.30
     Davidson diagonalization with overlap
     ethr =  6.55E-07,  avg # of iterations =  1.0

     total cpu time spent up to now is       16.7 secs

     total energy              =    -361.61417545 Ry
     estimated scf accuracy    <       0.00190068 Ry

     iteration # 14     ecut=    50.00 Ry     beta= 0.30
     Davidson diagonalization with overlap
     ethr =  6.55E-07,  avg # of iterations =  1.0

     total cpu time spent up to now is       17.5 secs

     total energy              =    -361.61416323 Ry
     estimated scf accuracy    <       0.00169906 Ry

     iteration # 15     ecut=    50.00 Ry     beta= 0.30
     Davidson diagonalization with overlap
     ethr =  6.55E-07,  avg # of iterations =  1.0

     total cpu time spent up to now is       18.2 secs

     total energy              =    -361.61333884 Ry
     estimated scf accuracy    <       0.00159946 Ry

     iteration # 16     ecut=    50.00 Ry     beta= 0.30
     Davidson diagonalization with overlap
     ethr =  6.55E-07,  avg # of iterations =  8.2

     total cpu time spent up to now is       20.1 secs

     total energy              =    -361.61378765 Ry
     estimated scf accuracy    <       0.00007811 Ry

     iteration # 17     ecut=    50.00 Ry     beta= 0.30
     Davidson diagonalization with overlap
     ethr =  2.17E-07,  avg # of iterations =  1.9

     total cpu time spent up to now is       20.9 secs

     total energy              =    -361.61377933 Ry
     estimated scf accuracy    <       0.00003334 Ry

     iteration # 18     ecut=    50.00 Ry     beta= 0.30
     Davidson diagonalization with overlap
     ethr =  9.26E-08,  avg # of iterations =  3.9

     total cpu time spent up to now is       22.0 secs

     total energy              =    -361.61379025 Ry
     estimated scf accuracy    <       0.00000016 Ry

     iteration # 19     ecut=    50.00 Ry     beta= 0.30
     Davidson diagonalization with overlap
     ethr =  4.41E-10,  avg # of iterations =  9.5

     total cpu time spent up to now is       24.1 secs

     total energy              =    -361.61379141 Ry
     estimated scf accuracy    <       0.00000012 Ry

     iteration # 20     ecut=    50.00 Ry     beta= 0.30
     Davidson diagonalization with overlap
     ethr =  3.29E-10,  avg # of iterations =  2.2

     total cpu time spent up to now is       25.0 secs

     total energy              =    -361.61379139 Ry
     estimated scf accuracy    <       0.00000003 Ry

     iteration # 21     ecut=    50.00 Ry     beta= 0.30
     Davidson diagonalization with overlap
     ethr =  8.63E-11,  avg # of iterations =  8.5

     total cpu time spent up to now is       27.0 secs

     total energy              =    -361.61379143 Ry
     estimated scf accuracy    <       0.00000025 Ry

     iteration # 22     ecut=    50.00 Ry     beta= 0.30
     Davidson diagonalization with overlap
     ethr =  8.63E-11,  avg # of iterations =  4.2

     total cpu time spent up to now is       28.1 secs

     total energy              =    -361.61379138 Ry
     estimated scf accuracy    <       0.00000009 Ry

     iteration # 23     ecut=    50.00 Ry     beta= 0.30
     Davidson diagonalization with overlap
     ethr =  8.63E-11,  avg # of iterations =  8.0

     total cpu time spent up to now is       29.9 secs

     total energy              =    -361.61379144 Ry
     estimated scf accuracy    <       0.00000006 Ry

     iteration # 24     ecut=    50.00 Ry     beta= 0.30
     Davidson diagonalization with overlap
     ethr =  8.63E-11,  avg # of iterations =  1.1

     total cpu time spent up to now is       30.7 secs

     total energy              =    -361.61379143 Ry
     estimated scf accuracy    <       0.00000005 Ry

     iteration # 25     ecut=    50.00 Ry     beta= 0.30
     Davidson diagonalization with overlap
     ethr =  8.63E-11,  avg # of iterations =  1.9

     total cpu time spent up to now is       31.5 secs

     total energy              =    -361.61379142 Ry
     estimated scf accuracy    <       0.00000002 Ry

     iteration # 26     ecut=    50.00 Ry     beta= 0.30
     Davidson diagonalization with overlap
     ethr =  6.79E-11,  avg # of iterations =  2.1

     total cpu time spent up to now is       32.4 secs

     total energy              =    -361.61379142 Ry
     estimated scf accuracy    <       0.00000001 Ry

     iteration # 27     ecut=    50.00 Ry     beta= 0.30
     Davidson diagonalization with overlap
     ethr =  2.83E-11,  avg # of iterations =  4.4

     total cpu time spent up to now is       33.5 secs

     End of self-consistent calculation

          k = 0.0000 0.0000 0.0000 (  1785 PWs)   bands (ev):

   -10.2798  -9.3658   2.2876   2.3868   2.3868   2.4196   2.6306   2.6306
     3.7718   3.7718   4.0542   4.0542   4.3244   7.4319   7.4319   8.4040
     8.4231   8.4231

          k = 0.0000 0.0000 0.1075 (  1761 PWs)   bands (ev):

   -10.2218  -9.4301   2.1671   2.3440   2.3934   2.3934   2.6031   2.6031
     3.8000   3.8000   4.0464   4.0464   4.6658   7.4999   7.4999   7.8704
     8.3590   8.3590

          k = 0.0000 0.0000 0.2151 (  1779 PWs)   bands (ev):

   -10.0609  -9.6038   2.0197   2.1716   2.4178   2.4178   2.5372   2.5372
     3.8696   3.8696   4.0139   4.0139   5.4210   7.0938   7.6849   7.6849
     8.1817   8.1817

          k = 0.0000 0.0000-0.3226 (  1786 PWs)   bands (ev):

    -9.8356  -9.8356   2.0271   2.0271   2.4672   2.4672   2.4672   2.4672
     3.9507   3.9507   3.9507   3.9507   6.2740   6.2740   7.9353   7.9353
     7.9353   7.9353

          k = 0.0000 0.1925 0.0000 (  1780 PWs)   bands (ev):

   -10.1163  -9.3067   2.1855   2.4712   2.4717   2.5057   2.6859   2.7627
     3.7028   3.7726   4.0722   4.1062   4.3430   6.5275   7.0464   7.3297
     8.1879   8.2271

          k = 0.0000 0.1925 0.1075 (  1781 PWs)   bands (ev):

   -10.0637  -9.3623   2.1318   2.2710   2.4811   2.5077   2.6641   2.7315
     3.7462   3.7988   4.0589   4.0936   4.7143   6.6084   7.1294   7.1555
     8.1280   8.1516

          k = 0.0000 0.1925 0.2151 (  1769 PWs)   bands (ev):

    -9.9186  -9.5132   1.9926   2.0451   2.5019   2.5146   2.6015   2.6571
     3.8450   3.8659   4.0172   4.0436   5.4665   6.6619   6.9735   7.3532
     7.8371   7.9428

          k = 0.0000 0.1925-0.3226 (  1762 PWs)   bands (ev):

    -9.7174  -9.7174   1.9414   1.9414   2.5367   2.5367   2.5760   2.5760
     3.9476   3.9476   3.9553   3.9553   6.1736   6.1736   7.3651   7.3651
     7.6517   7.6517

          k = 0.0000 0.3849 0.0000 (  1790 PWs)   bands (ev):

    -9.7435  -9.2167   1.9791   2.3907   2.6048   2.7490   3.0935   3.1313
     3.6767   3.8663   4.0982   4.1014   4.5193   5.1398   6.1177   6.2479
     7.5733   7.7914

          k = 0.0000 0.3849 0.1075 (  1786 PWs)   bands (ev):

    -9.7064  -9.2495   1.9272   2.2347   2.6276   2.7216   2.9866   3.0471
     3.7322   3.8808   4.0789   4.1671   4.7310   5.3191   6.0570   6.3664
     7.6275   7.6966

          k = 0.0000 0.3849 0.2151 (  1783 PWs)   bands (ev):

    -9.6059  -9.3414   1.8242   1.9521   2.6951   2.7040   2.8333   2.9333
     3.8605   3.9200   4.0319   4.1145   5.0585   5.5104   6.3360   6.6729
     7.4340   7.5408

          k = 0.0000 0.3849-0.3226 (  1772 PWs)   bands (ev):

    -9.4715  -9.4715   1.8009   1.8009   2.7410   2.7410   2.8031   2.8031
     3.9745   3.9745   3.9993   3.9993   5.3211   5.3211   7.0563   7.0563
     7.0636   7.0636

          k = 0.0000-0.5774 0.0000 (  1786 PWs)   bands (ev):

    -9.5006  -9.2184   2.0528   2.2293   2.6478   2.9239   3.0944   3.3138
     3.8157   3.9855   4.1122   4.1815   4.7011   4.7322   5.4185   5.7890
     7.0911   7.5498

          k = 0.0000-0.5774 0.1075 (  1786 PWs)   bands (ev):

    -9.4779  -9.2330   1.9801   2.0964   2.6791   2.8905   3.0460   3.2501
     3.8992   3.9893   4.0889   4.1815   4.6361   4.7078   5.7665   5.9372
     7.2095   7.4460

          k = 0.0000-0.5774 0.2151 (  1778 PWs)   bands (ev):

    -9.4184  -9.2765   1.8321   1.8651   2.7717   2.8685   2.9570   3.0947
     4.0006   4.0305   4.0494   4.1689   4.5933   4.6572   6.3021   6.4619
     7.1575   7.3265

          k = 0.0000-0.5774-0.3226 (  1788 PWs)   bands (ev):

    -9.3434  -9.3434   1.7609   1.7609   2.8915   2.8915   2.9179   2.9179
     4.0195   4.0195   4.1229   4.1229   4.6103   4.6103   6.7466   6.7466
     7.0802   7.0802

          k = 0.1667 0.2887 0.0000 (  1779 PWs)   bands (ev):

    -9.8463  -9.2329   2.1045   2.3458   2.6127   2.6649   3.0084   3.0129
     3.6460   3.7977   4.0900   4.1198   4.4994   5.6901   5.9909   6.5904
     7.7533   7.7855

          k = 0.1667 0.2887 0.1075 (  1778 PWs)   bands (ev):

    -9.8043  -9.2725   2.0477   2.2373   2.5949   2.6250   2.8737   2.9675
     3.7036   3.8471   4.0736   4.1582   4.8025   5.8403   6.0297   6.5371
     7.6533   7.8087

          k = 0.1667 0.2887 0.2151 (  1775 PWs)   bands (ev):

    -9.6898  -9.3821   1.9270   1.9918   2.5828   2.6096   2.7736   2.8723
     3.8341   3.9046   4.0308   4.1020   5.3310   5.9472   6.3599   6.6505
     7.3837   7.6528

          k = 0.1667 0.2887-0.3226 (  1772 PWs)   bands (ev):

    -9.5347  -9.5347   1.8729   1.8729   2.6004   2.6004   2.7826   2.7826
     3.9532   3.9532   3.9970   3.9970   5.6906   5.6906   6.9469   6.9469
     7.1655   7.1655

          k = 0.1667 0.4811 0.0000 (  1775 PWs)   bands (ev):

    -9.5105  -9.2125   2.1626   2.4186   2.6314   2.8212   3.2087   3.3372
     3.7585   3.8113   4.1197   4.2434   4.4397   5.0282   5.3244   5.7136
     7.0427   7.2583

          k = 0.1667 0.4811 0.1075 (  1784 PWs)   bands (ev):

    -9.4869  -9.2283   2.0989   2.2953   2.6088   2.7984   3.1128   3.2332
     3.7680   3.9258   4.1099   4.3080   4.4540   5.1126   5.3937   5.9433
     7.0384   7.2641

          k = 0.1667 0.4811 0.2151 (  1784 PWs)   bands (ev):

    -9.4247  -9.2749   1.9606   2.0405   2.6338   2.7619   3.0057   3.0766
     3.8682   3.9614   4.1208   4.2625   4.6386   5.0198   5.7698   6.4958
     6.7848   7.3634

          k = 0.1667 0.4811-0.3226 (  1780 PWs)   bands (ev):

    -9.3458  -9.3458   1.9068   1.9068   2.7068   2.7068   2.9844   2.9844
     3.9403   3.9403   4.1786   4.1786   4.8428   4.8428   6.2452   6.2452
     7.1534   7.1534

          k = 0.3333 0.5774 0.0000 (  1779 PWs)   bands (ev):

    -9.3025  -9.3025   2.3043   2.6499   2.6499   3.0896   3.3992   3.3992
     3.6916   3.8654   3.8654   3.8802   4.3963   4.8626   4.8626   6.3871
     6.3871   6.6501

          k = 0.3333 0.5774 0.1075 (  1779 PWs)   bands (ev):

    -9.2978  -9.2978   2.3322   2.5120   2.5120   2.9741   3.2778   3.2778
     3.7144   3.8699   4.0591   4.0591   4.5836   4.8136   4.8136   6.4995
     6.5953   6.5953

          k = 0.3333 0.5774 0.2151 (  1791 PWs)   bands (ev):

    -9.2884  -9.2884   2.2572   2.2572   2.4170   2.7571   3.1853   3.1853
     3.7552   3.8405   4.2994   4.2994   4.7165   4.7165   5.0268   6.1009
     6.9961   6.9961

          k = 0.3333 0.5774-0.3226 (  1794 PWs)   bands (ev):

    -9.2837  -9.2837   2.1426   2.1426   2.5603   2.5603   3.1602   3.1602
     3.7995   3.7995   4.4109   4.4109   4.6521   4.6521   5.5706   5.5706
     7.1927   7.1927

     highest occupied level (ev):     8.4231

!    total energy              =    -361.61379143 Ry
     estimated scf accuracy    <          2.4E-11 Ry

     The total energy is the sum of the following terms:
     one-electron contribution =    -143.03672302 Ry
     hartree contribution      =     114.31006729 Ry
     xc contribution           =    -109.76985511 Ry
     ewald contribution        =    -223.11728059 Ry

     convergence has been achieved in  27 iterations

     Forces acting on atoms (cartesian axes, Ry/au):

     atom    1 type  1   force =     0.00000000   -0.00000000   -0.02406875
     atom    2 type  1   force =     0.00000000    0.00000000   -0.02406875
     atom    3 type  2   force =     0.00000000    0.00000000    0.02406875
     atom    4 type  2   force =     0.00000000    0.00000000    0.02406875
     The non-local contrib.  to forces
     atom    1 type  1   force =     0.00000000   -0.00000000   -0.12912379
     atom    2 type  1   force =    -0.00000000    0.00000000   -0.12912379
     atom    3 type  2   force =     0.00000000    0.00000000   -0.08795424
     atom    4 type  2   force =    -0.00000000   -0.00000000   -0.08795424
     The ionic contribution  to forces
     atom    1 type  1   force =    -0.00000000    0.00000000   -0.83224522
     atom    2 type  1   force =     0.00000000   -0.00000000   -0.83224522
     atom    3 type  2   force =    -0.00000000    0.00000000    0.83224522
     atom    4 type  2   force =     0.00000000   -0.00000000    0.83224522
     The local contribution  to forces
     atom    1 type  1   force =    -0.00000002    0.00000001    0.92665659
     atom    2 type  1   force =     0.00000006   -0.00000004    0.92665659
     atom    3 type  2   force =    -0.00000001    0.00000000   -0.72081859
     atom    4 type  2   force =     0.00000002   -0.00000001   -0.72081860
     The core correction contribution to forces
     atom    1 type  1   force =    -0.00000000    0.00000000    0.01064898
     atom    2 type  1   force =     0.00000001   -0.00000000    0.01064898
     atom    3 type  2   force =     0.00000000   -0.00000000    0.00059250
     atom    4 type  2   force =    -0.00000000    0.00000000    0.00059250
     The Hubbard contrib.    to forces
     atom    1 type  1   force =     0.00000000    0.00000000    0.00000000
     atom    2 type  1   force =     0.00000000    0.00000000    0.00000000
     atom    3 type  2   force =     0.00000000    0.00000000    0.00000000
     atom    4 type  2   force =     0.00000000    0.00000000    0.00000000
     The SCF correction term to forces
     atom    1 type  1   force =    -0.00000000    0.00000000   -0.00000517
     atom    2 type  1   force =     0.00000000   -0.00000000   -0.00000517
     atom    3 type  2   force =    -0.00000000    0.00000000    0.00000399
     atom    4 type  2   force =     0.00000000   -0.00000000    0.00000399

     Total force =     0.048138     Total SCF correction =     0.000009


     Computing stress (Cartesian axis) and pressure

          total   stress  (Ry/bohr**3)                   (kbar)     P=      172.88
   0.00088501  -0.00000000  -0.00000000          130.19       -0.00       -0.00
  -0.00000000   0.00088501  -0.00000000           -0.00      130.19       -0.00
   0.00000000   0.00000000   0.00175560            0.00        0.00      258.26


     Writing all to output data dir ./ZnO_ANN.save/

     init_run     :      1.73s CPU      1.19s WALL (       1 calls)
     electrons    :     84.62s CPU     32.01s WALL (       1 calls)
     forces       :      0.60s CPU      0.28s WALL (       1 calls)
     stress       :      2.12s CPU      1.08s WALL (       1 calls)

     Called by init_run:
     wfcinit      :      0.91s CPU      0.37s WALL (       1 calls)
     potinit      :      0.21s CPU      0.21s WALL (       1 calls)
     hinit0       :      0.49s CPU      0.50s WALL (       1 calls)

     Called by electrons:
     c_bands      :     69.43s CPU     25.94s WALL (      27 calls)
     sum_band     :     11.31s CPU      4.47s WALL (      27 calls)
     v_of_rho     :      0.86s CPU      0.38s WALL (      28 calls)
     newd         :      2.81s CPU      1.16s WALL (      28 calls)
     mix_rho      :      0.16s CPU      0.07s WALL (      27 calls)

     Called by c_bands:
     init_us_2    :      1.01s CPU      0.36s WALL (    1596 calls)
     init_us_2:cp :      0.99s CPU      0.36s WALL (    1596 calls)
     cegterg      :     67.11s CPU     25.06s WALL (     756 calls)

     Called by *egterg:
     cdiaghg      :     10.96s CPU      3.59s WALL (    3769 calls)
     h_psi        :     46.46s CPU     19.00s WALL (    3797 calls)
     s_psi        :      1.03s CPU      0.31s WALL (    3797 calls)
     g_psi        :      0.33s CPU      0.09s WALL (    3013 calls)

     Called by h_psi:
     h_psi:calbec :      1.54s CPU      0.56s WALL (    3797 calls)
     vloc_psi     :     43.55s CPU     17.99s WALL (    3797 calls)
     add_vuspsi   :      0.99s CPU      0.33s WALL (    3797 calls)

     General routines
     calbec       :      1.98s CPU      0.71s WALL (    4693 calls)
     fft          :      0.74s CPU      0.45s WALL (     387 calls)
     ffts         :      0.13s CPU      0.11s WALL (      55 calls)
     fftw         :     44.28s CPU     18.33s WALL (  106958 calls)
     interpolate  :      0.15s CPU      0.12s WALL (      28 calls)

     Parallel routines

     PWSCF        :   1m29.61s CPU     35.02s WALL


   This run was terminated on:  16:42:13  13Jun2025            

=------------------------------------------------------------------------------=
   JOB DONE.
=------------------------------------------------------------------------------=
Note: The following floating-point exceptions are signalling: IEEE_INVALID_FLAG
