Authorization required, but no authorization protocol specified

Authorization required, but no authorization protocol specified

Authorization required, but no authorization protocol specified

Authorization required, but no authorization protocol specified

Authorization required, but no authorization protocol specified

Authorization required, but no authorization protocol specified

Authorization required, but no authorization protocol specified

Authorization required, but no authorization protocol specified

Authorization required, but no authorization protocol specified

Authorization required, but no authorization protocol specified


     Program PWSCF v.7.2 starts on 13Jun2025 at 16:58:51 

     This program is part of the open-source Quantum ESPRESSO suite
     for quantum simulation of materials; please cite
         "P. Giannozzi et al., J. Phys.:Condens. Matter 21 395502 (2009);
         "P. Giannozzi et al., J. Phys.:Condens. Matter 29 465901 (2017);
         "P. Giannozzi et al., J. Chem. Phys. 152 154105 (2020);
          URL http://www.quantum-espresso.org", 
     in publications or presentations arising from this work. More details at
     http://www.quantum-espresso.org/quote

     Parallel version (MPI), running on     8 processors

     MPI processes distributed on     1 nodes
     120711 MiB available memory on the printing compute node when the environment starts

     Reading input from /home/jvc/QEspresso7.2/ZnO_database_python/SCFs.in/scf-6.12-1.61.in

     Current dimensions of program PWSCF are:
     Max number of different atomic species (ntypx) = 10
     Max number of k-points (npk) =  40000
     Max angular momentum in pseudopotentials (lmaxx) =  4
     file Zn.upf: wavefunction(s)  3D renormalized

     R & G space division:  proc/nbgrp/npool/nimage =       8
     Subspace diagonalization in iterative solution of the eigenvalue problem:
     a serial algorithm will be used


     Parallelization info
     --------------------
     sticks:   dense  smooth     PW     G-vecs:    dense   smooth      PW
     Min         129      63     20                 5405     1905     324
     Max         130      64     21                 5410     1912     327
     Sum        1039     511    163                43257    15279    2599

     Using Slab Decomposition



     bravais-lattice index     =            4
     lattice parameter (alat)  =       6.1170  a.u.
     unit-cell volume          =     320.0023 (a.u.)^3
     number of atoms/cell      =            4
     number of atomic types    =            2
     number of electrons       =        36.00
     number of Kohn-Sham states=           18
     kinetic-energy cutoff     =      50.0000  Ry
     charge density cutoff     =     400.0000  Ry
     scf convergence threshold =      1.0E-08
     mixing beta               =       0.3000
     number of iterations used =            8  plain     mixing
     Exchange-correlation= PBE
                           (   1   4   3   4   0   0   0)

     celldm(1)=   6.117033  celldm(2)=   0.000000  celldm(3)=   1.614358
     celldm(4)=   0.000000  celldm(5)=   0.000000  celldm(6)=   0.000000

     crystal axes: (cart. coord. in units of alat)
               a(1) = (   1.000000   0.000000   0.000000 )  
               a(2) = (  -0.500000   0.866025   0.000000 )  
               a(3) = (   0.000000   0.000000   1.614358 )  

     reciprocal axes: (cart. coord. in units 2 pi/alat)
               b(1) = (  1.000000  0.577350 -0.000000 )  
               b(2) = (  0.000000  1.154701  0.000000 )  
               b(3) = (  0.000000 -0.000000  0.619441 )  


     PseudoPot. # 1 for Zn read from file:
     /home/jvc/QEspresso7.2/ZnO_database/pseudos/Zn.upf
     MD5 check sum: 7f56cabf9682ed8c977c2f7d0c5985c5
     Pseudo is Ultrasoft + core correction, Zval = 12.0
     Generated using &quot;atomic&quot; code by A. Dal Corso  v.6.2.2
     Using radial grid of 1201 points,  6 beta functions with: 
                l(1) =   0
                l(2) =   0
                l(3) =   1
                l(4) =   1
                l(5) =   2
                l(6) =   2
     Q(r) pseudized with 0 coefficients 


     PseudoPot. # 2 for O  read from file:
     /home/jvc/QEspresso7.2/ZnO_database/pseudos/O.upf
     MD5 check sum: 91400c9766925bcf19f520983a725ff0
     Pseudo is Ultrasoft + core correction, Zval =  6.0
     Generated using &quot;atomic&quot; code by A. Dal Corso  v.6.3MaX
     Using radial grid of 1095 points,  4 beta functions with: 
                l(1) =   0
                l(2) =   0
                l(3) =   1
                l(4) =   1
     Q(r) pseudized with 0 coefficients 


     atomic species   valence    mass     pseudopotential
        Zn            12.00    63.38000     Zn( 1.00)
        O              6.00    15.99900     O ( 1.00)

     12 Sym. Ops. (no inversion) found ( 6 have fractional translation)



   Cartesian axes

     site n.     atom                  positions (alat units)
         1           Zn  tau(   1) = (   0.5000000   0.2886751   0.8082020  )
         2           Zn  tau(   2) = (  -0.0000000   0.5773503   0.0010228  )
         3           O   tau(   3) = (   0.5000000   0.2886751   1.4201130  )
         4           O   tau(   4) = (  -0.0000000   0.5773503   0.6129338  )

     number of k points=    28
                       cart. coord. in units 2pi/alat
        k(    1) = (   0.0000000   0.0000000   0.0000000), wk =   0.0092593
        k(    2) = (   0.0000000   0.0000000   0.1032402), wk =   0.0185185
        k(    3) = (   0.0000000   0.0000000   0.2064804), wk =   0.0185185
        k(    4) = (   0.0000000   0.0000000  -0.3097206), wk =   0.0092593
        k(    5) = (   0.0000000   0.1924501   0.0000000), wk =   0.0555556
        k(    6) = (   0.0000000   0.1924501   0.1032402), wk =   0.1111111
        k(    7) = (   0.0000000   0.1924501   0.2064804), wk =   0.1111111
        k(    8) = (   0.0000000   0.1924501  -0.3097206), wk =   0.0555556
        k(    9) = (   0.0000000   0.3849002   0.0000000), wk =   0.0555556
        k(   10) = (   0.0000000   0.3849002   0.1032402), wk =   0.1111111
        k(   11) = (   0.0000000   0.3849002   0.2064804), wk =   0.1111111
        k(   12) = (   0.0000000   0.3849002  -0.3097206), wk =   0.0555556
        k(   13) = (   0.0000000  -0.5773503   0.0000000), wk =   0.0277778
        k(   14) = (   0.0000000  -0.5773503   0.1032402), wk =   0.0555556
        k(   15) = (   0.0000000  -0.5773503   0.2064804), wk =   0.0555556
        k(   16) = (   0.0000000  -0.5773503  -0.3097206), wk =   0.0277778
        k(   17) = (   0.1666667   0.2886751   0.0000000), wk =   0.0555556
        k(   18) = (   0.1666667   0.2886751   0.1032402), wk =   0.1111111
        k(   19) = (   0.1666667   0.2886751   0.2064804), wk =   0.1111111
        k(   20) = (   0.1666667   0.2886751  -0.3097206), wk =   0.0555556
        k(   21) = (   0.1666667   0.4811252   0.0000000), wk =   0.1111111
        k(   22) = (   0.1666667   0.4811252   0.1032402), wk =   0.2222222
        k(   23) = (   0.1666667   0.4811252   0.2064804), wk =   0.2222222
        k(   24) = (   0.1666667   0.4811252  -0.3097206), wk =   0.1111111
        k(   25) = (   0.3333333   0.5773503   0.0000000), wk =   0.0185185
        k(   26) = (   0.3333333   0.5773503   0.1032402), wk =   0.0370370
        k(   27) = (   0.3333333   0.5773503   0.2064804), wk =   0.0370370
        k(   28) = (   0.3333333   0.5773503  -0.3097206), wk =   0.0185185

     Dense  grid:    43257 G-vectors     FFT dimensions: (  40,  40,  64)

     Smooth grid:    15279 G-vectors     FFT dimensions: (  27,  27,  48)

     Estimated max dynamical RAM per process >      25.15 MB

     Estimated total dynamical RAM >     201.24 MB

     Check: negative core charge=   -0.000002

     Initial potential from superposition of free atoms

     starting charge      35.9925, renormalised to      36.0000
     Starting wfcs are   26 randomized atomic wfcs

     total cpu time spent up to now is        1.5 secs

     Self-consistent Calculation

     iteration #  1     ecut=    50.00 Ry     beta= 0.30
     Davidson diagonalization with overlap
     ethr =  1.00E-02,  avg # of iterations =  1.9

     total cpu time spent up to now is        2.3 secs

     total energy              =    -361.48037612 Ry
     estimated scf accuracy    <       0.68547033 Ry

     iteration #  2     ecut=    50.00 Ry     beta= 0.30
     Davidson diagonalization with overlap
     ethr =  1.90E-03,  avg # of iterations =  2.0

     total cpu time spent up to now is        3.3 secs

     total energy              =    -361.57321021 Ry
     estimated scf accuracy    <       0.09268938 Ry

     iteration #  3     ecut=    50.00 Ry     beta= 0.30
     Davidson diagonalization with overlap
     ethr =  2.57E-04,  avg # of iterations =  6.1

     total cpu time spent up to now is        4.9 secs

     total energy              =    -361.60757734 Ry
     estimated scf accuracy    <       0.05982300 Ry

     iteration #  4     ecut=    50.00 Ry     beta= 0.30
     Davidson diagonalization with overlap
     ethr =  1.66E-04,  avg # of iterations =  8.5

     total cpu time spent up to now is        6.9 secs

     total energy              =    -361.65365149 Ry
     estimated scf accuracy    <       0.27494861 Ry

     iteration #  5     ecut=    50.00 Ry     beta= 0.30
     Davidson diagonalization with overlap
     ethr =  1.66E-04,  avg # of iterations =  2.0

     total cpu time spent up to now is        7.7 secs

     total energy              =    -361.54984060 Ry
     estimated scf accuracy    <       0.16865993 Ry

     iteration #  6     ecut=    50.00 Ry     beta= 0.30
     Davidson diagonalization with overlap
     ethr =  1.66E-04,  avg # of iterations =  7.7

     total cpu time spent up to now is        9.6 secs

     total energy              =    -361.63921305 Ry
     estimated scf accuracy    <       0.10935490 Ry

     iteration #  7     ecut=    50.00 Ry     beta= 0.30
     Davidson diagonalization with overlap
     ethr =  1.66E-04,  avg # of iterations =  1.0

     total cpu time spent up to now is       10.4 secs

     total energy              =    -361.63251618 Ry
     estimated scf accuracy    <       0.06071219 Ry

     iteration #  8     ecut=    50.00 Ry     beta= 0.30
     Davidson diagonalization with overlap
     ethr =  1.66E-04,  avg # of iterations =  2.0

     total cpu time spent up to now is       11.3 secs

     total energy              =    -361.64147913 Ry
     estimated scf accuracy    <       0.02453193 Ry

     iteration #  9     ecut=    50.00 Ry     beta= 0.30
     Davidson diagonalization with overlap
     ethr =  6.81E-05,  avg # of iterations =  1.0

     total cpu time spent up to now is       12.0 secs

     total energy              =    -361.64145016 Ry
     estimated scf accuracy    <       0.03238729 Ry

     iteration # 10     ecut=    50.00 Ry     beta= 0.30
     Davidson diagonalization with overlap
     ethr =  6.81E-05,  avg # of iterations =  1.0

     total cpu time spent up to now is       12.8 secs

     total energy              =    -361.63524815 Ry
     estimated scf accuracy    <       0.02997156 Ry

     iteration # 11     ecut=    50.00 Ry     beta= 0.30
     Davidson diagonalization with overlap
     ethr =  6.81E-05,  avg # of iterations =  1.3

     total cpu time spent up to now is       13.6 secs

     total energy              =    -361.63151215 Ry
     estimated scf accuracy    <       0.01514184 Ry

     iteration # 12     ecut=    50.00 Ry     beta= 0.30
     Davidson diagonalization with overlap
     ethr =  4.21E-05,  avg # of iterations =  2.4

     total cpu time spent up to now is       14.6 secs

     total energy              =    -361.63137340 Ry
     estimated scf accuracy    <       0.00292639 Ry

     iteration # 13     ecut=    50.00 Ry     beta= 0.30
     Davidson diagonalization with overlap
     ethr =  8.13E-06,  avg # of iterations =  8.3

     total cpu time spent up to now is       16.5 secs

     total energy              =    -361.63896370 Ry
     estimated scf accuracy    <       0.00967078 Ry

     iteration # 14     ecut=    50.00 Ry     beta= 0.30
     Davidson diagonalization with overlap
     ethr =  8.13E-06,  avg # of iterations =  1.6

     total cpu time spent up to now is       17.3 secs

     total energy              =    -361.63749972 Ry
     estimated scf accuracy    <       0.01368191 Ry

     iteration # 15     ecut=    50.00 Ry     beta= 0.30
     Davidson diagonalization with overlap
     ethr =  8.13E-06,  avg # of iterations =  1.0

     total cpu time spent up to now is       18.1 secs

     total energy              =    -361.63292114 Ry
     estimated scf accuracy    <       0.01111307 Ry

     iteration # 16     ecut=    50.00 Ry     beta= 0.30
     Davidson diagonalization with overlap
     ethr =  8.13E-06,  avg # of iterations =  4.7

     total cpu time spent up to now is       19.5 secs

     total energy              =    -361.63451365 Ry
     estimated scf accuracy    <       0.00034562 Ry

     iteration # 17     ecut=    50.00 Ry     beta= 0.30
     Davidson diagonalization with overlap
     ethr =  9.60E-07,  avg # of iterations =  3.7

     total cpu time spent up to now is       20.5 secs

     total energy              =    -361.63541539 Ry
     estimated scf accuracy    <       0.00012987 Ry

     iteration # 18     ecut=    50.00 Ry     beta= 0.30
     Davidson diagonalization with overlap
     ethr =  3.61E-07,  avg # of iterations =  9.8

     total cpu time spent up to now is       23.0 secs

     total energy              =    -361.63293727 Ry
     estimated scf accuracy    <       0.00589598 Ry

     iteration # 19     ecut=    50.00 Ry     beta= 0.30
     Davidson diagonalization with overlap
     ethr =  3.61E-07,  avg # of iterations = 11.3

     total cpu time spent up to now is       25.7 secs

     total energy              =    -361.63444807 Ry
     estimated scf accuracy    <       0.00068281 Ry

     iteration # 20     ecut=    50.00 Ry     beta= 0.30
     Davidson diagonalization with overlap
     ethr =  3.61E-07,  avg # of iterations =  7.8

     total cpu time spent up to now is       27.5 secs

     total energy              =    -361.63471488 Ry
     estimated scf accuracy    <       0.00003808 Ry

     iteration # 21     ecut=    50.00 Ry     beta= 0.30
     Davidson diagonalization with overlap
     ethr =  1.06E-07,  avg # of iterations =  8.0

     total cpu time spent up to now is       29.4 secs

     total energy              =    -361.63450675 Ry
     estimated scf accuracy    <       0.00053733 Ry

     iteration # 22     ecut=    50.00 Ry     beta= 0.30
     Davidson diagonalization with overlap
     ethr =  1.06E-07,  avg # of iterations =  8.8

     total cpu time spent up to now is       31.6 secs

     total energy              =    -361.63463521 Ry
     estimated scf accuracy    <       0.00001578 Ry

     iteration # 23     ecut=    50.00 Ry     beta= 0.30
     Davidson diagonalization with overlap
     ethr =  4.38E-08,  avg # of iterations = 10.0

     total cpu time spent up to now is       34.0 secs

     total energy              =    -361.63470545 Ry
     estimated scf accuracy    <       0.00035532 Ry

     iteration # 24     ecut=    50.00 Ry     beta= 0.30
     Davidson diagonalization with overlap
     ethr =  4.38E-08,  avg # of iterations =  1.4

     total cpu time spent up to now is       34.8 secs

     total energy              =    -361.63470129 Ry
     estimated scf accuracy    <       0.00031214 Ry

     iteration # 25     ecut=    50.00 Ry     beta= 0.30
     Davidson diagonalization with overlap
     ethr =  4.38E-08,  avg # of iterations =  1.0

     total cpu time spent up to now is       35.5 secs

     total energy              =    -361.63467339 Ry
     estimated scf accuracy    <       0.00029577 Ry

     iteration # 26     ecut=    50.00 Ry     beta= 0.30
     Davidson diagonalization with overlap
     ethr =  4.38E-08,  avg # of iterations =  2.1

     total cpu time spent up to now is       36.4 secs

     total energy              =    -361.63461575 Ry
     estimated scf accuracy    <       0.00023637 Ry

     iteration # 27     ecut=    50.00 Ry     beta= 0.30
     Davidson diagonalization with overlap
     ethr =  4.38E-08,  avg # of iterations =  7.4

     total cpu time spent up to now is       38.3 secs

     total energy              =    -361.63463747 Ry
     estimated scf accuracy    <       0.00003243 Ry

     iteration # 28     ecut=    50.00 Ry     beta= 0.30
     Davidson diagonalization with overlap
     ethr =  4.38E-08,  avg # of iterations =  1.1

     total cpu time spent up to now is       39.0 secs

     total energy              =    -361.63462559 Ry
     estimated scf accuracy    <       0.00002780 Ry

     iteration # 29     ecut=    50.00 Ry     beta= 0.30
     Davidson diagonalization with overlap
     ethr =  4.38E-08,  avg # of iterations =  4.8

     total cpu time spent up to now is       40.3 secs

     total energy              =    -361.63463094 Ry
     estimated scf accuracy    <       0.00000035 Ry

     iteration # 30     ecut=    50.00 Ry     beta= 0.30
     Davidson diagonalization with overlap
     ethr =  9.79E-10,  avg # of iterations =  8.5

     total cpu time spent up to now is       42.1 secs

     total energy              =    -361.63463199 Ry
     estimated scf accuracy    <       0.00000075 Ry

     iteration # 31     ecut=    50.00 Ry     beta= 0.30
     Davidson diagonalization with overlap
     ethr =  9.79E-10,  avg # of iterations =  4.6

     total cpu time spent up to now is       43.4 secs

     End of self-consistent calculation

          k = 0.0000 0.0000 0.0000 (  1883 PWs)   bands (ev):

   -10.7896 -10.0641   1.6227   1.6227   1.6576   1.6678   1.8178   1.8178
     2.8251   2.8251   3.0365   3.0365   3.3125   6.5406   6.5406   7.2453
     7.3372   7.3372

          k = 0.0000 0.0000 0.1032 (  1888 PWs)   bands (ev):

   -10.7435 -10.1153   1.5509   1.6149   1.6298   1.6298   1.7981   1.7981
     2.8443   2.8443   3.0286   3.0286   3.6138   6.5950   6.5950   6.6895
     7.2850   7.2850

          k = 0.0000 0.0000 0.2065 (  1882 PWs)   bands (ev):

   -10.6159 -10.2533   1.4159   1.4968   1.6533   1.6533   1.7496   1.7496
     2.8937   2.8937   3.0010   3.0010   4.2918   5.8974   6.7430   6.7430
     7.1416   7.1416

          k = 0.0000 0.0000-0.3097 (  1894 PWs)   bands (ev):

   -10.4372 -10.4372   1.4024   1.4024   1.6953   1.6953   1.6953   1.6953
     2.9524   2.9524   2.9524   2.9524   5.0893   5.0893   6.9434   6.9434
     6.9434   6.9434

          k = 0.0000 0.1925 0.0000 (  1892 PWs)   bands (ev):

   -10.6416 -10.0001   1.4669   1.7048   1.7280   1.7966   1.9203   1.9405
     2.7637   2.8237   3.0487   3.1469   3.2836   5.6257   6.1904   6.2279
     7.0588   7.1447

          k = 0.0000 0.1925 0.1032 (  1904 PWs)   bands (ev):

   -10.6001 -10.0445   1.4341   1.6110   1.7146   1.7606   1.8856   1.9179
     2.7953   2.8419   3.0370   3.0836   3.6614   5.6811   6.0731   6.2567
     6.9790   7.0827

          k = 0.0000 0.1925 0.2065 (  1908 PWs)   bands (ev):

   -10.4855 -10.1647   1.3563   1.4096   1.7457   1.7527   1.8317   1.8619
     2.8689   2.8898   3.0029   3.0271   4.3500   5.5644   6.0027   6.4357
     6.7064   6.9122

          k = 0.0000 0.1925-0.3097 (  1918 PWs)   bands (ev):

   -10.3265 -10.3265   1.3228   1.3228   1.7805   1.7805   1.7978   1.7978
     2.9496   2.9496   2.9536   2.9536   5.0347   5.0347   6.3218   6.3218
     6.6760   6.6760

          k = 0.0000 0.3849 0.0000 (  1906 PWs)   bands (ev):

   -10.3086  -9.8928   1.3068   1.6651   1.8377   2.0339   2.2384   2.3477
     2.7311   2.9005   3.0693   3.2027   3.4794   4.1695   5.0686   5.4685
     6.5062   6.7244

          k = 0.0000 0.3849 0.1032 (  1917 PWs)   bands (ev):

   -10.2799  -9.9195   1.2734   1.5619   1.8580   2.0075   2.2034   2.2158
     2.7740   2.9105   3.0551   3.1704   3.7358   4.3126   5.0316   5.5611
     6.5224   6.6451

          k = 0.0000 0.3849 0.2065 (  1914 PWs)   bands (ev):

   -10.2020  -9.9936   1.2121   1.3486   1.9179   1.9823   2.0796   2.1154
     2.8762   2.9383   3.0202   3.0938   4.0493   4.4560   5.2911   5.8047
     6.3892   6.4268

          k = 0.0000 0.3849-0.3097 (  1906 PWs)   bands (ev):

   -10.0968 -10.0968   1.2153   1.2153   2.0058   2.0058   2.0098   2.0098
     2.9778   2.9778   2.9910   2.9910   4.2894   4.2894   5.9256   5.9256
     6.1218   6.1218

          k = 0.0000-0.5774 0.0000 (  1910 PWs)   bands (ev):

   -10.0973  -9.8751   1.3855   1.5719   1.8812   2.2605   2.2826   2.4249
     2.8580   2.9995   3.0855   3.1604   3.6209   3.7778   4.5014   5.0643
     6.0411   6.4941

          k = 0.0000-0.5774 0.1032 (  1916 PWs)   bands (ev):

   -10.0804  -9.8877   1.3359   1.4722   1.9089   2.2209   2.2567   2.3772
     2.9251   3.0021   3.0713   3.1596   3.5780   3.7358   4.7912   5.1763
     6.1280   6.4066

          k = 0.0000-0.5774 0.2065 (  1922 PWs)   bands (ev):

   -10.0354  -9.9239   1.2376   1.2911   1.9895   2.1806   2.2084   2.2567
     3.0098   3.0331   3.0451   3.1488   3.5498   3.6519   5.3953   5.4628
     6.1647   6.1939

          k = 0.0000-0.5774-0.3097 (  1924 PWs)   bands (ev):

    -9.9774  -9.9774   1.1990   1.1990   2.1132   2.1132   2.1778   2.1778
     3.0237   3.0237   3.1107   3.1107   3.5799   3.5799   5.8239   5.8239
     5.9487   5.9487

          k = 0.1667 0.2887 0.0000 (  1899 PWs)   bands (ev):

   -10.3996  -9.9149   1.4196   1.6272   1.8442   1.8964   2.1708   2.2592
     2.7105   2.8444   3.0619   3.2140   3.4258   4.7943   5.0510   5.6250
     6.6785   6.7069

          k = 0.1667 0.2887 0.1032 (  1908 PWs)   bands (ev):

   -10.3669  -9.9469   1.3802   1.5640   1.8345   1.8667   2.1157   2.1411
     2.7549   2.8787   3.0488   3.1616   3.7714   4.9242   5.0342   5.6221
     6.5949   6.6938

          k = 0.1667 0.2887 0.2065 (  1906 PWs)   bands (ev):

   -10.2776 -10.0348   1.3015   1.3874   1.8309   1.8493   2.0066   2.0702
     2.8585   2.9215   3.0155   3.0841   4.2816   4.8961   5.3540   5.7554
     6.3702   6.5029

          k = 0.1667 0.2887-0.3097 (  1912 PWs)   bands (ev):

   -10.1558 -10.1558   1.2796   1.2796   1.8452   1.8452   2.0034   2.0034
     2.9575   2.9575   2.9900   2.9900   4.6403   4.6403   5.9202   5.9202
     6.1264   6.1264

          k = 0.1667 0.4811 0.0000 (  1919 PWs)   bands (ev):

   -10.1055  -9.8707   1.4868   1.7332   1.8881   2.1077   2.3855   2.4598
     2.7951   2.8673   3.0984   3.2860   3.4522   4.0709   4.4533   4.7869
     6.0082   6.2056

          k = 0.1667 0.4811 0.1032 (  1913 PWs)   bands (ev):

   -10.0878  -9.8842   1.4494   1.6460   1.8728   2.0854   2.3167   2.3720
     2.8093   2.9431   3.0946   3.2946   3.4893   4.0959   4.5587   4.9815
     5.9927   6.2036

          k = 0.1667 0.4811 0.2065 (  1914 PWs)   bands (ev):

   -10.0406  -9.9229   1.3646   1.4549   1.8956   2.0433   2.2236   2.2524
     2.8946   2.9744   3.1051   3.2331   3.6451   3.9926   4.8974   5.4529
     5.7743   6.2457

          k = 0.1667 0.4811-0.3097 (  1910 PWs)   bands (ev):

    -9.9796  -9.9796   1.3409   1.3409   1.9731   1.9731   2.1946   2.1946
     2.9579   2.9579   3.1550   3.1550   3.8252   3.8252   5.3047   5.3047
     6.0353   6.0353

          k = 0.3333 0.5774 0.0000 (  1923 PWs)   bands (ev):

    -9.9322  -9.9322   1.5745   1.9768   1.9768   2.3183   2.6135   2.6135
     2.7477   2.8858   2.9043   2.9043   3.5914   3.8156   3.8156   5.4095
     5.4095   5.5983

          k = 0.3333 0.5774 0.1032 (  1926 PWs)   bands (ev):

    -9.9295  -9.9295   1.6021   1.8756   1.8756   2.2131   2.4988   2.4988
     2.7662   2.8785   3.0717   3.0717   3.7581   3.7709   3.7709   5.4658
     5.5809   5.5809

          k = 0.3333 0.5774 0.2065 (  1908 PWs)   bands (ev):

    -9.9243  -9.9243   1.6829   1.6829   1.6862   2.0124   2.4166   2.4166
     2.7974   2.8583   3.2693   3.2693   3.6824   3.6824   4.1550   5.1134
     5.9109   5.9109

          k = 0.3333 0.5774-0.3097 (  1908 PWs)   bands (ev):

    -9.9216  -9.9216   1.5945   1.5945   1.8254   1.8254   2.3952   2.3952
     2.8294   2.8294   3.3581   3.3581   3.6281   3.6281   4.6413   4.6413
     6.0725   6.0725

     highest occupied level (ev):     7.3372

!    total energy              =    -361.63463213 Ry
     estimated scf accuracy    <          5.0E-09 Ry

     The total energy is the sum of the following terms:
     one-electron contribution =    -151.04996509 Ry
     hartree contribution      =     117.05909766 Ry
     xc contribution           =    -109.60866617 Ry
     ewald contribution        =    -218.03509853 Ry

     convergence has been achieved in  31 iterations

     Forces acting on atoms (cartesian axes, Ry/au):

     atom    1 type  1   force =     0.00000000    0.00000000    0.00012570
     atom    2 type  1   force =     0.00000000    0.00000000    0.00012570
     atom    3 type  2   force =     0.00000000    0.00000000   -0.00012570
     atom    4 type  2   force =     0.00000000   -0.00000000   -0.00012570
     The non-local contrib.  to forces
     atom    1 type  1   force =     0.00000000    0.00000000   -0.00494353
     atom    2 type  1   force =     0.00000000   -0.00000000   -0.00494353
     atom    3 type  2   force =     0.00000000    0.00000000    0.00542588
     atom    4 type  2   force =     0.00000000    0.00000000    0.00542588
     The ionic contribution  to forces
     atom    1 type  1   force =    -0.00000000    0.00000000    0.06399090
     atom    2 type  1   force =     0.00000000   -0.00000000    0.06399090
     atom    3 type  2   force =    -0.00000000    0.00000000   -0.06399090
     atom    4 type  2   force =     0.00000000   -0.00000000   -0.06399090
     The local contribution  to forces
     atom    1 type  1   force =    -0.00000002    0.00000001   -0.05941161
     atom    2 type  1   force =     0.00000006   -0.00000004   -0.05941162
     atom    3 type  2   force =    -0.00000001    0.00000000    0.05849067
     atom    4 type  2   force =     0.00000002   -0.00000001    0.05849067
     The core correction contribution to forces
     atom    1 type  1   force =    -0.00000000    0.00000000    0.00050281
     atom    2 type  1   force =     0.00000001   -0.00000000    0.00050281
     atom    3 type  2   force =     0.00000000   -0.00000000   -0.00006238
     atom    4 type  2   force =    -0.00000000    0.00000000   -0.00006238
     The Hubbard contrib.    to forces
     atom    1 type  1   force =     0.00000000    0.00000000    0.00000000
     atom    2 type  1   force =     0.00000000    0.00000000    0.00000000
     atom    3 type  2   force =     0.00000000    0.00000000    0.00000000
     atom    4 type  2   force =     0.00000000    0.00000000    0.00000000
     The SCF correction term to forces
     atom    1 type  1   force =     0.00000000   -0.00000000   -0.00002591
     atom    2 type  1   force =    -0.00000000    0.00000000   -0.00002591
     atom    3 type  2   force =     0.00000000   -0.00000000   -0.00000200
     atom    4 type  2   force =    -0.00000000    0.00000000   -0.00000200

     Total force =     0.000251     Total SCF correction =     0.000037
     SCF correction compared to forces is large: reduce conv_thr to get better values


     Computing stress (Cartesian axis) and pressure

          total   stress  (Ry/bohr**3)                   (kbar)     P=       42.21
   0.00028879   0.00000000   0.00000000           42.48        0.00        0.00
   0.00000000   0.00028879   0.00000000            0.00       42.48        0.00
   0.00000000   0.00000000   0.00028320            0.00        0.00       41.66


     Writing all to output data dir ./ZnO_ANN.save/

     init_run     :      1.77s CPU      1.16s WALL (       1 calls)
     electrons    :    112.02s CPU     41.89s WALL (       1 calls)
     forces       :      0.66s CPU      0.30s WALL (       1 calls)
     stress       :      2.26s CPU      1.09s WALL (       1 calls)

     Called by init_run:
     wfcinit      :      0.99s CPU      0.38s WALL (       1 calls)
     potinit      :      0.22s CPU      0.22s WALL (       1 calls)
     hinit0       :      0.44s CPU      0.45s WALL (       1 calls)

     Called by electrons:
     c_bands      :     93.42s CPU     34.54s WALL (      31 calls)
     sum_band     :     13.88s CPU      5.44s WALL (      31 calls)
     v_of_rho     :      1.01s CPU      0.44s WALL (      32 calls)
     newd         :      3.46s CPU      1.39s WALL (      32 calls)
     mix_rho      :      0.17s CPU      0.08s WALL (      31 calls)

     Called by c_bands:
     init_us_2    :      1.25s CPU      0.43s WALL (    1820 calls)
     init_us_2:cp :      1.23s CPU      0.42s WALL (    1820 calls)
     cegterg      :     90.61s CPU     33.49s WALL (     868 calls)

     Called by *egterg:
     cdiaghg      :     14.53s CPU      4.75s WALL (    4866 calls)
     h_psi        :     62.18s CPU     25.25s WALL (    4894 calls)
     s_psi        :      1.41s CPU      0.41s WALL (    4894 calls)
     g_psi        :      0.48s CPU      0.12s WALL (    3998 calls)

     Called by h_psi:
     h_psi:calbec :      2.09s CPU      0.76s WALL (    4894 calls)
     vloc_psi     :     58.19s CPU     23.88s WALL (    4894 calls)
     add_vuspsi   :      1.37s CPU      0.44s WALL (    4894 calls)

     General routines
     calbec       :      2.70s CPU      0.96s WALL (    5902 calls)
     fft          :      0.80s CPU      0.46s WALL (     439 calls)
     ffts         :      0.14s CPU      0.11s WALL (      63 calls)
     fftw         :     58.73s CPU     24.19s WALL (  135102 calls)
     interpolate  :      0.16s CPU      0.12s WALL (      32 calls)

     Parallel routines

     PWSCF        :   1m57.24s CPU     44.91s WALL


   This run was terminated on:  16:59:36  13Jun2025            

=------------------------------------------------------------------------------=
   JOB DONE.
=------------------------------------------------------------------------------=
Note: The following floating-point exceptions are signalling: IEEE_INVALID_FLAG
