Authorization required, but no authorization protocol specified

Authorization required, but no authorization protocol specified

Authorization required, but no authorization protocol specified

Authorization required, but no authorization protocol specified

Authorization required, but no authorization protocol specified

Authorization required, but no authorization protocol specified

Authorization required, but no authorization protocol specified

Authorization required, but no authorization protocol specified

Authorization required, but no authorization protocol specified

Authorization required, but no authorization protocol specified


     Program PWSCF v.7.2 starts on 13Jun2025 at 15:32:10 

     This program is part of the open-source Quantum ESPRESSO suite
     for quantum simulation of materials; please cite
         "P. Giannozzi et al., J. Phys.:Condens. Matter 21 395502 (2009);
         "P. Giannozzi et al., J. Phys.:Condens. Matter 29 465901 (2017);
         "P. Giannozzi et al., J. Chem. Phys. 152 154105 (2020);
          URL http://www.quantum-espresso.org", 
     in publications or presentations arising from this work. More details at
     http://www.quantum-espresso.org/quote

     Parallel version (MPI), running on     8 processors

     MPI processes distributed on     1 nodes
     120742 MiB available memory on the printing compute node when the environment starts

     Reading input from /home/jvc/QEspresso7.2/ZnO_database_python/SCFs.in/scf-5.68-1.47.in

     Current dimensions of program PWSCF are:
     Max number of different atomic species (ntypx) = 10
     Max number of k-points (npk) =  40000
     Max angular momentum in pseudopotentials (lmaxx) =  4
     file Zn.upf: wavefunction(s)  3D renormalized

     R & G space division:  proc/nbgrp/npool/nimage =       8
     Subspace diagonalization in iterative solution of the eigenvalue problem:
     a serial algorithm will be used


     Parallelization info
     --------------------
     sticks:   dense  smooth     PW     G-vecs:    dense   smooth      PW
     Min         111      54     16                 3933     1392     242
     Max         112      55     18                 3938     1399     244
     Sum         889     439    139                31481    11167    1947

     Using Slab Decomposition



     bravais-lattice index     =            4
     lattice parameter (alat)  =       5.6845  a.u.
     unit-cell volume          =     233.6966 (a.u.)^3
     number of atoms/cell      =            4
     number of atomic types    =            2
     number of electrons       =        36.00
     number of Kohn-Sham states=           18
     kinetic-energy cutoff     =      50.0000  Ry
     charge density cutoff     =     400.0000  Ry
     scf convergence threshold =      1.0E-08
     mixing beta               =       0.3000
     number of iterations used =            8  plain     mixing
     Exchange-correlation= PBE
                           (   1   4   3   4   0   0   0)

     celldm(1)=   5.684516  celldm(2)=   0.000000  celldm(3)=   1.469066
     celldm(4)=   0.000000  celldm(5)=   0.000000  celldm(6)=   0.000000

     crystal axes: (cart. coord. in units of alat)
               a(1) = (   1.000000   0.000000   0.000000 )  
               a(2) = (  -0.500000   0.866025   0.000000 )  
               a(3) = (   0.000000   0.000000   1.469066 )  

     reciprocal axes: (cart. coord. in units 2 pi/alat)
               b(1) = (  1.000000  0.577350 -0.000000 )  
               b(2) = (  0.000000  1.154701  0.000000 )  
               b(3) = (  0.000000 -0.000000  0.680705 )  


     PseudoPot. # 1 for Zn read from file:
     /home/jvc/QEspresso7.2/ZnO_database/pseudos/Zn.upf
     MD5 check sum: 7f56cabf9682ed8c977c2f7d0c5985c5
     Pseudo is Ultrasoft + core correction, Zval = 12.0
     Generated using &quot;atomic&quot; code by A. Dal Corso  v.6.2.2
     Using radial grid of 1201 points,  6 beta functions with: 
                l(1) =   0
                l(2) =   0
                l(3) =   1
                l(4) =   1
                l(5) =   2
                l(6) =   2
     Q(r) pseudized with 0 coefficients 


     PseudoPot. # 2 for O  read from file:
     /home/jvc/QEspresso7.2/ZnO_database/pseudos/O.upf
     MD5 check sum: 91400c9766925bcf19f520983a725ff0
     Pseudo is Ultrasoft + core correction, Zval =  6.0
     Generated using &quot;atomic&quot; code by A. Dal Corso  v.6.3MaX
     Using radial grid of 1095 points,  4 beta functions with: 
                l(1) =   0
                l(2) =   0
                l(3) =   1
                l(4) =   1
     Q(r) pseudized with 0 coefficients 


     atomic species   valence    mass     pseudopotential
        Zn            12.00    63.38000     Zn( 1.00)
        O              6.00    15.99900     O ( 1.00)

     12 Sym. Ops. (no inversion) found ( 6 have fractional translation)



   Cartesian axes

     site n.     atom                  positions (alat units)
         1           Zn  tau(   1) = (   0.5000000   0.2886751   0.7354638  )
         2           Zn  tau(   2) = (  -0.0000000   0.5773503   0.0009308  )
         3           O   tau(   3) = (   0.5000000   0.2886751   1.2923028  )
         4           O   tau(   4) = (  -0.0000000   0.5773503   0.5577698  )

     number of k points=    28
                       cart. coord. in units 2pi/alat
        k(    1) = (   0.0000000   0.0000000   0.0000000), wk =   0.0092593
        k(    2) = (   0.0000000   0.0000000   0.1134508), wk =   0.0185185
        k(    3) = (   0.0000000   0.0000000   0.2269015), wk =   0.0185185
        k(    4) = (   0.0000000   0.0000000  -0.3403523), wk =   0.0092593
        k(    5) = (   0.0000000   0.1924501   0.0000000), wk =   0.0555556
        k(    6) = (   0.0000000   0.1924501   0.1134508), wk =   0.1111111
        k(    7) = (   0.0000000   0.1924501   0.2269015), wk =   0.1111111
        k(    8) = (   0.0000000   0.1924501  -0.3403523), wk =   0.0555556
        k(    9) = (   0.0000000   0.3849002   0.0000000), wk =   0.0555556
        k(   10) = (   0.0000000   0.3849002   0.1134508), wk =   0.1111111
        k(   11) = (   0.0000000   0.3849002   0.2269015), wk =   0.1111111
        k(   12) = (   0.0000000   0.3849002  -0.3403523), wk =   0.0555556
        k(   13) = (   0.0000000  -0.5773503   0.0000000), wk =   0.0277778
        k(   14) = (   0.0000000  -0.5773503   0.1134508), wk =   0.0555556
        k(   15) = (   0.0000000  -0.5773503   0.2269015), wk =   0.0555556
        k(   16) = (   0.0000000  -0.5773503  -0.3403523), wk =   0.0277778
        k(   17) = (   0.1666667   0.2886751   0.0000000), wk =   0.0555556
        k(   18) = (   0.1666667   0.2886751   0.1134508), wk =   0.1111111
        k(   19) = (   0.1666667   0.2886751   0.2269015), wk =   0.1111111
        k(   20) = (   0.1666667   0.2886751  -0.3403523), wk =   0.0555556
        k(   21) = (   0.1666667   0.4811252   0.0000000), wk =   0.1111111
        k(   22) = (   0.1666667   0.4811252   0.1134508), wk =   0.2222222
        k(   23) = (   0.1666667   0.4811252   0.2269015), wk =   0.2222222
        k(   24) = (   0.1666667   0.4811252  -0.3403523), wk =   0.1111111
        k(   25) = (   0.3333333   0.5773503   0.0000000), wk =   0.0185185
        k(   26) = (   0.3333333   0.5773503   0.1134508), wk =   0.0370370
        k(   27) = (   0.3333333   0.5773503   0.2269015), wk =   0.0370370
        k(   28) = (   0.3333333   0.5773503  -0.3403523), wk =   0.0185185

     Dense  grid:    31481 G-vectors     FFT dimensions: (  40,  40,  54)

     Smooth grid:    11167 G-vectors     FFT dimensions: (  25,  25,  40)

     Estimated max dynamical RAM per process >      19.31 MB

     Estimated total dynamical RAM >     154.48 MB

     Check: negative core charge=   -0.000001

     Initial potential from superposition of free atoms

     starting charge      35.9925, renormalised to      36.0000
     Starting wfcs are   26 randomized atomic wfcs

     total cpu time spent up to now is        1.3 secs

     Self-consistent Calculation

     iteration #  1     ecut=    50.00 Ry     beta= 0.30
     Davidson diagonalization with overlap
     ethr =  1.00E-02,  avg # of iterations =  2.1

     total cpu time spent up to now is        1.9 secs

     total energy              =    -361.22456772 Ry
     estimated scf accuracy    <       0.71254747 Ry

     iteration #  2     ecut=    50.00 Ry     beta= 0.30
     Davidson diagonalization with overlap
     ethr =  1.98E-03,  avg # of iterations =  2.0

     total cpu time spent up to now is        2.6 secs

     total energy              =    -361.25161984 Ry
     estimated scf accuracy    <       0.15392311 Ry

     iteration #  3     ecut=    50.00 Ry     beta= 0.30
     Davidson diagonalization with overlap
     ethr =  4.28E-04,  avg # of iterations =  6.1

     total cpu time spent up to now is        3.8 secs

     total energy              =    -361.34813612 Ry
     estimated scf accuracy    <       0.08874478 Ry

     iteration #  4     ecut=    50.00 Ry     beta= 0.30
     Davidson diagonalization with overlap
     ethr =  2.47E-04,  avg # of iterations =  2.0

     total cpu time spent up to now is        4.4 secs

     total energy              =    -361.34750050 Ry
     estimated scf accuracy    <       0.02714953 Ry

     iteration #  5     ecut=    50.00 Ry     beta= 0.30
     Davidson diagonalization with overlap
     ethr =  7.54E-05,  avg # of iterations =  9.0

     total cpu time spent up to now is        6.0 secs

     total energy              =    -361.38877467 Ry
     estimated scf accuracy    <       0.47062269 Ry

     iteration #  6     ecut=    50.00 Ry     beta= 0.30
     Davidson diagonalization with overlap
     ethr =  7.54E-05,  avg # of iterations =  5.1

     total cpu time spent up to now is        7.0 secs

     total energy              =    -361.31487783 Ry
     estimated scf accuracy    <       0.17248369 Ry

     iteration #  7     ecut=    50.00 Ry     beta= 0.30
     Davidson diagonalization with overlap
     ethr =  7.54E-05,  avg # of iterations =  7.0

     total cpu time spent up to now is        8.3 secs

     total energy              =    -361.35601198 Ry
     estimated scf accuracy    <       0.00123975 Ry

     iteration #  8     ecut=    50.00 Ry     beta= 0.30
     Davidson diagonalization with overlap
     ethr =  3.44E-06,  avg # of iterations =  4.4

     total cpu time spent up to now is        9.1 secs

     total energy              =    -361.35612711 Ry
     estimated scf accuracy    <       0.00140927 Ry

     iteration #  9     ecut=    50.00 Ry     beta= 0.30
     Davidson diagonalization with overlap
     ethr =  3.44E-06,  avg # of iterations =  1.3

     total cpu time spent up to now is        9.7 secs

     total energy              =    -361.35581212 Ry
     estimated scf accuracy    <       0.00068762 Ry

     iteration # 10     ecut=    50.00 Ry     beta= 0.30
     Davidson diagonalization with overlap
     ethr =  1.91E-06,  avg # of iterations =  4.2

     total cpu time spent up to now is       10.6 secs

     total energy              =    -361.35604969 Ry
     estimated scf accuracy    <       0.00000675 Ry

     iteration # 11     ecut=    50.00 Ry     beta= 0.30
     Davidson diagonalization with overlap
     ethr =  1.87E-08,  avg # of iterations =  8.3

     total cpu time spent up to now is       12.0 secs

     total energy              =    -361.35609874 Ry
     estimated scf accuracy    <       0.00000985 Ry

     iteration # 12     ecut=    50.00 Ry     beta= 0.30
     Davidson diagonalization with overlap
     ethr =  1.87E-08,  avg # of iterations =  5.3

     total cpu time spent up to now is       13.0 secs

     total energy              =    -361.35608050 Ry
     estimated scf accuracy    <       0.00004839 Ry

     iteration # 13     ecut=    50.00 Ry     beta= 0.30
     Davidson diagonalization with overlap
     ethr =  1.87E-08,  avg # of iterations =  6.4

     total cpu time spent up to now is       14.2 secs

     total energy              =    -361.35608494 Ry
     estimated scf accuracy    <       0.00000214 Ry

     iteration # 14     ecut=    50.00 Ry     beta= 0.30
     Davidson diagonalization with overlap
     ethr =  5.93E-09,  avg # of iterations =  6.2

     total cpu time spent up to now is       15.4 secs

     total energy              =    -361.35608687 Ry
     estimated scf accuracy    <       0.00000201 Ry

     iteration # 15     ecut=    50.00 Ry     beta= 0.30
     Davidson diagonalization with overlap
     ethr =  5.58E-09,  avg # of iterations =  1.1

     total cpu time spent up to now is       15.9 secs

     total energy              =    -361.35608641 Ry
     estimated scf accuracy    <       0.00000217 Ry

     iteration # 16     ecut=    50.00 Ry     beta= 0.30
     Davidson diagonalization with overlap
     ethr =  5.58E-09,  avg # of iterations =  1.0

     total cpu time spent up to now is       16.4 secs

     total energy              =    -361.35608606 Ry
     estimated scf accuracy    <       0.00000131 Ry

     iteration # 17     ecut=    50.00 Ry     beta= 0.30
     Davidson diagonalization with overlap
     ethr =  3.65E-09,  avg # of iterations =  1.8

     total cpu time spent up to now is       17.0 secs

     total energy              =    -361.35608606 Ry
     estimated scf accuracy    <       0.00000043 Ry

     iteration # 18     ecut=    50.00 Ry     beta= 0.30
     Davidson diagonalization with overlap
     ethr =  1.19E-09,  avg # of iterations =  3.5

     total cpu time spent up to now is       17.8 secs

     total energy              =    -361.35608619 Ry
     estimated scf accuracy    <       0.00000009 Ry

     iteration # 19     ecut=    50.00 Ry     beta= 0.30
     Davidson diagonalization with overlap
     ethr =  2.40E-10,  avg # of iterations =  2.9

     total cpu time spent up to now is       18.5 secs

     total energy              =    -361.35608623 Ry
     estimated scf accuracy    <       0.00000010 Ry

     iteration # 20     ecut=    50.00 Ry     beta= 0.30
     Davidson diagonalization with overlap
     ethr =  2.40E-10,  avg # of iterations =  1.6

     total cpu time spent up to now is       19.1 secs

     total energy              =    -361.35608624 Ry
     estimated scf accuracy    <       0.00000017 Ry

     iteration # 21     ecut=    50.00 Ry     beta= 0.30
     Davidson diagonalization with overlap
     ethr =  2.40E-10,  avg # of iterations =  1.0

     total cpu time spent up to now is       19.6 secs

     total energy              =    -361.35608620 Ry
     estimated scf accuracy    <       0.00000019 Ry

     iteration # 22     ecut=    50.00 Ry     beta= 0.30
     Davidson diagonalization with overlap
     ethr =  2.40E-10,  avg # of iterations =  1.0

     total cpu time spent up to now is       20.2 secs

     total energy              =    -361.35608615 Ry
     estimated scf accuracy    <       0.00000012 Ry

     iteration # 23     ecut=    50.00 Ry     beta= 0.30
     Davidson diagonalization with overlap
     ethr =  2.40E-10,  avg # of iterations =  3.7

     total cpu time spent up to now is       20.9 secs

     End of self-consistent calculation

          k = 0.0000 0.0000 0.0000 (  1399 PWs)   bands (ev):

    -8.3022  -6.7423   4.6577   5.1428   5.1428   5.2104   5.5259   5.5259
     7.3508   7.3508   7.8822   7.8822   8.3064  11.3922  11.3922  12.9309
    12.9309  12.9605

          k = 0.0000 0.0000 0.1135 (  1393 PWs)   bands (ev):

    -8.2034  -6.8511   4.5146   5.0643   5.1458   5.1458   5.4738   5.4738
     7.4110   7.4110   7.8782   7.8782   8.7673  11.4944  11.4944  12.5008
    12.8318  12.8318

          k = 0.0000 0.0000 0.2269 (  1387 PWs)   bands (ev):

    -7.9288  -7.1465   4.3543   4.7319   5.1701   5.1701   5.3552   5.3552
     7.5584   7.5584   7.8360   7.8360   9.7834  11.7513  11.7782  11.7782
    12.5558  12.5558

          k = 0.0000 0.0000-0.3404 (  1386 PWs)   bands (ev):

    -7.5431  -7.5431   4.4345   4.4345   5.2400   5.2400   5.2400   5.2400
     7.7222   7.7222   7.7222   7.7222  10.8516  10.8516  12.1693  12.1693
    12.1693  12.1693

          k = 0.0000 0.1925 0.0000 (  1405 PWs)   bands (ev):

    -8.0624  -6.6756   4.7484   4.9283   5.2486   5.3507   5.5524   5.6925
     7.2311   7.3574   7.8281   7.9236   8.4248  10.4156  10.8750  11.8471
    12.6824  12.6840

          k = 0.0000 0.1925 0.1135 (  1411 PWs)   bands (ev):

    -7.9714  -6.7679   4.5927   4.7572   5.2564   5.3109   5.5113   5.6355
     7.3190   7.4132   7.9064   7.9082   8.8339  10.5297  11.0018  11.6290
    12.5706  12.6732

          k = 0.0000 0.1925 0.2269 (  1406 PWs)   bands (ev):

    -7.7201  -7.0225   4.3186   4.5022   5.2637   5.2926   5.4045   5.5059
     7.5153   7.5531   7.8439   7.8754   9.8235  10.8723  11.2355  11.3464
    12.2542  12.3279

          k = 0.0000 0.1925-0.3404 (  1400 PWs)   bands (ev):

    -7.3724  -7.3724   4.2933   4.2933   5.3016   5.3016   5.3770   5.3770
     7.7160   7.7160   7.7258   7.7258  10.6610  10.6610  11.6030  11.6030
    11.8076  11.8076

          k = 0.0000 0.3849 0.0000 (  1405 PWs)   bands (ev):

    -7.5009  -6.5926   4.3977   4.9012   5.4117   5.4772   6.0610   6.1257
     7.1694   7.5279   7.6823   7.9821   8.6005   9.0818   9.7993  10.3369
    11.9074  12.1128

          k = 0.0000 0.3849 0.1135 (  1402 PWs)   bands (ev):

    -7.4331  -6.6432   4.3050   4.6323   5.4379   5.4509   5.8905   6.0457
     7.2919   7.5590   7.9332   7.9461   8.6990   9.3513   9.9901  10.2297
    11.9777  12.0375

          k = 0.0000 0.3849 0.2269 (  1396 PWs)   bands (ev):

    -7.2511  -6.7912   4.1025   4.2196   5.4345   5.5213   5.6595   5.8611
     7.5358   7.6418   7.8601   7.9658   9.0678   9.6810  10.4675  10.5096
    11.5993  12.0257

          k = 0.0000 0.3849-0.3404 (  1396 PWs)   bands (ev):

    -7.0127  -7.0127   4.0246   4.0246   5.5012   5.5012   5.6675   5.6675
     7.7510   7.7510   7.7836   7.7836   9.4281   9.4281  11.0558  11.0558
    11.4481  11.4481

          k = 0.0000-0.5774 0.0000 (  1386 PWs)   bands (ev):

    -7.1185  -6.6349   4.4774   4.5285   5.4604   5.5952   6.1643   6.4374
     7.4471   7.7461   8.0056   8.0590   8.3596   8.7436   9.1440   9.3498
    11.3699  11.7832

          k = 0.0000-0.5774 0.1135 (  1388 PWs)   bands (ev):

    -7.0738  -6.6527   4.3448   4.3494   5.4993   5.5510   6.0334   6.3270
     7.5794   7.7541   7.9461   8.0706   8.4165   8.6545   9.4040   9.8052
    11.5386  11.6390

          k = 0.0000-0.5774 0.2269 (  1390 PWs)   bands (ev):

    -6.9592  -6.7135   4.0332   4.0701   5.5453   5.6189   5.8060   6.0777
     7.7767   7.7874   7.8658   8.0400   8.5186   8.5996   9.9843  10.6990
    11.2341  11.7446

          k = 0.0000-0.5774-0.3404 (  1408 PWs)   bands (ev):

    -6.8227  -6.8227   3.9129   3.9129   5.6330   5.6330   5.8181   5.8181
     7.8121   7.8121   7.9442   7.9442   8.5766   8.5766  10.6447  10.6447
    11.4785  11.4785

          k = 0.1667 0.2887 0.0000 (  1405 PWs)   bands (ev):

    -7.6585  -6.6019   4.5732   4.8900   5.4219   5.4714   5.8107   6.0098
     7.1426   7.3911   7.7595   7.9651   8.6542   9.4657   9.7603  10.8495
    12.0993  12.1546

          k = 0.1667 0.2887 0.1135 (  1393 PWs)   bands (ev):

    -7.5832  -6.6649   4.4855   4.6548   5.3814   5.4102   5.7160   5.9361
     7.2506   7.5002   7.9346   7.9401   8.9028   9.6582   9.9162  10.6913
    11.9565  12.2530

          k = 0.1667 0.2887 0.2269 (  1398 PWs)   bands (ev):

    -7.3790  -6.8450   4.2714   4.2754   5.3400   5.3655   5.6193   5.7784
     7.4882   7.6214   7.8672   7.9419   9.4898  10.1660  10.3945  10.5505
    11.5704  12.1449

          k = 0.1667 0.2887-0.3404 (  1398 PWs)   bands (ev):

    -7.1061  -7.1061   4.1395   4.1395   5.3435   5.3435   5.6422   5.6422
     7.7114   7.7114   7.7884   7.7884   9.9085   9.9085  10.9848  10.9848
    11.4885  11.4885

          k = 0.1667 0.4811 0.0000 (  1394 PWs)   bands (ev):

    -7.1372  -6.6230   4.5875   4.8556   5.3509   5.5475   6.2481   6.4108
     7.3244   7.3929   7.9464   8.0060   8.3144   8.6364   9.3184   9.6708
    11.2355  11.4775

          k = 0.1667 0.4811 0.1135 (  1387 PWs)   bands (ev):

    -7.0908  -6.6432   4.4699   4.6575   5.3258   5.4947   6.0927   6.2666
     7.3516   7.6465   7.9704   8.1011   8.3200   8.8454   9.2984   9.9562
    11.1898  11.5514

          k = 0.1667 0.4811 0.2269 (  1389 PWs)   bands (ev):

    -6.9713  -6.7101   4.2186   4.2809   5.3375   5.4275   5.9290   6.0483
     7.5204   7.7072   7.9827   8.1675   8.5376   9.0320   9.5237  10.5997
    10.9107  11.7558

          k = 0.1667 0.4811-0.3404 (  1388 PWs)   bands (ev):

    -6.8275  -6.8275   4.1018   4.1018   5.3820   5.3820   5.9117   5.9117
     7.6539   7.6539   8.0597   8.0597   8.8367   8.8367  10.1357  10.1357
    11.5211  11.5211

          k = 0.3333 0.5774 0.0000 (  1404 PWs)   bands (ev):

    -6.7970  -6.7970   4.9255   5.1858   5.1858   5.4921   6.4226   6.4226
     7.2549   7.4805   7.4805   7.6177   8.0969   8.9797   8.9797  10.4572
    10.4572  10.6507

          k = 0.3333 0.5774 0.1135 (  1407 PWs)   bands (ev):

    -6.7820  -6.7820   4.9463   4.9605   4.9605   5.4253   6.2686   6.2686
     7.2783   7.5938   7.7878   7.7878   8.2744   8.9066   8.9066  10.4634
    10.7346  10.7346

          k = 0.3333 0.5774 0.2269 (  1389 PWs)   bands (ev):

    -6.7515  -6.7515   4.5561   4.5561   5.0123   5.2765   6.1325   6.1325
     7.3447   7.5284   8.2157   8.2157   8.7360   8.7562   8.7562   9.9766
    11.2784  11.2784

          k = 0.3333 0.5774-0.3404 (  1380 PWs)   bands (ev):

    -6.7360  -6.7360   4.3759   4.3759   5.1253   5.1253   6.0921   6.0921
     7.4371   7.4371   8.4586   8.4586   8.6116   8.6116   9.3490   9.3490
    11.5504  11.5504

     highest occupied level (ev):    12.9605

!    total energy              =    -361.35608617 Ry
     estimated scf accuracy    <          4.7E-09 Ry

     The total energy is the sum of the following terms:
     one-electron contribution =    -114.41197689 Ry
     hartree contribution      =     104.89214901 Ry
     xc contribution           =    -110.43852256 Ry
     ewald contribution        =    -241.39773572 Ry

     convergence has been achieved in  23 iterations

     Forces acting on atoms (cartesian axes, Ry/au):

     atom    1 type  1   force =     0.00000000    0.00000000   -0.15145719
     atom    2 type  1   force =     0.00000000    0.00000000   -0.15145719
     atom    3 type  2   force =     0.00000000    0.00000000    0.15145719
     atom    4 type  2   force =     0.00000000   -0.00000000    0.15145719
     The non-local contrib.  to forces
     atom    1 type  1   force =     0.00000000    0.00000000   -0.33115639
     atom    2 type  1   force =     0.00000000    0.00000000   -0.33115639
     atom    3 type  2   force =     0.00000000   -0.00000000   -0.17430083
     atom    4 type  2   force =     0.00000000    0.00000000   -0.17430083
     The ionic contribution  to forces
     atom    1 type  1   force =    -0.00000000    0.00000000   -2.36410398
     atom    2 type  1   force =     0.00000000   -0.00000000   -2.36410398
     atom    3 type  2   force =    -0.00000000    0.00000000    2.36410398
     atom    4 type  2   force =     0.00000000   -0.00000000    2.36410398
     The local contribution  to forces
     atom    1 type  1   force =    -0.00000002    0.00000001    2.50896748
     atom    2 type  1   force =     0.00000006   -0.00000003    2.50896748
     atom    3 type  2   force =    -0.00000001    0.00000000   -2.03906857
     atom    4 type  2   force =     0.00000002   -0.00000001   -2.03906856
     The core correction contribution to forces
     atom    1 type  1   force =    -0.00000000    0.00000000    0.03482142
     atom    2 type  1   force =     0.00000001   -0.00000000    0.03482142
     atom    3 type  2   force =     0.00000000   -0.00000000    0.00072246
     atom    4 type  2   force =    -0.00000000    0.00000000    0.00072246
     The Hubbard contrib.    to forces
     atom    1 type  1   force =     0.00000000    0.00000000    0.00000000
     atom    2 type  1   force =     0.00000000    0.00000000    0.00000000
     atom    3 type  2   force =     0.00000000    0.00000000    0.00000000
     atom    4 type  2   force =     0.00000000    0.00000000    0.00000000
     The SCF correction term to forces
     atom    1 type  1   force =    -0.00000000    0.00000000    0.00001655
     atom    2 type  1   force =     0.00000000   -0.00000000    0.00001655
     atom    3 type  2   force =    -0.00000000    0.00000000    0.00000242
     atom    4 type  2   force =     0.00000000   -0.00000000    0.00000242

     Total force =     0.302914     Total SCF correction =     0.000024


     Computing stress (Cartesian axis) and pressure

          total   stress  (Ry/bohr**3)                   (kbar)     P=     1035.39
   0.00542757   0.00000000   0.00000000          798.42        0.00        0.00
   0.00000000   0.00542757   0.00000000            0.00      798.42        0.00
   0.00000000   0.00000000   0.01026017            0.00        0.00     1509.32


     Writing all to output data dir ./ZnO_ANN.save/

     init_run     :      1.39s CPU      0.97s WALL (       1 calls)
     electrons    :     51.95s CPU     19.66s WALL (       1 calls)
     forces       :      0.52s CPU      0.24s WALL (       1 calls)
     stress       :      1.74s CPU      0.85s WALL (       1 calls)

     Called by init_run:
     wfcinit      :      0.69s CPU      0.27s WALL (       1 calls)
     potinit      :      0.17s CPU      0.17s WALL (       1 calls)
     hinit0       :      0.44s CPU      0.45s WALL (       1 calls)

     Called by electrons:
     c_bands      :     42.46s CPU     15.84s WALL (      23 calls)
     sum_band     :      6.85s CPU      2.71s WALL (      23 calls)
     v_of_rho     :      0.63s CPU      0.28s WALL (      24 calls)
     newd         :      1.87s CPU      0.78s WALL (      24 calls)
     mix_rho      :      0.11s CPU      0.05s WALL (      23 calls)

     Called by c_bands:
     init_us_2    :      0.67s CPU      0.25s WALL (    1372 calls)
     init_us_2:cp :      0.66s CPU      0.24s WALL (    1372 calls)
     cegterg      :     40.87s CPU     15.25s WALL (     644 calls)

     Called by *egterg:
     cdiaghg      :      8.58s CPU      2.94s WALL (    3086 calls)
     h_psi        :     25.84s CPU     10.53s WALL (    3114 calls)
     s_psi        :      0.74s CPU      0.23s WALL (    3114 calls)
     g_psi        :      0.20s CPU      0.06s WALL (    2442 calls)

     Called by h_psi:
     h_psi:calbec :      1.13s CPU      0.44s WALL (    3114 calls)
     vloc_psi     :     23.74s CPU      9.76s WALL (    3114 calls)
     add_vuspsi   :      0.72s CPU      0.25s WALL (    3114 calls)

     General routines
     calbec       :      1.49s CPU      0.57s WALL (    3898 calls)
     fft          :      0.55s CPU      0.35s WALL (     335 calls)
     ffts         :      0.09s CPU      0.08s WALL (      47 calls)
     fftw         :     23.34s CPU      9.60s WALL (   88724 calls)
     interpolate  :      0.11s CPU      0.09s WALL (      24 calls)

     Parallel routines

     PWSCF        :     56.14s CPU     22.16s WALL


   This run was terminated on:  15:32:32  13Jun2025            

=------------------------------------------------------------------------------=
   JOB DONE.
=------------------------------------------------------------------------------=
Note: The following floating-point exceptions are signalling: IEEE_INVALID_FLAG
