Authorization required, but no authorization protocol specified

Authorization required, but no authorization protocol specified

Authorization required, but no authorization protocol specified

Authorization required, but no authorization protocol specified

Authorization required, but no authorization protocol specified

Authorization required, but no authorization protocol specified

Authorization required, but no authorization protocol specified

Authorization required, but no authorization protocol specified

Authorization required, but no authorization protocol specified

Authorization required, but no authorization protocol specified


     Program PWSCF v.7.2 starts on 13Jun2025 at 16: 6:59 

     This program is part of the open-source Quantum ESPRESSO suite
     for quantum simulation of materials; please cite
         "P. Giannozzi et al., J. Phys.:Condens. Matter 21 395502 (2009);
         "P. Giannozzi et al., J. Phys.:Condens. Matter 29 465901 (2017);
         "P. Giannozzi et al., J. Chem. Phys. 152 154105 (2020);
          URL http://www.quantum-espresso.org", 
     in publications or presentations arising from this work. More details at
     http://www.quantum-espresso.org/quote

     Parallel version (MPI), running on     8 processors

     MPI processes distributed on     1 nodes
     120717 MiB available memory on the printing compute node when the environment starts

     Reading input from /home/jvc/QEspresso7.2/ZnO_database_python/SCFs.in/scf-5.87-1.60.in

     Current dimensions of program PWSCF are:
     Max number of different atomic species (ntypx) = 10
     Max number of k-points (npk) =  40000
     Max angular momentum in pseudopotentials (lmaxx) =  4
     file Zn.upf: wavefunction(s)  3D renormalized

     R & G space division:  proc/nbgrp/npool/nimage =       8
     Subspace diagonalization in iterative solution of the eigenvalue problem:
     a serial algorithm will be used


     Parallelization info
     --------------------
     sticks:   dense  smooth     PW     G-vecs:    dense   smooth      PW
     Min         119      59     18                 4729     1663     288
     Max         120      60     19                 4736     1668     291
     Sum         955     475    151                37853    13321    2321

     Using Slab Decomposition



     bravais-lattice index     =            4
     lattice parameter (alat)  =       5.8699  a.u.
     unit-cell volume          =     279.9326 (a.u.)^3
     number of atoms/cell      =            4
     number of atomic types    =            2
     number of electrons       =        36.00
     number of Kohn-Sham states=           18
     kinetic-energy cutoff     =      50.0000  Ry
     charge density cutoff     =     400.0000  Ry
     scf convergence threshold =      1.0E-08
     mixing beta               =       0.3000
     number of iterations used =            8  plain     mixing
     Exchange-correlation= PBE
                           (   1   4   3   4   0   0   0)

     celldm(1)=   5.869880  celldm(2)=   0.000000  celldm(3)=   1.598215
     celldm(4)=   0.000000  celldm(5)=   0.000000  celldm(6)=   0.000000

     crystal axes: (cart. coord. in units of alat)
               a(1) = (   1.000000   0.000000   0.000000 )  
               a(2) = (  -0.500000   0.866025   0.000000 )  
               a(3) = (   0.000000   0.000000   1.598215 )  

     reciprocal axes: (cart. coord. in units 2 pi/alat)
               b(1) = (  1.000000  0.577350 -0.000000 )  
               b(2) = (  0.000000  1.154701  0.000000 )  
               b(3) = (  0.000000 -0.000000  0.625698 )  


     PseudoPot. # 1 for Zn read from file:
     /home/jvc/QEspresso7.2/ZnO_database/pseudos/Zn.upf
     MD5 check sum: 7f56cabf9682ed8c977c2f7d0c5985c5
     Pseudo is Ultrasoft + core correction, Zval = 12.0
     Generated using &quot;atomic&quot; code by A. Dal Corso  v.6.2.2
     Using radial grid of 1201 points,  6 beta functions with: 
                l(1) =   0
                l(2) =   0
                l(3) =   1
                l(4) =   1
                l(5) =   2
                l(6) =   2
     Q(r) pseudized with 0 coefficients 


     PseudoPot. # 2 for O  read from file:
     /home/jvc/QEspresso7.2/ZnO_database/pseudos/O.upf
     MD5 check sum: 91400c9766925bcf19f520983a725ff0
     Pseudo is Ultrasoft + core correction, Zval =  6.0
     Generated using &quot;atomic&quot; code by A. Dal Corso  v.6.3MaX
     Using radial grid of 1095 points,  4 beta functions with: 
                l(1) =   0
                l(2) =   0
                l(3) =   1
                l(4) =   1
     Q(r) pseudized with 0 coefficients 


     atomic species   valence    mass     pseudopotential
        Zn            12.00    63.38000     Zn( 1.00)
        O              6.00    15.99900     O ( 1.00)

     12 Sym. Ops. (no inversion) found ( 6 have fractional translation)



   Cartesian axes

     site n.     atom                  positions (alat units)
         1           Zn  tau(   1) = (   0.5000000   0.2886751   0.8001200  )
         2           Zn  tau(   2) = (  -0.0000000   0.5773503   0.0010126  )
         3           O   tau(   3) = (   0.5000000   0.2886751   1.4059118  )
         4           O   tau(   4) = (  -0.0000000   0.5773503   0.6068045  )

     number of k points=    28
                       cart. coord. in units 2pi/alat
        k(    1) = (   0.0000000   0.0000000   0.0000000), wk =   0.0092593
        k(    2) = (   0.0000000   0.0000000   0.1042830), wk =   0.0185185
        k(    3) = (   0.0000000   0.0000000   0.2085660), wk =   0.0185185
        k(    4) = (   0.0000000   0.0000000  -0.3128491), wk =   0.0092593
        k(    5) = (   0.0000000   0.1924501   0.0000000), wk =   0.0555556
        k(    6) = (   0.0000000   0.1924501   0.1042830), wk =   0.1111111
        k(    7) = (   0.0000000   0.1924501   0.2085660), wk =   0.1111111
        k(    8) = (   0.0000000   0.1924501  -0.3128491), wk =   0.0555556
        k(    9) = (   0.0000000   0.3849002   0.0000000), wk =   0.0555556
        k(   10) = (   0.0000000   0.3849002   0.1042830), wk =   0.1111111
        k(   11) = (   0.0000000   0.3849002   0.2085660), wk =   0.1111111
        k(   12) = (   0.0000000   0.3849002  -0.3128491), wk =   0.0555556
        k(   13) = (   0.0000000  -0.5773503   0.0000000), wk =   0.0277778
        k(   14) = (   0.0000000  -0.5773503   0.1042830), wk =   0.0555556
        k(   15) = (   0.0000000  -0.5773503   0.2085660), wk =   0.0555556
        k(   16) = (   0.0000000  -0.5773503  -0.3128491), wk =   0.0277778
        k(   17) = (   0.1666667   0.2886751   0.0000000), wk =   0.0555556
        k(   18) = (   0.1666667   0.2886751   0.1042830), wk =   0.1111111
        k(   19) = (   0.1666667   0.2886751   0.2085660), wk =   0.1111111
        k(   20) = (   0.1666667   0.2886751  -0.3128491), wk =   0.0555556
        k(   21) = (   0.1666667   0.4811252   0.0000000), wk =   0.1111111
        k(   22) = (   0.1666667   0.4811252   0.1042830), wk =   0.2222222
        k(   23) = (   0.1666667   0.4811252   0.2085660), wk =   0.2222222
        k(   24) = (   0.1666667   0.4811252  -0.3128491), wk =   0.1111111
        k(   25) = (   0.3333333   0.5773503   0.0000000), wk =   0.0185185
        k(   26) = (   0.3333333   0.5773503   0.1042830), wk =   0.0370370
        k(   27) = (   0.3333333   0.5773503   0.2085660), wk =   0.0370370
        k(   28) = (   0.3333333   0.5773503  -0.3128491), wk =   0.0185185

     Dense  grid:    37853 G-vectors     FFT dimensions: (  40,  40,  60)

     Smooth grid:    13321 G-vectors     FFT dimensions: (  27,  27,  48)

     Estimated max dynamical RAM per process >      22.53 MB

     Estimated total dynamical RAM >     180.22 MB

     Check: negative core charge=   -0.000002

     Initial potential from superposition of free atoms

     starting charge      35.9925, renormalised to      36.0000
     Starting wfcs are   26 randomized atomic wfcs

     total cpu time spent up to now is        1.5 secs

     Self-consistent Calculation

     iteration #  1     ecut=    50.00 Ry     beta= 0.30
     Davidson diagonalization with overlap
     ethr =  1.00E-02,  avg # of iterations =  2.0

     total cpu time spent up to now is        2.3 secs

     total energy              =    -361.44568782 Ry
     estimated scf accuracy    <       0.67122848 Ry

     iteration #  2     ecut=    50.00 Ry     beta= 0.30
     Davidson diagonalization with overlap
     ethr =  1.86E-03,  avg # of iterations =  2.0

     total cpu time spent up to now is        3.3 secs

     total energy              =    -361.50391526 Ry
     estimated scf accuracy    <       0.11908488 Ry

     iteration #  3     ecut=    50.00 Ry     beta= 0.30
     Davidson diagonalization with overlap
     ethr =  3.31E-04,  avg # of iterations =  6.1

     total cpu time spent up to now is        4.8 secs

     total energy              =    -361.56518374 Ry
     estimated scf accuracy    <       0.08345847 Ry

     iteration #  4     ecut=    50.00 Ry     beta= 0.30
     Davidson diagonalization with overlap
     ethr =  2.32E-04,  avg # of iterations =  2.2

     total cpu time spent up to now is        5.7 secs

     total energy              =    -361.59127578 Ry
     estimated scf accuracy    <       0.01116605 Ry

     iteration #  5     ecut=    50.00 Ry     beta= 0.30
     Davidson diagonalization with overlap
     ethr =  3.10E-05,  avg # of iterations = 10.8

     total cpu time spent up to now is        8.2 secs

     total energy              =    -361.68687734 Ry
     estimated scf accuracy    <       0.60169814 Ry

     iteration #  6     ecut=    50.00 Ry     beta= 0.30
     Davidson diagonalization with overlap
     ethr =  3.10E-05,  avg # of iterations =  5.4

     total cpu time spent up to now is        9.5 secs

     total energy              =    -361.56609765 Ry
     estimated scf accuracy    <       0.39756942 Ry

     iteration #  7     ecut=    50.00 Ry     beta= 0.30
     Davidson diagonalization with overlap
     ethr =  3.10E-05,  avg # of iterations =  8.2

     total cpu time spent up to now is       11.4 secs

     total energy              =    -361.56380720 Ry
     estimated scf accuracy    <       0.05130550 Ry

     iteration #  8     ecut=    50.00 Ry     beta= 0.30
     Davidson diagonalization with overlap
     ethr =  3.10E-05,  avg # of iterations =  8.8

     total cpu time spent up to now is       13.4 secs

     total energy              =    -361.59524283 Ry
     estimated scf accuracy    <       0.02803262 Ry

     iteration #  9     ecut=    50.00 Ry     beta= 0.30
     Davidson diagonalization with overlap
     ethr =  3.10E-05,  avg # of iterations =  1.2

     total cpu time spent up to now is       14.2 secs

     total energy              =    -361.58791725 Ry
     estimated scf accuracy    <       0.03149380 Ry

     iteration # 10     ecut=    50.00 Ry     beta= 0.30
     Davidson diagonalization with overlap
     ethr =  3.10E-05,  avg # of iterations =  2.0

     total cpu time spent up to now is       15.0 secs

     total energy              =    -361.58062397 Ry
     estimated scf accuracy    <       0.01803975 Ry

     iteration # 11     ecut=    50.00 Ry     beta= 0.30
     Davidson diagonalization with overlap
     ethr =  3.10E-05,  avg # of iterations =  5.0

     total cpu time spent up to now is       16.3 secs

     total energy              =    -361.58548613 Ry
     estimated scf accuracy    <       0.00002123 Ry

     iteration # 12     ecut=    50.00 Ry     beta= 0.30
     Davidson diagonalization with overlap
     c_bands:  1 eigenvalues not converged
     ethr =  5.90E-08,  avg # of iterations = 11.3

     total cpu time spent up to now is       18.6 secs

     total energy              =    -361.58576097 Ry
     estimated scf accuracy    <       0.00021939 Ry

     iteration # 13     ecut=    50.00 Ry     beta= 0.30
     Davidson diagonalization with overlap
     ethr =  5.90E-08,  avg # of iterations =  9.5

     total cpu time spent up to now is       20.9 secs

     total energy              =    -361.58580725 Ry
     estimated scf accuracy    <       0.00013921 Ry

     iteration # 14     ecut=    50.00 Ry     beta= 0.30
     Davidson diagonalization with overlap
     ethr =  5.90E-08,  avg # of iterations =  7.9

     total cpu time spent up to now is       22.8 secs

     total energy              =    -361.58586317 Ry
     estimated scf accuracy    <       0.00001156 Ry

     iteration # 15     ecut=    50.00 Ry     beta= 0.30
     Davidson diagonalization with overlap
     ethr =  3.21E-08,  avg # of iterations =  5.1

     total cpu time spent up to now is       24.1 secs

     total energy              =    -361.58585961 Ry
     estimated scf accuracy    <       0.00007019 Ry

     iteration # 16     ecut=    50.00 Ry     beta= 0.30
     Davidson diagonalization with overlap
     ethr =  3.21E-08,  avg # of iterations =  1.0

     total cpu time spent up to now is       24.9 secs

     total energy              =    -361.58584915 Ry
     estimated scf accuracy    <       0.00005343 Ry

     iteration # 17     ecut=    50.00 Ry     beta= 0.30
     Davidson diagonalization with overlap
     ethr =  3.21E-08,  avg # of iterations =  3.6

     total cpu time spent up to now is       25.9 secs

     total energy              =    -361.58584721 Ry
     estimated scf accuracy    <       0.00002201 Ry

     iteration # 18     ecut=    50.00 Ry     beta= 0.30
     Davidson diagonalization with overlap
     ethr =  3.21E-08,  avg # of iterations =  1.9

     total cpu time spent up to now is       26.7 secs

     total energy              =    -361.58584575 Ry
     estimated scf accuracy    <       0.00001171 Ry

     iteration # 19     ecut=    50.00 Ry     beta= 0.30
     Davidson diagonalization with overlap
     ethr =  3.21E-08,  avg # of iterations =  2.6

     total cpu time spent up to now is       27.6 secs

     total energy              =    -361.58584829 Ry
     estimated scf accuracy    <       0.00000247 Ry

     iteration # 20     ecut=    50.00 Ry     beta= 0.30
     Davidson diagonalization with overlap
     ethr =  6.87E-09,  avg # of iterations =  3.6

     total cpu time spent up to now is       28.6 secs

     total energy              =    -361.58584769 Ry
     estimated scf accuracy    <       0.00000248 Ry

     iteration # 21     ecut=    50.00 Ry     beta= 0.30
     Davidson diagonalization with overlap
     ethr =  6.87E-09,  avg # of iterations =  2.5

     total cpu time spent up to now is       29.5 secs

     total energy              =    -361.58584787 Ry
     estimated scf accuracy    <       0.00000051 Ry

     iteration # 22     ecut=    50.00 Ry     beta= 0.30
     Davidson diagonalization with overlap
     ethr =  1.41E-09,  avg # of iterations =  5.4

     total cpu time spent up to now is       30.8 secs

     End of self-consistent calculation

          k = 0.0000 0.0000 0.0000 (  1713 PWs)   bands (ev):

    -9.7980  -8.8257   2.7259   3.0397   3.0397   3.0984   3.2862   3.2862
     4.6745   4.6745   4.9719   4.9719   5.3008   8.5335   8.5335   9.4085
     9.5235   9.5235

          k = 0.0000 0.0000 0.1043 (  1713 PWs)   bands (ev):

    -9.7370  -8.8953   2.6583   3.0180   3.0480   3.0480   3.2603   3.2603
     4.7022   4.7022   4.9612   4.9612   5.6076   8.6005   8.6005   8.8829
     9.4585   9.4585

          k = 0.0000 0.0000 0.2086 (  1689 PWs)   bands (ev):

    -9.5676  -9.0819   2.5890   2.8291   3.0761   3.0761   3.1974   3.1974
     4.7732   4.7732   4.9246   4.9246   6.3380   8.0734   8.7834   8.7834
     9.2795   9.2795

          k = 0.0000 0.0000-0.3128 (  1654 PWs)   bands (ev):

    -9.3290  -9.3290   2.6518   2.6518   3.1285   3.1285   3.1285   3.1285
     4.8572   4.8572   4.8572   4.8572   7.2112   7.2112   9.0325   9.0325
     9.0325   9.0325

          k = 0.0000 0.1925 0.0000 (  1685 PWs)   bands (ev):

    -9.6080  -8.7463   2.7843   3.0117   3.1390   3.1704   3.3036   3.4335
     4.5881   4.6723   4.9896   5.0373   5.2940   7.5563   8.1192   8.4162
     9.1862   9.2967

          k = 0.0000 0.1925 0.1043 (  1687 PWs)   bands (ev):

    -9.5527  -8.8063   2.7191   2.8496   3.1505   3.1820   3.3034   3.4041
     4.6327   4.6987   4.9744   5.0152   5.6370   7.6320   8.2011   8.2378
     9.1068   9.2204

          k = 0.0000 0.1925 0.2086 (  1683 PWs)   bands (ev):

    -9.3997  -8.9686   2.5771   2.6650   3.1800   3.1875   3.2651   3.3321
     4.7368   4.7673   4.9273   4.9544   6.3916   7.7028   7.9896   8.4223
     8.7899   9.0104

          k = 0.0000 0.1925-0.3128 (  1666 PWs)   bands (ev):

    -9.1865  -9.1865   2.5516   2.5516   3.2112   3.2112   3.2514   3.2514
     4.8528   4.8528   4.8557   4.8557   7.1650   7.1650   8.3283   8.3283
     8.7191   8.7191

          k = 0.0000 0.3849 0.0000 (  1674 PWs)   bands (ev):

    -9.1755  -8.6150   2.5328   2.9760   3.3004   3.4434   3.7826   3.7990
     4.5172   4.7767   5.0063   5.0185   5.4832   6.0178   7.1152   7.2558
     8.5385   8.7929

          k = 0.0000 0.3849 0.1043 (  1668 PWs)   bands (ev):

    -9.1365  -8.6505   2.4842   2.8109   3.3247   3.4251   3.6805   3.7534
     4.5883   4.7913   4.9985   5.0839   5.6731   6.1751   7.0461   7.3721
     8.5676   8.6974

          k = 0.0000 0.3849 0.2086 (  1670 PWs)   bands (ev):

    -9.0307  -8.7494   2.3906   2.5296   3.3962   3.4173   3.5493   3.6402
     4.7363   4.8317   4.9487   5.0294   6.0239   6.4437   7.2066   7.6747
     8.4297   8.4336

          k = 0.0000 0.3849-0.3128 (  1670 PWs)   bands (ev):

    -8.8884  -8.8884   2.3766   2.3766   3.4585   3.4585   3.5081   3.5081
     4.8883   4.8883   4.8957   4.8957   6.2938   6.2938   7.9025   7.9025
     8.0632   8.0632

          k = 0.0000-0.5774 0.0000 (  1654 PWs)   bands (ev):

    -8.8961  -8.5984   2.6307   2.7281   3.3537   3.6378   3.8474   4.0397
     4.7045   4.9139   5.0386   5.1256   5.5025   5.6428   6.2970   6.7547
     8.0262   8.5102

          k = 0.0000-0.5774 0.1043 (  1662 PWs)   bands (ev):

    -8.8726  -8.6143   2.5553   2.6127   3.3869   3.6097   3.7981   3.9754
     4.7924   4.9178   5.0174   5.1252   5.5014   5.5730   6.6265   6.8997
     8.1195   8.4056

          k = 0.0000-0.5774 0.2086 (  1672 PWs)   bands (ev):

    -8.8107  -8.6610   2.4027   2.4100   3.4843   3.5956   3.7045   3.8179
     4.9291   4.9377   4.9793   5.1068   5.4961   5.5101   7.2604   7.3018
     8.1154   8.1942

          k = 0.0000-0.5774-0.3128 (  1664 PWs)   bands (ev):

    -8.7320  -8.7320   2.3236   2.3236   3.6298   3.6298   3.6368   3.6368
     4.9491   4.9491   5.0472   5.0472   5.4928   5.4928   7.7035   7.7035
     7.9227   7.9227

          k = 0.1667 0.2887 0.0000 (  1673 PWs)   bands (ev):

    -9.2946  -8.6415   2.6889   2.9494   3.3021   3.3357   3.5911   3.7108
     4.5147   4.6943   5.0078   5.0517   5.4443   6.6147   7.0143   7.6005
     8.7592   8.7713

          k = 0.1667 0.2887 0.1043 (  1670 PWs)   bands (ev):

    -9.2505  -8.6843   2.6349   2.8211   3.2848   3.2945   3.5335   3.6726
     4.5758   4.7448   4.9896   5.0860   5.7261   6.7410   7.0570   7.5459
     8.6585   8.7653

          k = 0.1667 0.2887 0.2086 (  1674 PWs)   bands (ev):

    -9.1298  -8.8023   2.5199   2.5767   3.2697   3.2819   3.4808   3.5826
     4.7179   4.8086   4.9427   5.0187   6.3072   6.9797   7.1949   7.6471
     8.3881   8.5521

          k = 0.1667 0.2887-0.3128 (  1672 PWs)   bands (ev):

    -8.9654  -8.9654   2.4661   2.4661   3.2789   3.2789   3.4979   3.4979
     4.8599   4.8599   4.8983   4.8983   6.7096   6.7096   7.8500   7.8500
     8.1022   8.1022

          k = 0.1667 0.4811 0.0000 (  1665 PWs)   bands (ev):

    -8.9083  -8.5921   2.7459   2.9930   3.3079   3.5313   3.9292   4.0401
     4.6122   4.7057   5.0490   5.1482   5.3878   5.9615   6.1896   6.6276
     7.9585   8.2105

          k = 0.1667 0.4811 0.1043 (  1669 PWs)   bands (ev):

    -8.8837  -8.6093   2.6824   2.8710   3.2948   3.4996   3.8460   3.9512
     4.6395   4.8313   5.0401   5.2492   5.3519   6.0389   6.2857   6.8120
     7.9445   8.2018

          k = 0.1667 0.4811 0.2086 (  1670 PWs)   bands (ev):

    -8.8186  -8.6597   2.5497   2.6297   3.3181   3.4503   3.7527   3.8129
     4.7580   4.8786   5.0487   5.2105   5.5330   5.9448   6.6829   7.3122
     7.7088   8.2401

          k = 0.1667 0.4811-0.3128 (  1670 PWs)   bands (ev):

    -8.7355  -8.7355   2.5004   2.5004   3.3875   3.3875   3.7341   3.7341
     4.8508   4.8508   5.1088   5.1088   5.7593   5.7593   7.1510   7.1510
     7.9977   7.9977

          k = 0.3333 0.5774 0.0000 (  1662 PWs)   bands (ev):

    -8.6781  -8.6781   2.9235   3.3564   3.3564   3.6016   4.1314   4.1314
     4.5542   4.7078   4.7078   4.7626   5.3576   5.8278   5.8278   7.2958
     7.2958   7.4766

          k = 0.3333 0.5774 0.1043 (  1683 PWs)   bands (ev):

    -8.6736  -8.6736   2.9503   3.2016   3.2016   3.5174   4.0396   4.0396
     4.5768   4.7512   4.9173   4.9173   5.5118   5.7720   5.7720   7.3271
     7.4802   7.4802

          k = 0.3333 0.5774 0.2086 (  1680 PWs)   bands (ev):

    -8.6645  -8.6645   2.9326   2.9326   3.0316   3.3405   3.9682   3.9682
     4.6232   4.7192   5.2146   5.2146   5.6469   5.6469   5.9072   6.9344
     7.8433   7.8433

          k = 0.3333 0.5774-0.3128 (  1650 PWs)   bands (ev):

    -8.6599  -8.6599   2.8150   2.8150   3.1658   3.1658   3.9488   3.9488
     4.6738   4.6738   5.3920   5.3920   5.5292   5.5292   6.4202   6.4202
     8.0246   8.0246

     highest occupied level (ev):     9.5235

!    total energy              =    -361.58584812 Ry
     estimated scf accuracy    <          7.6E-09 Ry

     The total energy is the sum of the following terms:
     one-electron contribution =    -135.32818958 Ry
     hartree contribution      =     111.61444817 Ry
     xc contribution           =    -109.91594427 Ry
     ewald contribution        =    -227.95616244 Ry

     convergence has been achieved in  22 iterations

     Forces acting on atoms (cartesian axes, Ry/au):

     atom    1 type  1   force =     0.00000000    0.00000000   -0.00658857
     atom    2 type  1   force =     0.00000000    0.00000000   -0.00658857
     atom    3 type  2   force =     0.00000000    0.00000000    0.00658857
     atom    4 type  2   force =     0.00000000   -0.00000000    0.00658857
     The non-local contrib.  to forces
     atom    1 type  1   force =     0.00000000   -0.00000000   -0.03691253
     atom    2 type  1   force =    -0.00000000    0.00000000   -0.03691253
     atom    3 type  2   force =     0.00000000   -0.00000000   -0.01909361
     atom    4 type  2   force =    -0.00000000    0.00000000   -0.01909361
     The ionic contribution  to forces
     atom    1 type  1   force =    -0.00000000    0.00000000   -0.16104323
     atom    2 type  1   force =     0.00000000   -0.00000000   -0.16104323
     atom    3 type  2   force =    -0.00000000    0.00000000    0.16104323
     atom    4 type  2   force =     0.00000000   -0.00000000    0.16104323
     The local contribution  to forces
     atom    1 type  1   force =    -0.00000002    0.00000001    0.18798866
     atom    2 type  1   force =     0.00000006   -0.00000003    0.18798867
     atom    3 type  2   force =    -0.00000001    0.00000000   -0.13548131
     atom    4 type  2   force =     0.00000002   -0.00000001   -0.13548132
     The core correction contribution to forces
     atom    1 type  1   force =    -0.00000000    0.00000000    0.00337572
     atom    2 type  1   force =     0.00000001   -0.00000000    0.00337572
     atom    3 type  2   force =     0.00000000   -0.00000000    0.00010852
     atom    4 type  2   force =    -0.00000000    0.00000000    0.00010852
     The Hubbard contrib.    to forces
     atom    1 type  1   force =     0.00000000    0.00000000    0.00000000
     atom    2 type  1   force =     0.00000000    0.00000000    0.00000000
     atom    3 type  2   force =     0.00000000    0.00000000    0.00000000
     atom    4 type  2   force =     0.00000000    0.00000000    0.00000000
     The SCF correction term to forces
     atom    1 type  1   force =    -0.00000000    0.00000000    0.00000456
     atom    2 type  1   force =     0.00000000   -0.00000000    0.00000456
     atom    3 type  2   force =    -0.00000000    0.00000000    0.00001349
     atom    4 type  2   force =     0.00000000   -0.00000000    0.00001349

     Total force =     0.013177     Total SCF correction =     0.000020


     Computing stress (Cartesian axis) and pressure

          total   stress  (Ry/bohr**3)                   (kbar)     P=      315.06
   0.00206110   0.00000000   0.00000000          303.20        0.00        0.00
   0.00000000   0.00206110   0.00000000            0.00      303.20        0.00
   0.00000000   0.00000000   0.00230300            0.00        0.00      338.78


     Writing all to output data dir ./ZnO_ANN.save/

     init_run     :      1.74s CPU      1.19s WALL (       1 calls)
     electrons    :     77.82s CPU     29.25s WALL (       1 calls)
     forces       :      0.61s CPU      0.27s WALL (       1 calls)
     stress       :      1.99s CPU      0.97s WALL (       1 calls)

     Called by init_run:
     wfcinit      :      0.92s CPU      0.37s WALL (       1 calls)
     potinit      :      0.21s CPU      0.21s WALL (       1 calls)
     hinit0       :      0.50s CPU      0.51s WALL (       1 calls)

     Called by electrons:
     c_bands      :     65.65s CPU     24.45s WALL (      22 calls)
     sum_band     :      9.09s CPU      3.57s WALL (      22 calls)
     v_of_rho     :      0.71s CPU      0.31s WALL (      23 calls)
     newd         :      2.23s CPU      0.89s WALL (      23 calls)
     mix_rho      :      0.12s CPU      0.05s WALL (      22 calls)

     Called by c_bands:
     init_us_2    :      0.83s CPU      0.29s WALL (    1316 calls)
     init_us_2:cp :      0.81s CPU      0.29s WALL (    1316 calls)
     cegterg      :     63.90s CPU     23.77s WALL (     616 calls)

     Called by *egterg:
     cdiaghg      :     10.63s CPU      3.55s WALL (    3639 calls)
     h_psi        :     44.25s CPU     17.90s WALL (    3667 calls)
     s_psi        :      0.95s CPU      0.29s WALL (    3667 calls)
     g_psi        :      0.32s CPU      0.08s WALL (    3023 calls)

     Called by h_psi:
     h_psi:calbec :      1.43s CPU      0.53s WALL (    3667 calls)
     vloc_psi     :     41.52s CPU     16.94s WALL (    3667 calls)
     add_vuspsi   :      0.94s CPU      0.32s WALL (    3667 calls)

     General routines
     calbec       :      1.77s CPU      0.65s WALL (    4423 calls)
     fft          :      0.63s CPU      0.40s WALL (     322 calls)
     ffts         :      0.13s CPU      0.11s WALL (      45 calls)
     fftw         :     41.53s CPU     17.00s WALL (   97962 calls)
     interpolate  :      0.13s CPU      0.11s WALL (      23 calls)

     Parallel routines

     PWSCF        :   1m22.71s CPU     32.13s WALL


   This run was terminated on:  16: 7:31  13Jun2025            

=------------------------------------------------------------------------------=
   JOB DONE.
=------------------------------------------------------------------------------=
Note: The following floating-point exceptions are signalling: IEEE_INVALID_FLAG
