Authorization required, but no authorization protocol specified

Authorization required, but no authorization protocol specified

Authorization required, but no authorization protocol specified

Authorization required, but no authorization protocol specified

Authorization required, but no authorization protocol specified

Authorization required, but no authorization protocol specified

Authorization required, but no authorization protocol specified

Authorization required, but no authorization protocol specified

Authorization required, but no authorization protocol specified

Authorization required, but no authorization protocol specified


     Program PWSCF v.7.2 starts on 13Jun2025 at 19:28:42 

     This program is part of the open-source Quantum ESPRESSO suite
     for quantum simulation of materials; please cite
         "P. Giannozzi et al., J. Phys.:Condens. Matter 21 395502 (2009);
         "P. Giannozzi et al., J. Phys.:Condens. Matter 29 465901 (2017);
         "P. Giannozzi et al., J. Chem. Phys. 152 154105 (2020);
          URL http://www.quantum-espresso.org", 
     in publications or presentations arising from this work. More details at
     http://www.quantum-espresso.org/quote

     Parallel version (MPI), running on     8 processors

     MPI processes distributed on     1 nodes
     120702 MiB available memory on the printing compute node when the environment starts

     Reading input from /home/jvc/QEspresso7.2/ZnO_database_python/SCFs.in/scf-6.67-1.65.in

     Current dimensions of program PWSCF are:
     Max number of different atomic species (ntypx) = 10
     Max number of k-points (npk) =  40000
     Max angular momentum in pseudopotentials (lmaxx) =  4
     file Zn.upf: wavefunction(s)  3D renormalized

     R & G space division:  proc/nbgrp/npool/nimage =       8
     Subspace diagonalization in iterative solution of the eigenvalue problem:
     a serial algorithm will be used


     Parallelization info
     --------------------
     sticks:   dense  smooth     PW     G-vecs:    dense   smooth      PW
     Min         154      75     23                 7140     2511     419
     Max         155      78     24                 7143     2517     424
     Sum        1237     613    187                57129    20101    3369

     Using Slab Decomposition



     bravais-lattice index     =            4
     lattice parameter (alat)  =       6.6731  a.u.
     unit-cell volume          =     423.7590 (a.u.)^3
     number of atoms/cell      =            4
     number of atomic types    =            2
     number of electrons       =        36.00
     number of Kohn-Sham states=           18
     kinetic-energy cutoff     =      50.0000  Ry
     charge density cutoff     =     400.0000  Ry
     scf convergence threshold =      1.0E-08
     mixing beta               =       0.3000
     number of iterations used =            8  plain     mixing
     Exchange-correlation= PBE
                           (   1   4   3   4   0   0   0)

     celldm(1)=   6.673127  celldm(2)=   0.000000  celldm(3)=   1.646646
     celldm(4)=   0.000000  celldm(5)=   0.000000  celldm(6)=   0.000000

     crystal axes: (cart. coord. in units of alat)
               a(1) = (   1.000000   0.000000   0.000000 )  
               a(2) = (  -0.500000   0.866025   0.000000 )  
               a(3) = (   0.000000   0.000000   1.646646 )  

     reciprocal axes: (cart. coord. in units 2 pi/alat)
               b(1) = (  1.000000  0.577350 -0.000000 )  
               b(2) = (  0.000000  1.154701  0.000000 )  
               b(3) = (  0.000000 -0.000000  0.607295 )  


     PseudoPot. # 1 for Zn read from file:
     /home/jvc/QEspresso7.2/ZnO_database/pseudos/Zn.upf
     MD5 check sum: 7f56cabf9682ed8c977c2f7d0c5985c5
     Pseudo is Ultrasoft + core correction, Zval = 12.0
     Generated using &quot;atomic&quot; code by A. Dal Corso  v.6.2.2
     Using radial grid of 1201 points,  6 beta functions with: 
                l(1) =   0
                l(2) =   0
                l(3) =   1
                l(4) =   1
                l(5) =   2
                l(6) =   2
     Q(r) pseudized with 0 coefficients 


     PseudoPot. # 2 for O  read from file:
     /home/jvc/QEspresso7.2/ZnO_database/pseudos/O.upf
     MD5 check sum: 91400c9766925bcf19f520983a725ff0
     Pseudo is Ultrasoft + core correction, Zval =  6.0
     Generated using &quot;atomic&quot; code by A. Dal Corso  v.6.3MaX
     Using radial grid of 1095 points,  4 beta functions with: 
                l(1) =   0
                l(2) =   0
                l(3) =   1
                l(4) =   1
     Q(r) pseudized with 0 coefficients 


     atomic species   valence    mass     pseudopotential
        Zn            12.00    63.38000     Zn( 1.00)
        O              6.00    15.99900     O ( 1.00)

     12 Sym. Ops. (no inversion) found ( 6 have fractional translation)



   Cartesian axes

     site n.     atom                  positions (alat units)
         1           Zn  tau(   1) = (   0.5000000   0.2886751   0.8243661  )
         2           Zn  tau(   2) = (  -0.0000000   0.5773503   0.0010433  )
         3           O   tau(   3) = (   0.5000000   0.2886751   1.4485152  )
         4           O   tau(   4) = (  -0.0000000   0.5773503   0.6251925  )

     number of k points=    28
                       cart. coord. in units 2pi/alat
        k(    1) = (   0.0000000   0.0000000   0.0000000), wk =   0.0092593
        k(    2) = (   0.0000000   0.0000000   0.1012159), wk =   0.0185185
        k(    3) = (   0.0000000   0.0000000   0.2024317), wk =   0.0185185
        k(    4) = (   0.0000000   0.0000000  -0.3036476), wk =   0.0092593
        k(    5) = (   0.0000000   0.1924501   0.0000000), wk =   0.0555556
        k(    6) = (   0.0000000   0.1924501   0.1012159), wk =   0.1111111
        k(    7) = (   0.0000000   0.1924501   0.2024317), wk =   0.1111111
        k(    8) = (   0.0000000   0.1924501  -0.3036476), wk =   0.0555556
        k(    9) = (   0.0000000   0.3849002   0.0000000), wk =   0.0555556
        k(   10) = (   0.0000000   0.3849002   0.1012159), wk =   0.1111111
        k(   11) = (   0.0000000   0.3849002   0.2024317), wk =   0.1111111
        k(   12) = (   0.0000000   0.3849002  -0.3036476), wk =   0.0555556
        k(   13) = (   0.0000000  -0.5773503   0.0000000), wk =   0.0277778
        k(   14) = (   0.0000000  -0.5773503   0.1012159), wk =   0.0555556
        k(   15) = (   0.0000000  -0.5773503   0.2024317), wk =   0.0555556
        k(   16) = (   0.0000000  -0.5773503  -0.3036476), wk =   0.0277778
        k(   17) = (   0.1666667   0.2886751   0.0000000), wk =   0.0555556
        k(   18) = (   0.1666667   0.2886751   0.1012159), wk =   0.1111111
        k(   19) = (   0.1666667   0.2886751   0.2024317), wk =   0.1111111
        k(   20) = (   0.1666667   0.2886751  -0.3036476), wk =   0.0555556
        k(   21) = (   0.1666667   0.4811252   0.0000000), wk =   0.1111111
        k(   22) = (   0.1666667   0.4811252   0.1012159), wk =   0.2222222
        k(   23) = (   0.1666667   0.4811252   0.2024317), wk =   0.2222222
        k(   24) = (   0.1666667   0.4811252  -0.3036476), wk =   0.1111111
        k(   25) = (   0.3333333   0.5773503   0.0000000), wk =   0.0185185
        k(   26) = (   0.3333333   0.5773503   0.1012159), wk =   0.0370370
        k(   27) = (   0.3333333   0.5773503   0.2024317), wk =   0.0370370
        k(   28) = (   0.3333333   0.5773503  -0.3036476), wk =   0.0185185

     Dense  grid:    57129 G-vectors     FFT dimensions: (  45,  45,  72)

     Smooth grid:    20101 G-vectors     FFT dimensions: (  32,  32,  50)

     Estimated max dynamical RAM per process >      32.28 MB

     Estimated total dynamical RAM >     258.24 MB

     Check: negative core charge=   -0.000003

     Initial potential from superposition of free atoms

     starting charge      35.9925, renormalised to      36.0000
     Starting wfcs are   26 randomized atomic wfcs

     total cpu time spent up to now is        1.6 secs

     Self-consistent Calculation

     iteration #  1     ecut=    50.00 Ry     beta= 0.30
     Davidson diagonalization with overlap
     ethr =  1.00E-02,  avg # of iterations =  1.2

     total cpu time spent up to now is        2.5 secs

     total energy              =    -361.36922767 Ry
     estimated scf accuracy    <       0.82331452 Ry

     iteration #  2     ecut=    50.00 Ry     beta= 0.30
     Davidson diagonalization with overlap
     ethr =  2.29E-03,  avg # of iterations =  2.3

     total cpu time spent up to now is        3.5 secs

     total energy              =    -361.48848933 Ry
     estimated scf accuracy    <       0.09532165 Ry

     iteration #  3     ecut=    50.00 Ry     beta= 0.30
     Davidson diagonalization with overlap
     ethr =  2.65E-04,  avg # of iterations =  5.6

     total cpu time spent up to now is        5.0 secs

     total energy              =    -361.48750233 Ry
     estimated scf accuracy    <       0.15632979 Ry

     iteration #  4     ecut=    50.00 Ry     beta= 0.30
     Davidson diagonalization with overlap
     ethr =  2.65E-04,  avg # of iterations =  9.2

     total cpu time spent up to now is        7.2 secs

     total energy              =    -361.63488479 Ry
     estimated scf accuracy    <       0.42194433 Ry

     iteration #  5     ecut=    50.00 Ry     beta= 0.30
     Davidson diagonalization with overlap
     ethr =  2.65E-04,  avg # of iterations =  1.0

     total cpu time spent up to now is        8.0 secs

     total energy              =    -361.45392213 Ry
     estimated scf accuracy    <       0.34544685 Ry

     iteration #  6     ecut=    50.00 Ry     beta= 0.30
     Davidson diagonalization with overlap
     ethr =  2.65E-04,  avg # of iterations =  6.9

     total cpu time spent up to now is        9.6 secs

     total energy              =    -361.56642844 Ry
     estimated scf accuracy    <       0.06181872 Ry

     iteration #  7     ecut=    50.00 Ry     beta= 0.30
     Davidson diagonalization with overlap
     ethr =  1.72E-04,  avg # of iterations =  1.2

     total cpu time spent up to now is       10.4 secs

     total energy              =    -361.57113468 Ry
     estimated scf accuracy    <       0.02998360 Ry

     iteration #  8     ecut=    50.00 Ry     beta= 0.30
     Davidson diagonalization with overlap
     ethr =  8.33E-05,  avg # of iterations =  1.0

     total cpu time spent up to now is       11.3 secs

     total energy              =    -361.57368440 Ry
     estimated scf accuracy    <       0.03491788 Ry

     iteration #  9     ecut=    50.00 Ry     beta= 0.30
     Davidson diagonalization with overlap
     ethr =  8.33E-05,  avg # of iterations =  1.0

     total cpu time spent up to now is       12.1 secs

     total energy              =    -361.57825469 Ry
     estimated scf accuracy    <       0.03639753 Ry

     iteration # 10     ecut=    50.00 Ry     beta= 0.30
     Davidson diagonalization with overlap
     ethr =  8.33E-05,  avg # of iterations =  1.1

     total cpu time spent up to now is       13.0 secs

     total energy              =    -361.56680451 Ry
     estimated scf accuracy    <       0.04635840 Ry

     iteration # 11     ecut=    50.00 Ry     beta= 0.30
     Davidson diagonalization with overlap
     ethr =  8.33E-05,  avg # of iterations =  1.0

     total cpu time spent up to now is       13.8 secs

     total energy              =    -361.56880127 Ry
     estimated scf accuracy    <       0.02607853 Ry

     iteration # 12     ecut=    50.00 Ry     beta= 0.30
     Davidson diagonalization with overlap
     ethr =  7.24E-05,  avg # of iterations =  1.0

     total cpu time spent up to now is       14.6 secs

     total energy              =    -361.57052958 Ry
     estimated scf accuracy    <       0.02744488 Ry

     iteration # 13     ecut=    50.00 Ry     beta= 0.30
     Davidson diagonalization with overlap
     ethr =  7.24E-05,  avg # of iterations =  1.0

     total cpu time spent up to now is       15.5 secs

     total energy              =    -361.58179146 Ry
     estimated scf accuracy    <       0.02731423 Ry

     iteration # 14     ecut=    50.00 Ry     beta= 0.30
     Davidson diagonalization with overlap
     ethr =  7.24E-05,  avg # of iterations =  1.2

     total cpu time spent up to now is       16.3 secs

     total energy              =    -361.54947426 Ry
     estimated scf accuracy    <       0.04915434 Ry

     iteration # 15     ecut=    50.00 Ry     beta= 0.30
     Davidson diagonalization with overlap
     ethr =  7.24E-05,  avg # of iterations =  5.3

     total cpu time spent up to now is       17.8 secs

     total energy              =    -361.56657482 Ry
     estimated scf accuracy    <       0.03029619 Ry

     iteration # 16     ecut=    50.00 Ry     beta= 0.30
     Davidson diagonalization with overlap
     ethr =  7.24E-05,  avg # of iterations =  1.0

     total cpu time spent up to now is       18.6 secs

     total energy              =    -361.56125477 Ry
     estimated scf accuracy    <       0.01539085 Ry

     iteration # 17     ecut=    50.00 Ry     beta= 0.30
     Davidson diagonalization with overlap
     ethr =  4.28E-05,  avg # of iterations =  4.9

     total cpu time spent up to now is       19.9 secs

     total energy              =    -361.56663184 Ry
     estimated scf accuracy    <       0.00142314 Ry

     iteration # 18     ecut=    50.00 Ry     beta= 0.30
     Davidson diagonalization with overlap
     ethr =  3.95E-06,  avg # of iterations =  2.2

     total cpu time spent up to now is       20.8 secs

     total energy              =    -361.56636620 Ry
     estimated scf accuracy    <       0.00059006 Ry

     iteration # 19     ecut=    50.00 Ry     beta= 0.30
     Davidson diagonalization with overlap
     ethr =  1.64E-06,  avg # of iterations =  6.8

     total cpu time spent up to now is       22.5 secs

     total energy              =    -361.56994758 Ry
     estimated scf accuracy    <       0.00131740 Ry

     iteration # 20     ecut=    50.00 Ry     beta= 0.30
     Davidson diagonalization with overlap
     ethr =  1.64E-06,  avg # of iterations = 11.0

     total cpu time spent up to now is       24.8 secs

     total energy              =    -361.56482659 Ry
     estimated scf accuracy    <       0.02476974 Ry

     iteration # 21     ecut=    50.00 Ry     beta= 0.30
     Davidson diagonalization with overlap
     ethr =  1.64E-06,  avg # of iterations = 10.3

     total cpu time spent up to now is       27.0 secs

     total energy              =    -361.56730371 Ry
     estimated scf accuracy    <       0.00170352 Ry

     iteration # 22     ecut=    50.00 Ry     beta= 0.30
     Davidson diagonalization with overlap
     ethr =  1.64E-06,  avg # of iterations =  1.3

     total cpu time spent up to now is       27.9 secs

     total energy              =    -361.56660470 Ry
     estimated scf accuracy    <       0.00199445 Ry

     iteration # 23     ecut=    50.00 Ry     beta= 0.30
     Davidson diagonalization with overlap
     ethr =  1.64E-06,  avg # of iterations =  5.7

     total cpu time spent up to now is       29.2 secs

     total energy              =    -361.56682066 Ry
     estimated scf accuracy    <       0.00009631 Ry

     iteration # 24     ecut=    50.00 Ry     beta= 0.30
     Davidson diagonalization with overlap
     ethr =  2.68E-07,  avg # of iterations =  5.2

     total cpu time spent up to now is       30.3 secs

     total energy              =    -361.56681097 Ry
     estimated scf accuracy    <       0.00005266 Ry

     iteration # 25     ecut=    50.00 Ry     beta= 0.30
     Davidson diagonalization with overlap
     ethr =  1.46E-07,  avg # of iterations =  5.5

     total cpu time spent up to now is       31.6 secs

     total energy              =    -361.56683435 Ry
     estimated scf accuracy    <       0.00000899 Ry

     iteration # 26     ecut=    50.00 Ry     beta= 0.30
     Davidson diagonalization with overlap
     ethr =  2.50E-08,  avg # of iterations =  4.4

     total cpu time spent up to now is       32.6 secs

     total energy              =    -361.56682932 Ry
     estimated scf accuracy    <       0.00001260 Ry

     iteration # 27     ecut=    50.00 Ry     beta= 0.30
     Davidson diagonalization with overlap
     ethr =  2.50E-08,  avg # of iterations =  5.2

     total cpu time spent up to now is       33.9 secs

     total energy              =    -361.56683203 Ry
     estimated scf accuracy    <       0.00000004 Ry

     iteration # 28     ecut=    50.00 Ry     beta= 0.30
     Davidson diagonalization with overlap
     c_bands:  1 eigenvalues not converged
     ethr =  9.91E-11,  avg # of iterations = 12.6

     total cpu time spent up to now is       36.7 secs

     total energy              =    -361.56683082 Ry
     estimated scf accuracy    <       0.00000219 Ry

     iteration # 29     ecut=    50.00 Ry     beta= 0.30
     Davidson diagonalization with overlap
     c_bands:  1 eigenvalues not converged
     c_bands:  1 eigenvalues not converged
     c_bands:  1 eigenvalues not converged
     ethr =  9.91E-11,  avg # of iterations = 15.6

     total cpu time spent up to now is       40.2 secs

     total energy              =    -361.56683038 Ry
     estimated scf accuracy    <       0.00000668 Ry

     iteration # 30     ecut=    50.00 Ry     beta= 0.30
     Davidson diagonalization with overlap
     c_bands:  1 eigenvalues not converged
     c_bands:  1 eigenvalues not converged
     c_bands:  1 eigenvalues not converged
     c_bands:  1 eigenvalues not converged
     ethr =  9.91E-11,  avg # of iterations = 15.1

     total cpu time spent up to now is       43.5 secs

     total energy              =    -361.56683189 Ry
     estimated scf accuracy    <       0.00000050 Ry

     iteration # 31     ecut=    50.00 Ry     beta= 0.30
     Davidson diagonalization with overlap
     ethr =  9.91E-11,  avg # of iterations = 11.2

     total cpu time spent up to now is       45.9 secs

     total energy              =    -361.56683200 Ry
     estimated scf accuracy    <       0.00000011 Ry

     iteration # 32     ecut=    50.00 Ry     beta= 0.30
     Davidson diagonalization with overlap
     ethr =  9.91E-11,  avg # of iterations =  6.6

     total cpu time spent up to now is       47.4 secs

     total energy              =    -361.56683206 Ry
     estimated scf accuracy    <       0.00000004 Ry

     iteration # 33     ecut=    50.00 Ry     beta= 0.30
     Davidson diagonalization with overlap
     ethr =  9.91E-11,  avg # of iterations =  3.0

     total cpu time spent up to now is       48.4 secs

     total energy              =    -361.56683209 Ry
     estimated scf accuracy    <       0.00000008 Ry

     iteration # 34     ecut=    50.00 Ry     beta= 0.30
     Davidson diagonalization with overlap
     ethr =  9.91E-11,  avg # of iterations =  5.3

     total cpu time spent up to now is       49.7 secs

     total energy              =    -361.56683198 Ry
     estimated scf accuracy    <       0.00000027 Ry

     iteration # 35     ecut=    50.00 Ry     beta= 0.30
     Davidson diagonalization with overlap
     ethr =  9.91E-11,  avg # of iterations =  7.6

     total cpu time spent up to now is       51.5 secs

     End of self-consistent calculation

          k = 0.0000 0.0000 0.0000 (  2539 PWs)   bands (ev):

   -12.5766 -12.2152  -1.1284  -1.1284  -1.1059  -1.0257  -1.0257  -0.5920
    -0.5920  -0.5570  -0.4917  -0.4917   0.1359   3.2647   3.2647   3.6842
     3.7446   3.7446

          k = 0.0000 0.0000 0.1012 (  2557 PWs)   bands (ev):

   -12.5530 -12.2401  -1.1242  -1.1242  -1.1139  -1.0354  -1.0354  -0.7376
    -0.5833  -0.5833  -0.4964  -0.4964   0.4400   3.0755   3.2974   3.2974
     3.7130   3.7130

          k = 0.0000 0.0000 0.2024 (  2533 PWs)   bands (ev):

   -12.4883 -12.3076  -1.1197  -1.1107  -1.1107  -1.0594  -1.0594  -0.9601
    -0.5604  -0.5604  -0.5105  -0.5105   1.0145   2.3569   3.3864   3.3864
     3.6264   3.6264

          k = 0.0000 0.0000-0.3036 (  2484 PWs)   bands (ev):

   -12.3986 -12.3986  -1.0873  -1.0873  -1.0873  -1.0873  -1.0829  -1.0829
    -0.5330  -0.5330  -0.5330  -0.5330   1.6680   1.6680   3.5070   3.5070
     3.5070   3.5070

          k = 0.0000 0.1925 0.0000 (  2557 PWs)   bands (ev):

   -12.4955 -12.1773  -1.1551  -1.0791  -1.0615  -0.9945  -0.9537  -0.6281
    -0.6184  -0.5917  -0.4871  -0.3903   0.3309   2.4319   2.7024   3.0329
     3.5730   3.6147

          k = 0.0000 0.1925 0.1012 (  2550 PWs)   bands (ev):

   -12.4746 -12.1990  -1.1597  -1.0729  -1.0656  -1.0050  -0.9645  -0.7359
    -0.6042  -0.5833  -0.4927  -0.4462   0.5908   2.3594   2.6821   3.0726
     3.5017   3.5763

          k = 0.0000 0.1925 0.2024 (  2539 PWs)   bands (ev):

   -12.4171 -12.2579  -1.1627  -1.0837  -1.0545  -1.0219  -0.9924  -0.9132
    -0.5705  -0.5615  -0.5091  -0.4907   1.0832   2.0431   2.8061   3.1804
     3.3057   3.4711

          k = 0.0000 0.1925-0.3036 (  2532 PWs)   bands (ev):

   -12.3378 -12.3378  -1.1355  -1.1355  -1.0259  -1.0259  -1.0004  -1.0004
    -0.5340  -0.5340  -0.5297  -0.5297   1.5923   1.5923   3.0449   3.0449
     3.3263   3.3263

          k = 0.0000 0.3849 0.0000 (  2533 PWs)   bands (ev):

   -12.3173 -12.1122  -1.1466  -1.0035  -1.0014  -0.8248  -0.7928  -0.6851
    -0.5982  -0.5500  -0.4764  -0.3470   0.7353   1.2455   1.8288   2.5758
     3.2082   3.3395

          k = 0.0000 0.3849 0.1012 (  2531 PWs)   bands (ev):

   -12.3033 -12.1256  -1.1540  -1.0226  -0.9913  -0.8323  -0.8088  -0.7204
    -0.5955  -0.5459  -0.4826  -0.3837   0.7702   1.2882   1.9127   2.6285
     3.2060   3.2892

          k = 0.0000 0.3849 0.2024 (  2530 PWs)   bands (ev):

   -12.2652 -12.1625  -1.1625  -1.0791  -0.9563  -0.8509  -0.8467  -0.8049
    -0.5557  -0.5341  -0.4980  -0.4430   0.8756   1.2051   2.2841   2.7709
     3.0912   3.1515

          k = 0.0000 0.3849-0.3036 (  2536 PWs)   bands (ev):

   -12.2136 -12.2136  -1.1400  -1.1400  -0.9055  -0.9055  -0.8465  -0.8465
    -0.5169  -0.5169  -0.5006  -0.5006   1.0336   1.0336   2.7561   2.7561
     2.9623   2.9623

          k = 0.0000-0.5774 0.0000 (  2534 PWs)   bands (ev):

   -12.2081 -12.0969  -1.1264  -0.9816  -0.8915  -0.7669  -0.7081  -0.6284
    -0.5009  -0.4869  -0.4664  -0.4204   0.4611   0.9642   1.7501   2.3420
     2.8696   3.1953

          k = 0.0000-0.5774 0.1012 (  2530 PWs)   bands (ev):

   -12.2000 -12.1037  -1.1363  -0.9655  -0.9481  -0.7624  -0.7279  -0.6270
    -0.4998  -0.4844  -0.4714  -0.4206   0.4364   0.8793   1.9493   2.4017
     2.9321   3.1395

          k = 0.0000-0.5774 0.2024 (  2516 PWs)   bands (ev):

   -12.1785 -12.1228  -1.1494  -1.0533  -0.9196  -0.7820  -0.7452  -0.6612
    -0.4963  -0.4818  -0.4613  -0.4240   0.4452   0.7030   2.3798   2.5622
     2.9708   2.9867

          k = 0.0000-0.5774-0.3036 (  2492 PWs)   bands (ev):

   -12.1500 -12.1500  -1.1289  -1.1289  -0.8528  -0.8528  -0.7101  -0.7101
    -0.4904  -0.4904  -0.4364  -0.4364   0.5408   0.5408   2.7763   2.7763
     2.7826   2.7826

          k = 0.1667 0.2887 0.0000 (  2531 PWs)   bands (ev):

   -12.3652 -12.1261  -1.1012  -1.0668  -0.9884  -0.9280  -0.8214  -0.6439
    -0.6397  -0.5743  -0.4799  -0.3482   0.6635   1.7100   1.9117   2.5793
     3.2820   3.3423

          k = 0.1667 0.2887 0.1012 (  2534 PWs)   bands (ev):

   -12.3491 -12.1420  -1.1104  -1.0634  -0.9922  -0.9368  -0.8349  -0.7229
    -0.6216  -0.5605  -0.4859  -0.3911   0.7967   1.6507   2.0412   2.6022
     3.2289   3.3230

          k = 0.1667 0.2887 0.2024 (  2532 PWs)   bands (ev):

   -12.3051 -12.1855  -1.1240  -1.0693  -0.9893  -0.9546  -0.8686  -0.8569
    -0.5703  -0.5429  -0.5009  -0.4507   1.0421   1.4905   2.3912   2.7021
     3.0869   3.1800

          k = 0.1667 0.2887-0.3036 (  2536 PWs)   bands (ev):

   -12.2452 -12.2452  -1.1075  -1.1075  -0.9713  -0.9713  -0.8984  -0.8984
    -0.5268  -0.5268  -0.5047  -0.5047   1.2781   1.2781   2.7883   2.7883
     2.9330   2.9330

          k = 0.1667 0.4811 0.0000 (  2520 PWs)   bands (ev):

   -12.2112 -12.0952  -1.0959  -0.9701  -0.8394  -0.7644  -0.6937  -0.6793
    -0.5845  -0.5433  -0.4494  -0.3361   0.6688   1.0441   1.7491   2.0275
     2.8653   2.9508

          k = 0.1667 0.4811 0.1012 (  2518 PWs)   bands (ev):

   -12.2028 -12.1024  -1.0909  -0.9761  -0.8803  -0.7712  -0.7137  -0.7017
    -0.5799  -0.5253  -0.4483  -0.3472   0.6415   0.9960   1.8597   2.1611
     2.8248   2.9821

          k = 0.1667 0.4811 0.2024 (  2523 PWs)   bands (ev):

   -12.1804 -12.1224  -1.0847  -1.0040  -0.9229  -0.7967  -0.7644  -0.7440
    -0.5441  -0.5129  -0.4382  -0.3763   0.6478   0.8667   2.0864   2.4966
     2.6570   3.0267

          k = 0.1667 0.4811-0.3036 (  2526 PWs)   bands (ev):

   -12.1508 -12.1508  -1.0625  -1.0625  -0.8724  -0.8724  -0.7665  -0.7665
    -0.5184  -0.5184  -0.4116  -0.4116   0.7322   0.7322   2.3563   2.3563
     2.8801   2.8801

          k = 0.3333 0.5774 0.0000 (  2514 PWs)   bands (ev):

   -12.1226 -12.1226  -1.1049  -0.8431  -0.8431  -0.6722  -0.6160  -0.6160
    -0.5784  -0.5589  -0.3806  -0.3806   0.8712   0.8712   1.1559   2.4292
     2.4292   2.5270

          k = 0.3333 0.5774 0.1012 (  2505 PWs)   bands (ev):

   -12.1218 -12.1218  -1.0836  -0.8727  -0.8727  -0.7085  -0.6262  -0.6262
    -0.5856  -0.5617  -0.3633  -0.3633   0.8144   0.8144   1.2557   2.4347
     2.5620   2.5620

          k = 0.3333 0.5774 0.2024 (  2526 PWs)   bands (ev):

   -12.1204 -12.1204  -1.0218  -0.9316  -0.9316  -0.8086  -0.6410  -0.6410
    -0.5863  -0.5690  -0.3356  -0.3356   0.7234   0.7234   1.5148   2.1866
     2.8087   2.8087

          k = 0.3333 0.5774-0.3036 (  2538 PWs)   bands (ev):

   -12.1196 -12.1196  -0.9605  -0.9605  -0.9250  -0.9250  -0.6465  -0.6465
    -0.5787  -0.5787  -0.3240  -0.3240   0.6859   0.6859   1.8527   1.8527
     2.9263   2.9263

     highest occupied level (ev):     3.7446

!    total energy              =    -361.56683204 Ry
     estimated scf accuracy    <          8.8E-09 Ry

     The total energy is the sum of the following terms:
     one-electron contribution =    -182.32912652 Ry
     hartree contribution      =     128.41971646 Ry
     xc contribution           =    -109.10024581 Ry
     ewald contribution        =    -198.55717617 Ry

     convergence has been achieved in  35 iterations

     Forces acting on atoms (cartesian axes, Ry/au):

     atom    1 type  1   force =     0.00000000    0.00000000   -0.00152471
     atom    2 type  1   force =     0.00000000    0.00000000   -0.00152471
     atom    3 type  2   force =     0.00000000    0.00000000    0.00152471
     atom    4 type  2   force =     0.00000000   -0.00000000    0.00152471
     The non-local contrib.  to forces
     atom    1 type  1   force =     0.00000000    0.00000000    0.04439041
     atom    2 type  1   force =     0.00000000   -0.00000000    0.04439041
     atom    3 type  2   force =     0.00000000   -0.00000000    0.05899511
     atom    4 type  2   force =     0.00000000    0.00000000    0.05899511
     The ionic contribution  to forces
     atom    1 type  1   force =    -0.00000000    0.00000000    0.39870131
     atom    2 type  1   force =     0.00000000   -0.00000000    0.39870131
     atom    3 type  2   force =    -0.00000000    0.00000000   -0.39870131
     atom    4 type  2   force =     0.00000000   -0.00000000   -0.39870131
     The local contribution  to forces
     atom    1 type  1   force =    -0.00000002    0.00000001   -0.44201264
     atom    2 type  1   force =     0.00000007   -0.00000004   -0.44201263
     atom    3 type  2   force =    -0.00000001    0.00000000    0.34177590
     atom    4 type  2   force =     0.00000002   -0.00000001    0.34177589
     The core correction contribution to forces
     atom    1 type  1   force =    -0.00000000    0.00000000   -0.00260506
     atom    2 type  1   force =     0.00000001   -0.00000001   -0.00260506
     atom    3 type  2   force =     0.00000000   -0.00000000   -0.00055072
     atom    4 type  2   force =    -0.00000000    0.00000000   -0.00055072
     The Hubbard contrib.    to forces
     atom    1 type  1   force =     0.00000000    0.00000000    0.00000000
     atom    2 type  1   force =     0.00000000    0.00000000    0.00000000
     atom    3 type  2   force =     0.00000000    0.00000000    0.00000000
     atom    4 type  2   force =     0.00000000    0.00000000    0.00000000
     The SCF correction term to forces
     atom    1 type  1   force =     0.00000000   -0.00000000    0.00000089
     atom    2 type  1   force =    -0.00000000    0.00000000    0.00000089
     atom    3 type  2   force =     0.00000000   -0.00000000    0.00000536
     atom    4 type  2   force =    -0.00000000    0.00000000    0.00000536

     Total force =     0.003049     Total SCF correction =     0.000008


     Computing stress (Cartesian axis) and pressure

          total   stress  (Ry/bohr**3)                   (kbar)     P=     -191.92
  -0.00127895   0.00000000   0.00000000         -188.14        0.00        0.00
   0.00000000  -0.00127895   0.00000000            0.00     -188.14        0.00
   0.00000000   0.00000000  -0.00135607            0.00        0.00     -199.49


     Writing all to output data dir ./ZnO_ANN.save/

     init_run     :      1.92s CPU      1.30s WALL (       1 calls)
     electrons    :    135.70s CPU     49.85s WALL (       1 calls)
     forces       :      0.81s CPU      0.40s WALL (       1 calls)
     stress       :      3.22s CPU      1.69s WALL (       1 calls)

     Called by init_run:
     wfcinit      :      1.02s CPU      0.40s WALL (       1 calls)
     potinit      :      0.27s CPU      0.27s WALL (       1 calls)
     hinit0       :      0.45s CPU      0.46s WALL (       1 calls)

     Called by electrons:
     c_bands      :    110.39s CPU     39.97s WALL (      35 calls)
     sum_band     :     18.17s CPU      6.96s WALL (      35 calls)
     v_of_rho     :      1.59s CPU      0.69s WALL (      36 calls)
     newd         :      5.18s CPU      2.10s WALL (      36 calls)
     mix_rho      :      0.25s CPU      0.12s WALL (      35 calls)

     Called by c_bands:
     init_us_2    :      1.92s CPU      0.67s WALL (    2044 calls)
     init_us_2:cp :      1.89s CPU      0.66s WALL (    2044 calls)
     cegterg      :    106.26s CPU     38.36s WALL (     980 calls)

     Called by *egterg:
     cdiaghg      :     18.09s CPU      5.92s WALL (    6041 calls)
     h_psi        :     68.28s CPU     27.64s WALL (    6069 calls)
     s_psi        :      1.85s CPU      0.52s WALL (    6069 calls)
     g_psi        :      0.72s CPU      0.18s WALL (    5061 calls)

     Called by h_psi:
     h_psi:calbec :      2.82s CPU      1.00s WALL (    6069 calls)
     vloc_psi     :     62.83s CPU     25.83s WALL (    6069 calls)
     add_vuspsi   :      1.87s CPU      0.59s WALL (    6069 calls)

     General routines
     calbec       :      3.55s CPU      1.24s WALL (    7189 calls)
     fft          :      1.09s CPU      0.57s WALL (     491 calls)
     ffts         :      0.16s CPU      0.12s WALL (      71 calls)
     fftw         :     60.18s CPU     24.86s WALL (  149116 calls)
     interpolate  :      0.21s CPU      0.15s WALL (      36 calls)

     Parallel routines

     PWSCF        :   2m22.19s CPU     53.74s WALL


   This run was terminated on:  19:29:36  13Jun2025            

=------------------------------------------------------------------------------=
   JOB DONE.
=------------------------------------------------------------------------------=
Note: The following floating-point exceptions are signalling: IEEE_INVALID_FLAG
