Authorization required, but no authorization protocol specified

Authorization required, but no authorization protocol specified

Authorization required, but no authorization protocol specified

Authorization required, but no authorization protocol specified

Authorization required, but no authorization protocol specified

Authorization required, but no authorization protocol specified

Authorization required, but no authorization protocol specified

Authorization required, but no authorization protocol specified

Authorization required, but no authorization protocol specified

Authorization required, but no authorization protocol specified


     Program PWSCF v.7.2 starts on 13Jun2025 at 17:44:38 

     This program is part of the open-source Quantum ESPRESSO suite
     for quantum simulation of materials; please cite
         "P. Giannozzi et al., J. Phys.:Condens. Matter 21 395502 (2009);
         "P. Giannozzi et al., J. Phys.:Condens. Matter 29 465901 (2017);
         "P. Giannozzi et al., J. Chem. Phys. 152 154105 (2020);
          URL http://www.quantum-espresso.org", 
     in publications or presentations arising from this work. More details at
     http://www.quantum-espresso.org/quote

     Parallel version (MPI), running on     8 processors

     MPI processes distributed on     1 nodes
     120714 MiB available memory on the printing compute node when the environment starts

     Reading input from /home/jvc/QEspresso7.2/ZnO_database_python/SCFs.in/scf-6.30-1.61.in

     Current dimensions of program PWSCF are:
     Max number of different atomic species (ntypx) = 10
     Max number of k-points (npk) =  40000
     Max angular momentum in pseudopotentials (lmaxx) =  4
     file Zn.upf: wavefunction(s)  3D renormalized

     R & G space division:  proc/nbgrp/npool/nimage =       8
     Subspace diagonalization in iterative solution of the eigenvalue problem:
     a serial algorithm will be used


     Parallelization info
     --------------------
     sticks:   dense  smooth     PW     G-vecs:    dense   smooth      PW
     Min         137      68     20                 5907     2080     348
     Max         138      69     21                 5910     2087     355
     Sum        1099     547    163                47267    16659    2803

     Using Slab Decomposition



     bravais-lattice index     =            4
     lattice parameter (alat)  =       6.3024  a.u.
     unit-cell volume          =     349.9839 (a.u.)^3
     number of atoms/cell      =            4
     number of atomic types    =            2
     number of electrons       =        36.00
     number of Kohn-Sham states=           18
     kinetic-energy cutoff     =      50.0000  Ry
     charge density cutoff     =     400.0000  Ry
     scf convergence threshold =      1.0E-08
     mixing beta               =       0.3000
     number of iterations used =            8  plain     mixing
     Exchange-correlation= PBE
                           (   1   4   3   4   0   0   0)

     celldm(1)=   6.302398  celldm(2)=   0.000000  celldm(3)=   1.614358
     celldm(4)=   0.000000  celldm(5)=   0.000000  celldm(6)=   0.000000

     crystal axes: (cart. coord. in units of alat)
               a(1) = (   1.000000   0.000000   0.000000 )  
               a(2) = (  -0.500000   0.866025   0.000000 )  
               a(3) = (   0.000000   0.000000   1.614358 )  

     reciprocal axes: (cart. coord. in units 2 pi/alat)
               b(1) = (  1.000000  0.577350 -0.000000 )  
               b(2) = (  0.000000  1.154701  0.000000 )  
               b(3) = (  0.000000 -0.000000  0.619441 )  


     PseudoPot. # 1 for Zn read from file:
     /home/jvc/QEspresso7.2/ZnO_database/pseudos/Zn.upf
     MD5 check sum: 7f56cabf9682ed8c977c2f7d0c5985c5
     Pseudo is Ultrasoft + core correction, Zval = 12.0
     Generated using &quot;atomic&quot; code by A. Dal Corso  v.6.2.2
     Using radial grid of 1201 points,  6 beta functions with: 
                l(1) =   0
                l(2) =   0
                l(3) =   1
                l(4) =   1
                l(5) =   2
                l(6) =   2
     Q(r) pseudized with 0 coefficients 


     PseudoPot. # 2 for O  read from file:
     /home/jvc/QEspresso7.2/ZnO_database/pseudos/O.upf
     MD5 check sum: 91400c9766925bcf19f520983a725ff0
     Pseudo is Ultrasoft + core correction, Zval =  6.0
     Generated using &quot;atomic&quot; code by A. Dal Corso  v.6.3MaX
     Using radial grid of 1095 points,  4 beta functions with: 
                l(1) =   0
                l(2) =   0
                l(3) =   1
                l(4) =   1
     Q(r) pseudized with 0 coefficients 


     atomic species   valence    mass     pseudopotential
        Zn            12.00    63.38000     Zn( 1.00)
        O              6.00    15.99900     O ( 1.00)

     12 Sym. Ops. (no inversion) found ( 6 have fractional translation)



   Cartesian axes

     site n.     atom                  positions (alat units)
         1           Zn  tau(   1) = (   0.5000000   0.2886751   0.8082020  )
         2           Zn  tau(   2) = (  -0.0000000   0.5773503   0.0010228  )
         3           O   tau(   3) = (   0.5000000   0.2886751   1.4201130  )
         4           O   tau(   4) = (  -0.0000000   0.5773503   0.6129338  )

     number of k points=    28
                       cart. coord. in units 2pi/alat
        k(    1) = (   0.0000000   0.0000000   0.0000000), wk =   0.0092593
        k(    2) = (   0.0000000   0.0000000   0.1032402), wk =   0.0185185
        k(    3) = (   0.0000000   0.0000000   0.2064804), wk =   0.0185185
        k(    4) = (   0.0000000   0.0000000  -0.3097206), wk =   0.0092593
        k(    5) = (   0.0000000   0.1924501   0.0000000), wk =   0.0555556
        k(    6) = (   0.0000000   0.1924501   0.1032402), wk =   0.1111111
        k(    7) = (   0.0000000   0.1924501   0.2064804), wk =   0.1111111
        k(    8) = (   0.0000000   0.1924501  -0.3097206), wk =   0.0555556
        k(    9) = (   0.0000000   0.3849002   0.0000000), wk =   0.0555556
        k(   10) = (   0.0000000   0.3849002   0.1032402), wk =   0.1111111
        k(   11) = (   0.0000000   0.3849002   0.2064804), wk =   0.1111111
        k(   12) = (   0.0000000   0.3849002  -0.3097206), wk =   0.0555556
        k(   13) = (   0.0000000  -0.5773503   0.0000000), wk =   0.0277778
        k(   14) = (   0.0000000  -0.5773503   0.1032402), wk =   0.0555556
        k(   15) = (   0.0000000  -0.5773503   0.2064804), wk =   0.0555556
        k(   16) = (   0.0000000  -0.5773503  -0.3097206), wk =   0.0277778
        k(   17) = (   0.1666667   0.2886751   0.0000000), wk =   0.0555556
        k(   18) = (   0.1666667   0.2886751   0.1032402), wk =   0.1111111
        k(   19) = (   0.1666667   0.2886751   0.2064804), wk =   0.1111111
        k(   20) = (   0.1666667   0.2886751  -0.3097206), wk =   0.0555556
        k(   21) = (   0.1666667   0.4811252   0.0000000), wk =   0.1111111
        k(   22) = (   0.1666667   0.4811252   0.1032402), wk =   0.2222222
        k(   23) = (   0.1666667   0.4811252   0.2064804), wk =   0.2222222
        k(   24) = (   0.1666667   0.4811252  -0.3097206), wk =   0.1111111
        k(   25) = (   0.3333333   0.5773503   0.0000000), wk =   0.0185185
        k(   26) = (   0.3333333   0.5773503   0.1032402), wk =   0.0370370
        k(   27) = (   0.3333333   0.5773503   0.2064804), wk =   0.0370370
        k(   28) = (   0.3333333   0.5773503  -0.3097206), wk =   0.0185185

     Dense  grid:    47267 G-vectors     FFT dimensions: (  45,  45,  72)

     Smooth grid:    16659 G-vectors     FFT dimensions: (  30,  30,  48)

     Estimated max dynamical RAM per process >      27.48 MB

     Estimated total dynamical RAM >     219.86 MB

     Check: negative core charge=   -0.000002

     Initial potential from superposition of free atoms

     starting charge      35.9925, renormalised to      36.0000
     Starting wfcs are   26 randomized atomic wfcs

     total cpu time spent up to now is        1.6 secs

     Self-consistent Calculation

     iteration #  1     ecut=    50.00 Ry     beta= 0.30
     Davidson diagonalization with overlap
     ethr =  1.00E-02,  avg # of iterations =  1.8

     total cpu time spent up to now is        2.4 secs

     total energy              =    -361.46883926 Ry
     estimated scf accuracy    <       0.71369276 Ry

     iteration #  2     ecut=    50.00 Ry     beta= 0.30
     Davidson diagonalization with overlap
     ethr =  1.98E-03,  avg # of iterations =  2.1

     total cpu time spent up to now is        3.5 secs

     total energy              =    -361.57786622 Ry
     estimated scf accuracy    <       0.08358192 Ry

     iteration #  3     ecut=    50.00 Ry     beta= 0.30
     Davidson diagonalization with overlap
     ethr =  2.32E-04,  avg # of iterations =  6.4

     total cpu time spent up to now is        5.1 secs

     total energy              =    -361.60378755 Ry
     estimated scf accuracy    <       0.06356058 Ry

     iteration #  4     ecut=    50.00 Ry     beta= 0.30
     Davidson diagonalization with overlap
     ethr =  1.77E-04,  avg # of iterations =  8.9

     total cpu time spent up to now is        7.2 secs

     total energy              =    -361.64986471 Ry
     estimated scf accuracy    <       0.29639474 Ry

     iteration #  5     ecut=    50.00 Ry     beta= 0.30
     Davidson diagonalization with overlap
     ethr =  1.77E-04,  avg # of iterations =  2.0

     total cpu time spent up to now is        8.1 secs

     total energy              =    -361.53637338 Ry
     estimated scf accuracy    <       0.17772306 Ry

     iteration #  6     ecut=    50.00 Ry     beta= 0.30
     Davidson diagonalization with overlap
     ethr =  1.77E-04,  avg # of iterations =  8.2

     total cpu time spent up to now is       10.0 secs

     total energy              =    -361.63840711 Ry
     estimated scf accuracy    <       0.17723704 Ry

     iteration #  7     ecut=    50.00 Ry     beta= 0.30
     Davidson diagonalization with overlap
     ethr =  1.77E-04,  avg # of iterations =  2.0

     total cpu time spent up to now is       10.9 secs

     total energy              =    -361.62326473 Ry
     estimated scf accuracy    <       0.09591449 Ry

     iteration #  8     ecut=    50.00 Ry     beta= 0.30
     Davidson diagonalization with overlap
     ethr =  1.77E-04,  avg # of iterations =  2.0

     total cpu time spent up to now is       11.9 secs

     total energy              =    -361.63746225 Ry
     estimated scf accuracy    <       0.03158069 Ry

     iteration #  9     ecut=    50.00 Ry     beta= 0.30
     Davidson diagonalization with overlap
     ethr =  8.77E-05,  avg # of iterations =  1.4

     total cpu time spent up to now is       12.7 secs

     total energy              =    -361.63949496 Ry
     estimated scf accuracy    <       0.03663399 Ry

     iteration # 10     ecut=    50.00 Ry     beta= 0.30
     Davidson diagonalization with overlap
     ethr =  8.77E-05,  avg # of iterations =  1.0

     total cpu time spent up to now is       13.5 secs

     total energy              =    -361.63322903 Ry
     estimated scf accuracy    <       0.03671069 Ry

     iteration # 11     ecut=    50.00 Ry     beta= 0.30
     Davidson diagonalization with overlap
     ethr =  8.77E-05,  avg # of iterations =  1.4

     total cpu time spent up to now is       14.4 secs

     total energy              =    -361.63689401 Ry
     estimated scf accuracy    <       0.02093209 Ry

     iteration # 12     ecut=    50.00 Ry     beta= 0.30
     Davidson diagonalization with overlap
     ethr =  5.81E-05,  avg # of iterations =  1.0

     total cpu time spent up to now is       15.2 secs

     total energy              =    -361.63701044 Ry
     estimated scf accuracy    <       0.02493516 Ry

     iteration # 13     ecut=    50.00 Ry     beta= 0.30
     Davidson diagonalization with overlap
     ethr =  5.81E-05,  avg # of iterations =  1.0

     total cpu time spent up to now is       16.0 secs

     total energy              =    -361.65327528 Ry
     estimated scf accuracy    <       0.02267035 Ry

     iteration # 14     ecut=    50.00 Ry     beta= 0.30
     Davidson diagonalization with overlap
     ethr =  5.81E-05,  avg # of iterations =  2.0

     total cpu time spent up to now is       16.9 secs

     total energy              =    -361.64369915 Ry
     estimated scf accuracy    <       0.05764224 Ry

     iteration # 15     ecut=    50.00 Ry     beta= 0.30
     Davidson diagonalization with overlap
     ethr =  5.81E-05,  avg # of iterations =  1.0

     total cpu time spent up to now is       17.8 secs

     total energy              =    -361.65357810 Ry
     estimated scf accuracy    <       0.04182022 Ry

     iteration # 16     ecut=    50.00 Ry     beta= 0.30
     Davidson diagonalization with overlap
     ethr =  5.81E-05,  avg # of iterations =  1.2

     total cpu time spent up to now is       18.6 secs

     total energy              =    -361.64575874 Ry
     estimated scf accuracy    <       0.06225807 Ry

     iteration # 17     ecut=    50.00 Ry     beta= 0.30
     Davidson diagonalization with overlap
     ethr =  5.81E-05,  avg # of iterations =  1.0

     total cpu time spent up to now is       19.4 secs

     total energy              =    -361.61653110 Ry
     estimated scf accuracy    <       0.04912802 Ry

     iteration # 18     ecut=    50.00 Ry     beta= 0.30
     Davidson diagonalization with overlap
     ethr =  5.81E-05,  avg # of iterations =  6.7

     total cpu time spent up to now is       21.1 secs

     total energy              =    -361.62934196 Ry
     estimated scf accuracy    <       0.01143971 Ry

     iteration # 19     ecut=    50.00 Ry     beta= 0.30
     Davidson diagonalization with overlap
     ethr =  3.18E-05,  avg # of iterations =  4.4

     total cpu time spent up to now is       22.4 secs

     total energy              =    -361.63295096 Ry
     estimated scf accuracy    <       0.00230595 Ry

     iteration # 20     ecut=    50.00 Ry     beta= 0.30
     Davidson diagonalization with overlap
     ethr =  6.41E-06,  avg # of iterations =  3.4

     total cpu time spent up to now is       23.5 secs

     total energy              =    -361.63317302 Ry
     estimated scf accuracy    <       0.00033794 Ry

     iteration # 21     ecut=    50.00 Ry     beta= 0.30
     Davidson diagonalization with overlap
     ethr =  9.39E-07,  avg # of iterations =  6.3

     total cpu time spent up to now is       25.1 secs

     total energy              =    -361.63345806 Ry
     estimated scf accuracy    <       0.00035682 Ry

     iteration # 22     ecut=    50.00 Ry     beta= 0.30
     Davidson diagonalization with overlap
     ethr =  9.39E-07,  avg # of iterations =  3.2

     total cpu time spent up to now is       26.2 secs

     total energy              =    -361.63354971 Ry
     estimated scf accuracy    <       0.00001589 Ry

     iteration # 23     ecut=    50.00 Ry     beta= 0.30
     Davidson diagonalization with overlap
     ethr =  4.41E-08,  avg # of iterations =  5.9

     total cpu time spent up to now is       27.7 secs

     total energy              =    -361.63355352 Ry
     estimated scf accuracy    <       0.00006625 Ry

     iteration # 24     ecut=    50.00 Ry     beta= 0.30
     Davidson diagonalization with overlap
     c_bands:  1 eigenvalues not converged
     ethr =  4.41E-08,  avg # of iterations = 13.4

     total cpu time spent up to now is       30.9 secs

     total energy              =    -361.63400991 Ry
     estimated scf accuracy    <       0.00199837 Ry

     iteration # 25     ecut=    50.00 Ry     beta= 0.30
     Davidson diagonalization with overlap
     ethr =  4.41E-08,  avg # of iterations =  1.3

     total cpu time spent up to now is       31.7 secs

     total energy              =    -361.63276934 Ry
     estimated scf accuracy    <       0.00192715 Ry

     iteration # 26     ecut=    50.00 Ry     beta= 0.30
     Davidson diagonalization with overlap
     c_bands:  1 eigenvalues not converged
     c_bands:  1 eigenvalues not converged
     ethr =  4.41E-08,  avg # of iterations = 14.6

     total cpu time spent up to now is       35.2 secs

     total energy              =    -361.63425428 Ry
     estimated scf accuracy    <       0.00113880 Ry

     iteration # 27     ecut=    50.00 Ry     beta= 0.30
     Davidson diagonalization with overlap
     ethr =  4.41E-08,  avg # of iterations = 10.9

     total cpu time spent up to now is       37.7 secs

     total energy              =    -361.63385507 Ry
     estimated scf accuracy    <       0.00320088 Ry

     iteration # 28     ecut=    50.00 Ry     beta= 0.30
     Davidson diagonalization with overlap
     ethr =  4.41E-08,  avg # of iterations =  9.2

     total cpu time spent up to now is       39.9 secs

     total energy              =    -361.63376050 Ry
     estimated scf accuracy    <       0.00150256 Ry

     iteration # 29     ecut=    50.00 Ry     beta= 0.30
     Davidson diagonalization with overlap
     ethr =  4.41E-08,  avg # of iterations =  6.2

     total cpu time spent up to now is       41.5 secs

     total energy              =    -361.63340545 Ry
     estimated scf accuracy    <       0.00094230 Ry

     iteration # 30     ecut=    50.00 Ry     beta= 0.30
     Davidson diagonalization with overlap
     ethr =  4.41E-08,  avg # of iterations = 11.3

     total cpu time spent up to now is       44.1 secs

     total energy              =    -361.63354851 Ry
     estimated scf accuracy    <       0.00000563 Ry

     iteration # 31     ecut=    50.00 Ry     beta= 0.30
     Davidson diagonalization with overlap
     ethr =  1.56E-08,  avg # of iterations =  2.0

     total cpu time spent up to now is       45.0 secs

     total energy              =    -361.63354741 Ry
     estimated scf accuracy    <       0.00000300 Ry

     iteration # 32     ecut=    50.00 Ry     beta= 0.30
     Davidson diagonalization with overlap
     ethr =  8.34E-09,  avg # of iterations =  5.7

     total cpu time spent up to now is       46.4 secs

     total energy              =    -361.63354876 Ry
     estimated scf accuracy    <       0.00000044 Ry

     iteration # 33     ecut=    50.00 Ry     beta= 0.30
     Davidson diagonalization with overlap
     ethr =  1.22E-09,  avg # of iterations =  2.9

     total cpu time spent up to now is       47.4 secs

     total energy              =    -361.63354869 Ry
     estimated scf accuracy    <       0.00000017 Ry

     iteration # 34     ecut=    50.00 Ry     beta= 0.30
     Davidson diagonalization with overlap
     ethr =  4.84E-10,  avg # of iterations =  6.2

     total cpu time spent up to now is       49.0 secs

     total energy              =    -361.63354878 Ry
     estimated scf accuracy    <       0.00000019 Ry

     iteration # 35     ecut=    50.00 Ry     beta= 0.30
     Davidson diagonalization with overlap
     ethr =  4.84E-10,  avg # of iterations =  2.0

     total cpu time spent up to now is       50.0 secs

     total energy              =    -361.63354878 Ry
     estimated scf accuracy    <       0.00000004 Ry

     iteration # 36     ecut=    50.00 Ry     beta= 0.30
     Davidson diagonalization with overlap
     ethr =  1.08E-10,  avg # of iterations =  6.2

     total cpu time spent up to now is       51.5 secs

     total energy              =    -361.63354881 Ry
     estimated scf accuracy    <       0.00000002 Ry

     iteration # 37     ecut=    50.00 Ry     beta= 0.30
     Davidson diagonalization with overlap
     ethr =  5.77E-11,  avg # of iterations =  1.2

     total cpu time spent up to now is       52.4 secs

     total energy              =    -361.63354881 Ry
     estimated scf accuracy    <       0.00000002 Ry

     iteration # 38     ecut=    50.00 Ry     beta= 0.30
     Davidson diagonalization with overlap
     ethr =  4.29E-11,  avg # of iterations =  4.1

     total cpu time spent up to now is       53.5 secs

     End of self-consistent calculation

          k = 0.0000 0.0000 0.0000 (  2069 PWs)   bands (ev):

   -11.3972 -10.8000   0.7208   0.7208   0.7544   0.8872   0.8872   1.0205
     1.6675   1.6675   1.8385   1.8385   2.0987   5.3494   5.3494   5.9819
     6.0470   6.0470

          k = 0.0000 0.0000 0.1032 (  2075 PWs)   bands (ev):

   -11.3589 -10.8418   0.7181   0.7270   0.7270   0.8603   0.8704   0.8704
     1.6831   1.6831   1.8319   1.8319   2.4282   5.3972   5.3972   5.4070
     6.0014   6.0014

          k = 0.0000 0.0000 0.2065 (  2081 PWs)   bands (ev):

   -11.2531 -10.9546   0.6415   0.6647   0.7471   0.7471   0.8292   0.8292
     1.7230   1.7230   1.8091   1.8091   3.0987   4.6331   5.5271   5.5271
     5.8760   5.8760

          k = 0.0000 0.0000-0.3097 (  2086 PWs)   bands (ev):

   -11.1056 -11.1056   0.5990   0.5990   0.7829   0.7829   0.7829   0.7829
     1.7701   1.7701   1.7701   1.7701   3.8596   3.8596   5.7026   5.7026
     5.7026   5.7026

          k = 0.0000 0.1925 0.0000 (  2090 PWs)   bands (ev):

   -11.2744 -10.7471   0.6166   0.7908   0.8135   0.9003   0.9933   1.1820
     1.6198   1.6664   1.8478   1.9844   2.0769   4.4792   4.9436   5.0392
     5.8162   5.8781

          k = 0.0000 0.1925 0.1032 (  2092 PWs)   bands (ev):

   -11.2400 -10.7834   0.5941   0.7782   0.7996   0.8640   0.9741   1.0352
     1.6456   1.6813   1.8386   1.8864   2.5026   4.5123   4.8137   5.0973
     5.7406   5.8235

          k = 0.0000 0.1925 0.2065 (  2078 PWs)   bands (ev):

   -11.1454 -10.8817   0.5441   0.6281   0.8268   0.8409   0.9222   0.9268
     1.7047   1.7201   1.8110   1.8336   3.1590   4.2973   4.8440   5.2544
     5.4945   5.6733

          k = 0.0000 0.1925-0.3097 (  2066 PWs)   bands (ev):

   -11.0145 -11.0145   0.5333   0.5333   0.8666   0.8666   0.8719   0.8719
     1.7683   1.7683   1.7734   1.7734   3.7909   3.7909   5.1475   5.1475
     5.4656   5.4656

          k = 0.0000 0.3849 0.0000 (  2088 PWs)   bands (ev):

   -10.9999 -10.6587   0.5249   0.8145   0.9031   1.1067   1.2453   1.3978
     1.6142   1.7298   1.8645   2.0424   2.3916   3.0993   3.8754   4.4075
     5.3227   5.5126

          k = 0.0000 0.3849 0.1032 (  2086 PWs)   bands (ev):

   -10.9764 -10.6807   0.4999   0.7476   0.9212   1.0845   1.2166   1.2728
     1.6392   1.7377   1.8533   1.9733   2.6177   3.2312   3.8695   4.4876
     5.3364   5.4422

          k = 0.0000 0.3849 0.2065 (  2090 PWs)   bands (ev):

   -10.9126 -10.7416   0.4557   0.5852   0.9736   1.0556   1.1338   1.1429
     1.7170   1.7597   1.8252   1.8943   2.8811   3.2825   4.2007   4.6998
     5.2149   5.2483

          k = 0.0000 0.3849-0.3097 (  2094 PWs)   bands (ev):

   -10.8264 -10.8264   0.4675   0.4675   1.0530   1.0530   1.0692   1.0692
     1.7911   1.7911   1.8085   1.8085   3.1032   3.1032   4.7946   4.7946
     4.9784   4.9784

          k = 0.0000-0.5774 0.0000 (  2084 PWs)   bands (ev):

   -10.8272 -10.6438   0.5832   0.8311   0.9387   1.2784   1.3524   1.3965
     1.7117   1.8091   1.8778   1.9410   2.4296   2.7721   3.4768   4.0640
     4.8949   5.3155

          k = 0.0000-0.5774 0.1032 (  2108 PWs)   bands (ev):

   -10.8134 -10.6545   0.5485   0.7384   0.9630   1.2646   1.3126   1.3584
     1.7649   1.8109   1.8664   1.9406   2.3973   2.7060   3.7454   4.1588
     4.9797   5.2374

          k = 0.0000-0.5774 0.2065 (  2098 PWs)   bands (ev):

   -10.7767 -10.6848   0.4824   0.5672   1.0332   1.2421   1.2601   1.2617
     1.8174   1.8456   1.8490   1.9337   2.3922   2.5744   4.3066   4.4051
     5.0224   5.0447

          k = 0.0000-0.5774-0.3097 (  2084 PWs)   bands (ev):

   -10.7292 -10.7292   0.4694   0.4694   1.1396   1.1396   1.2377   1.2377
     1.8286   1.8286   1.9071   1.9071   2.4576   2.4576   4.7210   4.7210
     4.8186   4.8186

          k = 0.1667 0.2887 0.0000 (  2089 PWs)   bands (ev):

   -11.0746 -10.6769   0.6098   0.7609   0.9126   0.9783   1.1907   1.3856
     1.5784   1.6868   1.8587   2.0455   2.3049   3.7346   3.8544   4.4993
     5.4612   5.5014

          k = 0.1667 0.2887 0.1032 (  2077 PWs)   bands (ev):

   -11.0477 -10.7031   0.5796   0.7336   0.9060   0.9562   1.1658   1.2111
     1.6150   1.7140   1.8484   1.9618   2.6455   3.8155   3.8713   4.5123
     5.3868   5.4900

          k = 0.1667 0.2887 0.2065 (  2087 PWs)   bands (ev):

   -10.9744 -10.7752   0.5216   0.6160   0.9069   0.9339   1.0620   1.1051
     1.6991   1.7467   1.8218   1.8849   3.0919   3.6618   4.2913   4.6430
     5.1869   5.3209

          k = 0.1667 0.2887-0.3097 (  2088 PWs)   bands (ev):

   -10.8745 -10.8745   0.5166   0.5166   0.9254   0.9254   1.0474   1.0474
     1.7757   1.7757   1.8056   1.8056   3.4167   3.4167   4.8022   4.8022
     4.9741   4.9741

          k = 0.1667 0.4811 0.0000 (  2093 PWs)   bands (ev):

   -10.8333 -10.6404   0.6654   0.8883   1.0045   1.1778   1.3836   1.4392
     1.6565   1.7162   1.8912   2.0688   2.3966   2.9588   3.4552   3.7549
     4.8788   5.0370

          k = 0.1667 0.4811 0.1032 (  2093 PWs)   bands (ev):

   -10.8189 -10.6518   0.6448   0.8392   0.9674   1.1633   1.3311   1.3630
     1.6651   1.7668   1.8893   2.0563   2.4249   2.9568   3.5635   3.9451
     4.8602   5.0445

          k = 0.1667 0.4811 0.2065 (  2098 PWs)   bands (ev):

   -10.7806 -10.6840   0.5916   0.6892   0.9769   1.1303   1.2435   1.2569
     1.7316   1.7901   1.9005   2.0058   2.5343   2.8449   3.8648   4.3923
     4.6504   5.0975

          k = 0.1667 0.4811-0.3097 (  2098 PWs)   bands (ev):

   -10.7307 -10.7307   0.5849   0.5849   1.0555   1.0555   1.2122   1.2122
     1.7788   1.7788   1.9435   1.9435   2.6864   2.6864   4.2341   4.2341
     4.9105   4.9105

          k = 0.3333 0.5774 0.0000 (  2121 PWs)   bands (ev):

   -10.6909 -10.6909   0.7067   1.0650   1.0650   1.4238   1.5764   1.5764
     1.6247   1.7196   1.8254   1.8254   2.6183   2.6801   2.6801   4.3214
     4.3214   4.5091

          k = 0.3333 0.5774 0.1032 (  2103 PWs)   bands (ev):

   -10.6890 -10.6890   0.7339   0.9950   0.9950   1.3233   1.4901   1.4901
     1.6359   1.7141   1.9303   1.9303   2.6366   2.6366   2.7811   4.3873
     4.4876   4.4876

          k = 0.3333 0.5774 0.2065 (  2094 PWs)   bands (ev):

   -10.6852 -10.6852   0.8153   0.8525   0.8525   1.1308   1.4172   1.4172
     1.6556   1.6991   2.0525   2.0525   2.5636   2.5636   3.1611   4.0610
     4.8019   4.8019

          k = 0.3333 0.5774-0.3097 (  2088 PWs)   bands (ev):

   -10.6833 -10.6833   0.7841   0.7841   0.9503   0.9503   1.3971   1.3971
     1.6779   1.6779   2.1001   2.1001   2.5306   2.5306   3.6202   3.6202
     4.9536   4.9536

     highest occupied level (ev):     6.0470

!    total energy              =    -361.63354881 Ry
     estimated scf accuracy    <          1.6E-10 Ry

     The total energy is the sum of the following terms:
     one-electron contribution =    -161.28928445 Ry
     hartree contribution      =     120.70675934 Ry
     xc contribution           =    -109.42872219 Ry
     ewald contribution        =    -211.62230151 Ry

     convergence has been achieved in  38 iterations

     Forces acting on atoms (cartesian axes, Ry/au):

     atom    1 type  1   force =    -0.00000000    0.00000000   -0.00004269
     atom    2 type  1   force =     0.00000000   -0.00000000   -0.00004269
     atom    3 type  2   force =     0.00000000    0.00000000    0.00004269
     atom    4 type  2   force =     0.00000000    0.00000000    0.00004269
     The non-local contrib.  to forces
     atom    1 type  1   force =     0.00000000    0.00000000   -0.00467541
     atom    2 type  1   force =     0.00000000   -0.00000000   -0.00467541
     atom    3 type  2   force =     0.00000000    0.00000000    0.00624465
     atom    4 type  2   force =     0.00000000    0.00000000    0.00624465
     The ionic contribution  to forces
     atom    1 type  1   force =    -0.00000000    0.00000000    0.06028209
     atom    2 type  1   force =     0.00000000   -0.00000000    0.06028209
     atom    3 type  2   force =    -0.00000000    0.00000000   -0.06028209
     atom    4 type  2   force =     0.00000000   -0.00000000   -0.06028209
     The local contribution  to forces
     atom    1 type  1   force =    -0.00000002    0.00000001   -0.05604330
     atom    2 type  1   force =     0.00000007   -0.00000004   -0.05604330
     atom    3 type  2   force =    -0.00000001    0.00000000    0.05415150
     atom    4 type  2   force =     0.00000002   -0.00000001    0.05415149
     The core correction contribution to forces
     atom    1 type  1   force =    -0.00000000    0.00000000    0.00039722
     atom    2 type  1   force =     0.00000001   -0.00000000    0.00039722
     atom    3 type  2   force =     0.00000000   -0.00000000   -0.00007015
     atom    4 type  2   force =    -0.00000000    0.00000000   -0.00007015
     The Hubbard contrib.    to forces
     atom    1 type  1   force =     0.00000000    0.00000000    0.00000000
     atom    2 type  1   force =     0.00000000    0.00000000    0.00000000
     atom    3 type  2   force =     0.00000000    0.00000000    0.00000000
     atom    4 type  2   force =     0.00000000    0.00000000    0.00000000
     The SCF correction term to forces
     atom    1 type  1   force =    -0.00000000    0.00000000   -0.00000230
     atom    2 type  1   force =     0.00000000   -0.00000000   -0.00000230
     atom    3 type  2   force =    -0.00000000    0.00000000   -0.00000024
     atom    4 type  2   force =     0.00000000   -0.00000000   -0.00000024

     Total force =     0.000085     Total SCF correction =     0.000003


     Computing stress (Cartesian axis) and pressure

          total   stress  (Ry/bohr**3)                   (kbar)     P=      -70.61
  -0.00048075  -0.00000000  -0.00000000          -70.72       -0.00       -0.00
  -0.00000000  -0.00048075  -0.00000000           -0.00      -70.72       -0.00
  -0.00000000  -0.00000000  -0.00047845           -0.00       -0.00      -70.38


     Writing all to output data dir ./ZnO_ANN.save/

     init_run     :      1.92s CPU      1.26s WALL (       1 calls)
     electrons    :    139.13s CPU     51.88s WALL (       1 calls)
     forces       :      0.72s CPU      0.33s WALL (       1 calls)
     stress       :      2.44s CPU      1.20s WALL (       1 calls)

     Called by init_run:
     wfcinit      :      1.08s CPU      0.40s WALL (       1 calls)
     potinit      :      0.27s CPU      0.27s WALL (       1 calls)
     hinit0       :      0.45s CPU      0.46s WALL (       1 calls)

     Called by electrons:
     c_bands      :    114.73s CPU     42.24s WALL (      38 calls)
     sum_band     :     17.81s CPU      6.93s WALL (      38 calls)
     v_of_rho     :      1.68s CPU      0.74s WALL (      39 calls)
     newd         :      4.52s CPU      1.84s WALL (      39 calls)
     mix_rho      :      0.26s CPU      0.12s WALL (      38 calls)

     Called by c_bands:
     init_us_2    :      1.68s CPU      0.60s WALL (    2212 calls)
     init_us_2:cp :      1.65s CPU      0.59s WALL (    2212 calls)
     cegterg      :    110.96s CPU     40.78s WALL (    1064 calls)

     Called by *egterg:
     cdiaghg      :     17.30s CPU      5.68s WALL (    5863 calls)
     h_psi        :     75.81s CPU     30.66s WALL (    5891 calls)
     s_psi        :      1.74s CPU      0.51s WALL (    5891 calls)
     g_psi        :      0.63s CPU      0.16s WALL (    4799 calls)

     Called by h_psi:
     h_psi:calbec :      2.65s CPU      0.95s WALL (    5891 calls)
     vloc_psi     :     70.77s CPU     28.95s WALL (    5891 calls)
     add_vuspsi   :      1.71s CPU      0.55s WALL (    5891 calls)

     General routines
     calbec       :      3.28s CPU      1.17s WALL (    7095 calls)
     fft          :      1.14s CPU      0.62s WALL (     530 calls)
     ffts         :      0.19s CPU      0.15s WALL (      77 calls)
     fftw         :     69.29s CPU     28.44s WALL (  160734 calls)
     interpolate  :      0.24s CPU      0.17s WALL (      39 calls)

     Parallel routines

     PWSCF        :   2m24.73s CPU     55.15s WALL


   This run was terminated on:  17:45:33  13Jun2025            

=------------------------------------------------------------------------------=
   JOB DONE.
=------------------------------------------------------------------------------=
Note: The following floating-point exceptions are signalling: IEEE_INVALID_FLAG
