Authorization required, but no authorization protocol specified

Authorization required, but no authorization protocol specified

Authorization required, but no authorization protocol specified

Authorization required, but no authorization protocol specified

Authorization required, but no authorization protocol specified

Authorization required, but no authorization protocol specified

Authorization required, but no authorization protocol specified

Authorization required, but no authorization protocol specified

Authorization required, but no authorization protocol specified

Authorization required, but no authorization protocol specified


     Program PWSCF v.7.2 starts on 13Jun2025 at 15:39:56 

     This program is part of the open-source Quantum ESPRESSO suite
     for quantum simulation of materials; please cite
         "P. Giannozzi et al., J. Phys.:Condens. Matter 21 395502 (2009);
         "P. Giannozzi et al., J. Phys.:Condens. Matter 29 465901 (2017);
         "P. Giannozzi et al., J. Chem. Phys. 152 154105 (2020);
          URL http://www.quantum-espresso.org", 
     in publications or presentations arising from this work. More details at
     http://www.quantum-espresso.org/quote

     Parallel version (MPI), running on     8 processors

     MPI processes distributed on     1 nodes
     120738 MiB available memory on the printing compute node when the environment starts

     Reading input from /home/jvc/QEspresso7.2/ZnO_database_python/SCFs.in/scf-5.68-1.74.in

     Current dimensions of program PWSCF are:
     Max number of different atomic species (ntypx) = 10
     Max number of k-points (npk) =  40000
     Max angular momentum in pseudopotentials (lmaxx) =  4
     file Zn.upf: wavefunction(s)  3D renormalized

     R & G space division:  proc/nbgrp/npool/nimage =       8
     Subspace diagonalization in iterative solution of the eigenvalue problem:
     a serial algorithm will be used


     Parallelization info
     --------------------
     sticks:   dense  smooth     PW     G-vecs:    dense   smooth      PW
     Min         111      54     17                 4679     1648     285
     Max         112      55     18                 4682     1653     290
     Sum         889     439    139                37443    13203    2299

     Using Slab Decomposition



     bravais-lattice index     =            4
     lattice parameter (alat)  =       5.6845  a.u.
     unit-cell volume          =     277.3542 (a.u.)^3
     number of atoms/cell      =            4
     number of atomic types    =            2
     number of electrons       =        36.00
     number of Kohn-Sham states=           18
     kinetic-energy cutoff     =      50.0000  Ry
     charge density cutoff     =     400.0000  Ry
     scf convergence threshold =      1.0E-08
     mixing beta               =       0.3000
     number of iterations used =            8  plain     mixing
     Exchange-correlation= PBE
                           (   1   4   3   4   0   0   0)

     celldm(1)=   5.684516  celldm(2)=   0.000000  celldm(3)=   1.743507
     celldm(4)=   0.000000  celldm(5)=   0.000000  celldm(6)=   0.000000

     crystal axes: (cart. coord. in units of alat)
               a(1) = (   1.000000   0.000000   0.000000 )  
               a(2) = (  -0.500000   0.866025   0.000000 )  
               a(3) = (   0.000000   0.000000   1.743507 )  

     reciprocal axes: (cart. coord. in units 2 pi/alat)
               b(1) = (  1.000000  0.577350 -0.000000 )  
               b(2) = (  0.000000  1.154701  0.000000 )  
               b(3) = (  0.000000 -0.000000  0.573557 )  


     PseudoPot. # 1 for Zn read from file:
     /home/jvc/QEspresso7.2/ZnO_database/pseudos/Zn.upf
     MD5 check sum: 7f56cabf9682ed8c977c2f7d0c5985c5
     Pseudo is Ultrasoft + core correction, Zval = 12.0
     Generated using &quot;atomic&quot; code by A. Dal Corso  v.6.2.2
     Using radial grid of 1201 points,  6 beta functions with: 
                l(1) =   0
                l(2) =   0
                l(3) =   1
                l(4) =   1
                l(5) =   2
                l(6) =   2
     Q(r) pseudized with 0 coefficients 


     PseudoPot. # 2 for O  read from file:
     /home/jvc/QEspresso7.2/ZnO_database/pseudos/O.upf
     MD5 check sum: 91400c9766925bcf19f520983a725ff0
     Pseudo is Ultrasoft + core correction, Zval =  6.0
     Generated using &quot;atomic&quot; code by A. Dal Corso  v.6.3MaX
     Using radial grid of 1095 points,  4 beta functions with: 
                l(1) =   0
                l(2) =   0
                l(3) =   1
                l(4) =   1
     Q(r) pseudized with 0 coefficients 


     atomic species   valence    mass     pseudopotential
        Zn            12.00    63.38000     Zn( 1.00)
        O              6.00    15.99900     O ( 1.00)

     12 Sym. Ops. (no inversion) found ( 6 have fractional translation)



   Cartesian axes

     site n.     atom                  positions (alat units)
         1           Zn  tau(   1) = (   0.5000000   0.2886751   0.8728582  )
         2           Zn  tau(   2) = (  -0.0000000   0.5773503   0.0011047  )
         3           O   tau(   3) = (   0.5000000   0.2886751   1.5337220  )
         4           O   tau(   4) = (  -0.0000000   0.5773503   0.6619685  )

     number of k points=    28
                       cart. coord. in units 2pi/alat
        k(    1) = (   0.0000000   0.0000000   0.0000000), wk =   0.0092593
        k(    2) = (   0.0000000   0.0000000   0.0955928), wk =   0.0185185
        k(    3) = (   0.0000000   0.0000000   0.1911855), wk =   0.0185185
        k(    4) = (   0.0000000   0.0000000  -0.2867783), wk =   0.0092593
        k(    5) = (   0.0000000   0.1924501   0.0000000), wk =   0.0555556
        k(    6) = (   0.0000000   0.1924501   0.0955928), wk =   0.1111111
        k(    7) = (   0.0000000   0.1924501   0.1911855), wk =   0.1111111
        k(    8) = (   0.0000000   0.1924501  -0.2867783), wk =   0.0555556
        k(    9) = (   0.0000000   0.3849002   0.0000000), wk =   0.0555556
        k(   10) = (   0.0000000   0.3849002   0.0955928), wk =   0.1111111
        k(   11) = (   0.0000000   0.3849002   0.1911855), wk =   0.1111111
        k(   12) = (   0.0000000   0.3849002  -0.2867783), wk =   0.0555556
        k(   13) = (   0.0000000  -0.5773503   0.0000000), wk =   0.0277778
        k(   14) = (   0.0000000  -0.5773503   0.0955928), wk =   0.0555556
        k(   15) = (   0.0000000  -0.5773503   0.1911855), wk =   0.0555556
        k(   16) = (   0.0000000  -0.5773503  -0.2867783), wk =   0.0277778
        k(   17) = (   0.1666667   0.2886751   0.0000000), wk =   0.0555556
        k(   18) = (   0.1666667   0.2886751   0.0955928), wk =   0.1111111
        k(   19) = (   0.1666667   0.2886751   0.1911855), wk =   0.1111111
        k(   20) = (   0.1666667   0.2886751  -0.2867783), wk =   0.0555556
        k(   21) = (   0.1666667   0.4811252   0.0000000), wk =   0.1111111
        k(   22) = (   0.1666667   0.4811252   0.0955928), wk =   0.2222222
        k(   23) = (   0.1666667   0.4811252   0.1911855), wk =   0.2222222
        k(   24) = (   0.1666667   0.4811252  -0.2867783), wk =   0.1111111
        k(   25) = (   0.3333333   0.5773503   0.0000000), wk =   0.0185185
        k(   26) = (   0.3333333   0.5773503   0.0955928), wk =   0.0370370
        k(   27) = (   0.3333333   0.5773503   0.1911855), wk =   0.0370370
        k(   28) = (   0.3333333   0.5773503  -0.2867783), wk =   0.0185185

     Dense  grid:    37443 G-vectors     FFT dimensions: (  40,  40,  64)

     Smooth grid:    13203 G-vectors     FFT dimensions: (  25,  25,  48)

     Estimated max dynamical RAM per process >      22.33 MB

     Estimated total dynamical RAM >     178.60 MB

     Check: negative core charge=   -0.000002

     Initial potential from superposition of free atoms

     starting charge      35.9925, renormalised to      36.0000
     Starting wfcs are   26 randomized atomic wfcs

     total cpu time spent up to now is        1.4 secs

     Self-consistent Calculation

     iteration #  1     ecut=    50.00 Ry     beta= 0.30
     Davidson diagonalization with overlap
     ethr =  1.00E-02,  avg # of iterations =  2.0

     total cpu time spent up to now is        2.1 secs

     total energy              =    -361.42605771 Ry
     estimated scf accuracy    <       0.67690197 Ry

     iteration #  2     ecut=    50.00 Ry     beta= 0.30
     Davidson diagonalization with overlap
     ethr =  1.88E-03,  avg # of iterations =  2.0

     total cpu time spent up to now is        2.8 secs

     total energy              =    -361.48096549 Ry
     estimated scf accuracy    <       0.12300477 Ry

     iteration #  3     ecut=    50.00 Ry     beta= 0.30
     Davidson diagonalization with overlap
     ethr =  3.42E-04,  avg # of iterations =  6.5

     total cpu time spent up to now is        4.2 secs

     total energy              =    -361.54844398 Ry
     estimated scf accuracy    <       0.08559692 Ry

     iteration #  4     ecut=    50.00 Ry     beta= 0.30
     Davidson diagonalization with overlap
     ethr =  2.38E-04,  avg # of iterations =  2.0

     total cpu time spent up to now is        4.8 secs

     total energy              =    -361.56429904 Ry
     estimated scf accuracy    <       0.01469824 Ry

     iteration #  5     ecut=    50.00 Ry     beta= 0.30
     Davidson diagonalization with overlap
     ethr =  4.08E-05,  avg # of iterations = 10.2

     total cpu time spent up to now is        6.8 secs

     total energy              =    -361.64649100 Ry
     estimated scf accuracy    <       0.54382038 Ry

     iteration #  6     ecut=    50.00 Ry     beta= 0.30
     Davidson diagonalization with overlap
     ethr =  4.08E-05,  avg # of iterations =  4.8

     total cpu time spent up to now is        7.9 secs

     total energy              =    -361.54584768 Ry
     estimated scf accuracy    <       0.33654075 Ry

     iteration #  7     ecut=    50.00 Ry     beta= 0.30
     Davidson diagonalization with overlap
     ethr =  4.08E-05,  avg # of iterations =  7.7

     total cpu time spent up to now is        9.4 secs

     total energy              =    -361.55082793 Ry
     estimated scf accuracy    <       0.04028663 Ry

     iteration #  8     ecut=    50.00 Ry     beta= 0.30
     Davidson diagonalization with overlap
     ethr =  4.08E-05,  avg # of iterations =  7.1

     total cpu time spent up to now is       10.8 secs

     total energy              =    -361.56739402 Ry
     estimated scf accuracy    <       0.00984269 Ry

     iteration #  9     ecut=    50.00 Ry     beta= 0.30
     Davidson diagonalization with overlap
     ethr =  2.73E-05,  avg # of iterations =  1.2

     total cpu time spent up to now is       11.4 secs

     total energy              =    -361.56440221 Ry
     estimated scf accuracy    <       0.00698798 Ry

     iteration # 10     ecut=    50.00 Ry     beta= 0.30
     Davidson diagonalization with overlap
     ethr =  1.94E-05,  avg # of iterations =  2.1

     total cpu time spent up to now is       12.1 secs

     total energy              =    -361.56472009 Ry
     estimated scf accuracy    <       0.00123936 Ry

     iteration # 11     ecut=    50.00 Ry     beta= 0.30
     Davidson diagonalization with overlap
     ethr =  3.44E-06,  avg # of iterations =  6.8

     total cpu time spent up to now is       13.5 secs

     total energy              =    -361.56614326 Ry
     estimated scf accuracy    <       0.00069013 Ry

     iteration # 12     ecut=    50.00 Ry     beta= 0.30
     Davidson diagonalization with overlap
     ethr =  1.92E-06,  avg # of iterations =  1.2

     total cpu time spent up to now is       14.1 secs

     total energy              =    -361.56597943 Ry
     estimated scf accuracy    <       0.00051040 Ry

     iteration # 13     ecut=    50.00 Ry     beta= 0.30
     Davidson diagonalization with overlap
     ethr =  1.42E-06,  avg # of iterations =  1.9

     total cpu time spent up to now is       14.8 secs

     total energy              =    -361.56602769 Ry
     estimated scf accuracy    <       0.00014286 Ry

     iteration # 14     ecut=    50.00 Ry     beta= 0.30
     Davidson diagonalization with overlap
     ethr =  3.97E-07,  avg # of iterations =  2.2

     total cpu time spent up to now is       15.5 secs

     total energy              =    -361.56601597 Ry
     estimated scf accuracy    <       0.00012438 Ry

     iteration # 15     ecut=    50.00 Ry     beta= 0.30
     Davidson diagonalization with overlap
     ethr =  3.46E-07,  avg # of iterations =  2.4

     total cpu time spent up to now is       16.2 secs

     total energy              =    -361.56603276 Ry
     estimated scf accuracy    <       0.00003973 Ry

     iteration # 16     ecut=    50.00 Ry     beta= 0.30
     Davidson diagonalization with overlap
     ethr =  1.10E-07,  avg # of iterations =  3.8

     total cpu time spent up to now is       17.1 secs

     total energy              =    -361.56604203 Ry
     estimated scf accuracy    <       0.00001566 Ry

     iteration # 17     ecut=    50.00 Ry     beta= 0.30
     Davidson diagonalization with overlap
     ethr =  4.35E-08,  avg # of iterations =  2.2

     total cpu time spent up to now is       17.8 secs

     total energy              =    -361.56604490 Ry
     estimated scf accuracy    <       0.00001454 Ry

     iteration # 18     ecut=    50.00 Ry     beta= 0.30
     Davidson diagonalization with overlap
     ethr =  4.04E-08,  avg # of iterations =  1.0

     total cpu time spent up to now is       18.4 secs

     total energy              =    -361.56605404 Ry
     estimated scf accuracy    <       0.00001817 Ry

     iteration # 19     ecut=    50.00 Ry     beta= 0.30
     Davidson diagonalization with overlap
     ethr =  4.04E-08,  avg # of iterations =  2.0

     total cpu time spent up to now is       19.1 secs

     total energy              =    -361.56609271 Ry
     estimated scf accuracy    <       0.00003839 Ry

     iteration # 20     ecut=    50.00 Ry     beta= 0.30
     Davidson diagonalization with overlap
     ethr =  4.04E-08,  avg # of iterations =  7.4

     total cpu time spent up to now is       20.5 secs

     total energy              =    -361.56614688 Ry
     estimated scf accuracy    <       0.00026050 Ry

     iteration # 21     ecut=    50.00 Ry     beta= 0.30
     Davidson diagonalization with overlap
     ethr =  4.04E-08,  avg # of iterations =  2.4

     total cpu time spent up to now is       21.3 secs

     total energy              =    -361.56611561 Ry
     estimated scf accuracy    <       0.00033198 Ry

     iteration # 22     ecut=    50.00 Ry     beta= 0.30
     Davidson diagonalization with overlap
     ethr =  4.04E-08,  avg # of iterations =  2.0

     total cpu time spent up to now is       21.9 secs

     total energy              =    -361.56606409 Ry
     estimated scf accuracy    <       0.00028039 Ry

     iteration # 23     ecut=    50.00 Ry     beta= 0.30
     Davidson diagonalization with overlap
     ethr =  4.04E-08,  avg # of iterations =  4.9

     total cpu time spent up to now is       23.0 secs

     total energy              =    -361.56605813 Ry
     estimated scf accuracy    <       0.00012427 Ry

     iteration # 24     ecut=    50.00 Ry     beta= 0.30
     Davidson diagonalization with overlap
     ethr =  4.04E-08,  avg # of iterations =  1.9

     total cpu time spent up to now is       23.7 secs

     total energy              =    -361.56600238 Ry
     estimated scf accuracy    <       0.00009180 Ry

     iteration # 25     ecut=    50.00 Ry     beta= 0.30
     Davidson diagonalization with overlap
     ethr =  4.04E-08,  avg # of iterations =  8.6

     total cpu time spent up to now is       25.3 secs

     total energy              =    -361.56603039 Ry
     estimated scf accuracy    <       0.00003142 Ry

     iteration # 26     ecut=    50.00 Ry     beta= 0.30
     Davidson diagonalization with overlap
     ethr =  4.04E-08,  avg # of iterations =  5.8

     total cpu time spent up to now is       26.6 secs

     total energy              =    -361.56604100 Ry
     estimated scf accuracy    <       0.00000316 Ry

     iteration # 27     ecut=    50.00 Ry     beta= 0.30
     Davidson diagonalization with overlap
     ethr =  8.78E-09,  avg # of iterations =  2.2

     total cpu time spent up to now is       27.3 secs

     total energy              =    -361.56604059 Ry
     estimated scf accuracy    <       0.00000289 Ry

     iteration # 28     ecut=    50.00 Ry     beta= 0.30
     Davidson diagonalization with overlap
     ethr =  8.02E-09,  avg # of iterations =  1.2

     total cpu time spent up to now is       27.9 secs

     total energy              =    -361.56603985 Ry
     estimated scf accuracy    <       0.00000159 Ry

     iteration # 29     ecut=    50.00 Ry     beta= 0.30
     Davidson diagonalization with overlap
     ethr =  4.43E-09,  avg # of iterations =  4.4

     total cpu time spent up to now is       28.9 secs

     total energy              =    -361.56604039 Ry
     estimated scf accuracy    <       0.00000003 Ry

     iteration # 30     ecut=    50.00 Ry     beta= 0.30
     Davidson diagonalization with overlap
     ethr =  6.95E-11,  avg # of iterations =  6.6

     total cpu time spent up to now is       30.1 secs

     total energy              =    -361.56604046 Ry
     estimated scf accuracy    <       0.00000006 Ry

     iteration # 31     ecut=    50.00 Ry     beta= 0.30
     Davidson diagonalization with overlap
     ethr =  6.95E-11,  avg # of iterations =  1.1

     total cpu time spent up to now is       30.8 secs

     total energy              =    -361.56604049 Ry
     estimated scf accuracy    <       0.00000008 Ry

     iteration # 32     ecut=    50.00 Ry     beta= 0.30
     Davidson diagonalization with overlap
     ethr =  6.95E-11,  avg # of iterations =  3.2

     total cpu time spent up to now is       31.6 secs

     total energy              =    -361.56604048 Ry
     estimated scf accuracy    <       0.00000016 Ry

     iteration # 33     ecut=    50.00 Ry     beta= 0.30
     Davidson diagonalization with overlap
     ethr =  6.95E-11,  avg # of iterations =  1.0

     total cpu time spent up to now is       32.2 secs

     total energy              =    -361.56604042 Ry
     estimated scf accuracy    <       0.00000014 Ry

     iteration # 34     ecut=    50.00 Ry     beta= 0.30
     Davidson diagonalization with overlap
     ethr =  6.95E-11,  avg # of iterations =  5.1

     total cpu time spent up to now is       33.3 secs

     total energy              =    -361.56604046 Ry
     estimated scf accuracy    <       0.00000001 Ry

     iteration # 35     ecut=    50.00 Ry     beta= 0.30
     Davidson diagonalization with overlap
     ethr =  3.15E-11,  avg # of iterations =  4.8

     total cpu time spent up to now is       34.4 secs

     total energy              =    -361.56604046 Ry
     estimated scf accuracy    <       0.00000008 Ry

     iteration # 36     ecut=    50.00 Ry     beta= 0.30
     Davidson diagonalization with overlap
     ethr =  3.15E-11,  avg # of iterations =  1.2

     total cpu time spent up to now is       35.0 secs

     total energy              =    -361.56604046 Ry
     estimated scf accuracy    <       0.00000008 Ry

     iteration # 37     ecut=    50.00 Ry     beta= 0.30
     Davidson diagonalization with overlap
     ethr =  3.15E-11,  avg # of iterations =  1.0

     total cpu time spent up to now is       35.6 secs

     total energy              =    -361.56604055 Ry
     estimated scf accuracy    <       0.00000008 Ry

     iteration # 38     ecut=    50.00 Ry     beta= 0.30
     Davidson diagonalization with overlap
     ethr =  3.15E-11,  avg # of iterations =  8.5

     total cpu time spent up to now is       37.3 secs

     total energy              =    -361.56604028 Ry
     estimated scf accuracy    <       0.00000052 Ry

     iteration # 39     ecut=    50.00 Ry     beta= 0.30
     Davidson diagonalization with overlap
     ethr =  3.15E-11,  avg # of iterations = 10.9

     total cpu time spent up to now is       39.5 secs

     total energy              =    -361.56604043 Ry
     estimated scf accuracy    <       0.00000007 Ry

     iteration # 40     ecut=    50.00 Ry     beta= 0.30
     Davidson diagonalization with overlap
     ethr =  3.15E-11,  avg # of iterations =  6.2

     total cpu time spent up to now is       40.7 secs

     End of self-consistent calculation

          k = 0.0000 0.0000 0.0000 (  1631 PWs)   bands (ev):

    -9.7489  -8.9350   2.5950   3.0645   3.0645   3.1427   3.2585   3.2585
     4.8337   4.8337   5.0593   5.0593   5.4785   9.0356   9.0356   9.3994
     9.8057   9.8057

          k = 0.0000 0.0000 0.0956 (  1654 PWs)   bands (ev):

    -9.6984  -8.9939   2.5942   3.0736   3.0736   3.0785   3.2410   3.2410
     4.8518   4.8518   5.0479   5.0479   5.7054   8.8433   9.0869   9.0869
     9.7540   9.7540

          k = 0.0000 0.0000 0.1912 (  1660 PWs)   bands (ev):

    -9.5576  -9.1514   2.6310   2.9211   3.1016   3.1016   3.1979   3.1979
     4.9001   4.9001   5.0133   5.0133   6.3001   7.9763   9.2277   9.2277
     9.6130   9.6130

          k = 0.0000 0.0000-0.2868 (  1642 PWs)   bands (ev):

    -9.3586  -9.3586   2.7478   2.7478   3.1459   3.1459   3.1459   3.1459
     4.9606   4.9606   4.9606   4.9606   7.1008   7.1008   9.4202   9.4202
     9.4202   9.4202

          k = 0.0000 0.1925 0.0000 (  1663 PWs)   bands (ev):

    -9.5380  -8.8177   2.7568   2.9873   3.1594   3.1798   3.3034   3.4149
     4.7299   4.8260   5.0691   5.1618   5.4169   7.9487   8.6252   8.6491
     9.2284   9.5451

          k = 0.0000 0.1925 0.0956 (  1669 PWs)   bands (ev):

    -9.4924  -8.8687   2.7149   2.8765   3.1918   3.2141   3.2946   3.3950
     4.7626   4.8441   5.0546   5.1090   5.7047   7.9922   8.4654   8.6878
     9.1197   9.4842

          k = 0.0000 0.1925 0.1912 (  1668 PWs)   bands (ev):

    -9.3659  -9.0061   2.6435   2.7399   3.2272   3.2403   3.2806   3.3439
     4.8438   4.8924   5.0140   5.0343   6.3597   7.8254   8.2915   8.8448
     8.8580   9.3174

          k = 0.0000 0.1925-0.2868 (  1666 PWs)   bands (ev):

    -9.1887  -9.1887   2.6483   2.6483   3.2586   3.2586   3.2816   3.2816
     4.9427   4.9427   4.9551   4.9551   7.1414   7.1414   8.5282   8.5282
     9.0885   9.0885

          k = 0.0000 0.3849 0.0000 (  1655 PWs)   bands (ev):

    -9.0647  -8.5993   2.4995   2.9445   3.3751   3.6036   3.7819   3.7838
     4.6142   4.9266   5.1011   5.2195   5.5095   6.1630   7.2980   7.7619
     8.6072   8.9732

          k = 0.0000 0.3849 0.0956 (  1648 PWs)   bands (ev):

    -9.0334  -8.6300   2.4756   2.8228   3.3976   3.5895   3.7381   3.7505
     4.6738   4.9369   5.0870   5.2022   5.7497   6.2548   7.2417   7.8489
     8.5676   8.8954

          k = 0.0000 0.3849 0.1912 (  1658 PWs)   bands (ev):

    -8.9477  -8.7146   2.4378   2.6037   3.4622   3.5805   3.6647   3.6651
     4.8072   4.9656   5.0511   5.1023   6.1737   6.4737   7.2788   8.0800
     8.3216   8.6815

          k = 0.0000 0.3849-0.2868 (  1674 PWs)   bands (ev):

    -8.8309  -8.8309   2.4631   2.4631   3.5581   3.5581   3.6066   3.6066
     4.9606   4.9606   5.0064   5.0064   6.4317   6.4317   7.7869   7.7869
     8.3848   8.3848

          k = 0.0000-0.5774 0.0000 (  1650 PWs)   bands (ev):

    -8.7708  -8.5276   2.6313   2.6598   3.4424   3.8810   3.9546   4.0053
     4.8306   5.0667   5.1449   5.2571   5.4926   5.6279   6.4880   7.2646
     8.0687   8.6501

          k = 0.0000-0.5774 0.0956 (  1644 PWs)   bands (ev):

    -8.7528  -8.5420   2.5793   2.5927   3.4727   3.8523   3.9297   3.9579
     4.9048   5.0696   5.1346   5.2518   5.4935   5.5949   6.7200   7.3694
     8.1064   8.5636

          k = 0.0000-0.5774 0.1912 (  1654 PWs)   bands (ev):

    -8.7048  -8.5829   2.4708   2.4747   3.5594   3.8244   3.8368   3.8785
     5.0384   5.0777   5.1124   5.2215   5.4993   5.5474   7.2535   7.6417
     8.0847   8.3251

          k = 0.0000-0.5774-0.2868 (  1660 PWs)   bands (ev):

    -8.6421  -8.6421   2.4189   2.4189   3.6896   3.6896   3.8360   3.8360
     5.0920   5.0920   5.1501   5.1501   5.5161   5.5161   7.7919   7.7919
     7.9912   7.9912

          k = 0.1667 0.2887 0.0000 (  1657 PWs)   bands (ev):

    -9.1937  -8.6498   2.6830   2.9541   3.3278   3.3773   3.5878   3.7198
     4.6362   4.8471   5.0865   5.2891   5.4471   6.8928   7.3599   7.8680
     8.8651   8.9358

          k = 0.1667 0.2887 0.0956 (  1657 PWs)   bands (ev):

    -9.1578  -8.6867   2.6510   2.8505   3.3097   3.3646   3.5847   3.6971
     4.6859   4.8797   5.0720   5.2116   5.7682   6.9808   7.3409   7.8693
     8.7872   8.8533

          k = 0.1667 0.2887 0.1912 (  1664 PWs)   bands (ev):

    -9.0594  -8.7872   2.5870   2.6649   3.3139   3.3454   3.5764   3.6422
     4.8088   4.9302   5.0343   5.0998   6.3831   7.1905   7.2721   7.9767
     8.4886   8.6333

          k = 0.1667 0.2887-0.2868 (  1668 PWs)   bands (ev):

    -8.9238  -8.9238   2.5694   2.5694   3.3314   3.3314   3.5916   3.5916
     4.9535   4.9535   4.9888   4.9888   6.8833   6.8833   7.7959   7.7959
     8.3658   8.3658

          k = 0.1667 0.4811 0.0000 (  1644 PWs)   bands (ev):

    -8.7838  -8.5232   2.7482   2.9687   3.4082   3.7128   3.9869   3.9970
     4.6966   4.8622   5.1694   5.3240   5.5205   6.0461   6.4119   6.8480
     8.0222   8.3382

          k = 0.1667 0.4811 0.0956 (  1654 PWs)   bands (ev):

    -8.7648  -8.5389   2.7123   2.8916   3.3996   3.6663   3.9323   3.9615
     4.7357   4.9545   5.1660   5.4132   5.4491   6.1024   6.5187   6.9632
     8.0024   8.2944

          k = 0.1667 0.4811 0.1912 (  1652 PWs)   bands (ev):

    -8.7138  -8.5831   2.6420   2.7312   3.4165   3.5767   3.8743   3.8966
     4.8561   5.0081   5.1710   5.3194   5.6321   6.0306   6.8939   7.2814
     7.8455   8.1985

          k = 0.1667 0.4811-0.2868 (  1646 PWs)   bands (ev):

    -8.6468  -8.6468   2.6295   2.6295   3.4851   3.4851   3.8611   3.8611
     4.9703   4.9703   5.2145   5.2145   5.8530   5.8530   7.2861   7.2861
     7.9406   7.9406

          k = 0.3333 0.5774 0.0000 (  1668 PWs)   bands (ev):

    -8.5652  -8.5652   2.9152   3.4652   3.5796   3.5796   4.2362   4.2362
     4.6412   4.7826   4.7826   4.8221   5.7038   5.9282   5.9282   7.4246
     7.4246   7.4453

          k = 0.3333 0.5774 0.0956 (  1650 PWs)   bands (ev):

    -8.5629  -8.5629   2.9407   3.4085   3.4420   3.4420   4.1995   4.1995
     4.6611   4.8131   4.9622   4.9622   5.8188   5.8716   5.8716   7.3178
     7.5481   7.5481

          k = 0.3333 0.5774 0.1912 (  1638 PWs)   bands (ev):

    -8.5583  -8.5583   3.0154   3.2179   3.2179   3.2770   4.1698   4.1698
     4.7039   4.7872   5.2594   5.2594   5.7316   5.7316   6.1280   6.9831
     7.7947   7.7947

          k = 0.3333 0.5774-0.2868 (  1644 PWs)   bands (ev):

    -8.5560  -8.5560   3.1226   3.1226   3.1331   3.1331   4.1615   4.1615
     4.7488   4.7488   5.4689   5.4689   5.5798   5.5798   6.5491   6.5491
     7.9191   7.9191

     highest occupied level (ev):     9.8057

!    total energy              =    -361.56604044 Ry
     estimated scf accuracy    <          4.6E-09 Ry

     The total energy is the sum of the following terms:
     one-electron contribution =    -134.55915404 Ry
     hartree contribution      =     111.38225556 Ry
     xc contribution           =    -109.94356644 Ry
     ewald contribution        =    -228.44557551 Ry

     convergence has been achieved in  40 iterations

     Forces acting on atoms (cartesian axes, Ry/au):

     atom    1 type  1   force =     0.00000000    0.00000000    0.04827813
     atom    2 type  1   force =     0.00000000    0.00000000    0.04827813
     atom    3 type  2   force =     0.00000000    0.00000000   -0.04827813
     atom    4 type  2   force =     0.00000000    0.00000000   -0.04827813
     The non-local contrib.  to forces
     atom    1 type  1   force =     0.00000000    0.00000000    0.22742937
     atom    2 type  1   force =     0.00000000   -0.00000000    0.22742937
     atom    3 type  2   force =    -0.00000000   -0.00000000    0.18212942
     atom    4 type  2   force =    -0.00000000    0.00000000    0.18212942
     The ionic contribution  to forces
     atom    1 type  1   force =    -0.00000000    0.00000000    1.85858239
     atom    2 type  1   force =     0.00000000   -0.00000000    1.85858239
     atom    3 type  2   force =    -0.00000000    0.00000000   -1.85858239
     atom    4 type  2   force =     0.00000000   -0.00000000   -1.85858239
     The local contribution  to forces
     atom    1 type  1   force =    -0.00000002    0.00000001   -2.01894000
     atom    2 type  1   force =     0.00000006   -0.00000003   -2.01894000
     atom    3 type  2   force =    -0.00000000    0.00000000    1.62945110
     atom    4 type  2   force =     0.00000001   -0.00000001    1.62945110
     The core correction contribution to forces
     atom    1 type  1   force =    -0.00000000    0.00000000   -0.01881070
     atom    2 type  1   force =     0.00000001   -0.00000000   -0.01881070
     atom    3 type  2   force =     0.00000000   -0.00000000   -0.00127941
     atom    4 type  2   force =    -0.00000000    0.00000000   -0.00127941
     The Hubbard contrib.    to forces
     atom    1 type  1   force =     0.00000000    0.00000000    0.00000000
     atom    2 type  1   force =     0.00000000    0.00000000    0.00000000
     atom    3 type  2   force =     0.00000000    0.00000000    0.00000000
     atom    4 type  2   force =     0.00000000    0.00000000    0.00000000
     The SCF correction term to forces
     atom    1 type  1   force =    -0.00000000    0.00000000    0.00002042
     atom    2 type  1   force =     0.00000000   -0.00000000    0.00002042
     atom    3 type  2   force =     0.00000000   -0.00000000    0.00000648
     atom    4 type  2   force =    -0.00000000    0.00000000    0.00000648

     Total force =     0.096556     Total SCF correction =     0.000030


     Computing stress (Cartesian axis) and pressure

          total   stress  (Ry/bohr**3)                   (kbar)     P=      357.26
   0.00305675   0.00000000   0.00000000          449.66        0.00        0.00
   0.00000000   0.00305675   0.00000000            0.00      449.66        0.00
   0.00000000   0.00000000   0.00117236            0.00        0.00      172.46


     Writing all to output data dir ./ZnO_ANN.save/

     init_run     :      1.50s CPU      1.04s WALL (       1 calls)
     electrons    :    106.24s CPU     39.33s WALL (       1 calls)
     forces       :      0.63s CPU      0.27s WALL (       1 calls)
     stress       :      2.01s CPU      1.06s WALL (       1 calls)

     Called by init_run:
     wfcinit      :      0.75s CPU      0.30s WALL (       1 calls)
     potinit      :      0.19s CPU      0.20s WALL (       1 calls)
     hinit0       :      0.44s CPU      0.45s WALL (       1 calls)

     Called by electrons:
     c_bands      :     86.66s CPU     31.71s WALL (      40 calls)
     sum_band     :     14.11s CPU      5.41s WALL (      40 calls)
     v_of_rho     :      1.23s CPU      0.55s WALL (      41 calls)
     newd         :      3.91s CPU      1.54s WALL (      41 calls)
     mix_rho      :      0.23s CPU      0.10s WALL (      40 calls)

     Called by c_bands:
     init_us_2    :      1.43s CPU      0.51s WALL (    2324 calls)
     init_us_2:cp :      1.40s CPU      0.50s WALL (    2324 calls)
     cegterg      :     83.46s CPU     30.48s WALL (    1120 calls)

     Called by *egterg:
     cdiaghg      :     15.77s CPU      5.30s WALL (    5596 calls)
     h_psi        :     53.50s CPU     21.42s WALL (    5624 calls)
     s_psi        :      1.44s CPU      0.45s WALL (    5624 calls)
     g_psi        :      0.48s CPU      0.12s WALL (    4476 calls)

     Called by h_psi:
     h_psi:calbec :      2.14s CPU      0.80s WALL (    5624 calls)
     vloc_psi     :     49.37s CPU     19.97s WALL (    5624 calls)
     add_vuspsi   :      1.43s CPU      0.48s WALL (    5624 calls)

     General routines
     calbec       :      2.77s CPU      1.02s WALL (    6884 calls)
     fft          :      0.91s CPU      0.51s WALL (     556 calls)
     ffts         :      0.12s CPU      0.10s WALL (      81 calls)
     fftw         :     48.27s CPU     19.55s WALL (  158880 calls)
     interpolate  :      0.16s CPU      0.11s WALL (      41 calls)

     Parallel routines

     PWSCF        :   1m50.91s CPU     42.17s WALL


   This run was terminated on:  15:40:38  13Jun2025            

=------------------------------------------------------------------------------=
   JOB DONE.
=------------------------------------------------------------------------------=
Note: The following floating-point exceptions are signalling: IEEE_INVALID_FLAG
