Authorization required, but no authorization protocol specified

Authorization required, but no authorization protocol specified

Authorization required, but no authorization protocol specified

Authorization required, but no authorization protocol specified

Authorization required, but no authorization protocol specified

Authorization required, but no authorization protocol specified

Authorization required, but no authorization protocol specified

Authorization required, but no authorization protocol specified

Authorization required, but no authorization protocol specified

Authorization required, but no authorization protocol specified


     Program PWSCF v.7.2 starts on 13Jun2025 at 18:33:55 

     This program is part of the open-source Quantum ESPRESSO suite
     for quantum simulation of materials; please cite
         "P. Giannozzi et al., J. Phys.:Condens. Matter 21 395502 (2009);
         "P. Giannozzi et al., J. Phys.:Condens. Matter 29 465901 (2017);
         "P. Giannozzi et al., J. Chem. Phys. 152 154105 (2020);
          URL http://www.quantum-espresso.org", 
     in publications or presentations arising from this work. More details at
     http://www.quantum-espresso.org/quote

     Parallel version (MPI), running on     8 processors

     MPI processes distributed on     1 nodes
     120699 MiB available memory on the printing compute node when the environment starts

     Reading input from /home/jvc/QEspresso7.2/ZnO_database_python/SCFs.in/scf-6.49-1.60.in

     Current dimensions of program PWSCF are:
     Max number of different atomic species (ntypx) = 10
     Max number of k-points (npk) =  40000
     Max angular momentum in pseudopotentials (lmaxx) =  4
     file Zn.upf: wavefunction(s)  3D renormalized

     R & G space division:  proc/nbgrp/npool/nimage =       8
     Subspace diagonalization in iterative solution of the eigenvalue problem:
     a serial algorithm will be used


     Parallelization info
     --------------------
     sticks:   dense  smooth     PW     G-vecs:    dense   smooth      PW
     Min         144      72     21                 6380     2262     369
     Max         145      73     22                 6385     2269     373
     Sum        1159     583    169                51073    18137    2965

     Using Slab Decomposition



     bravais-lattice index     =            4
     lattice parameter (alat)  =       6.4878  a.u.
     unit-cell volume          =     377.9641 (a.u.)^3
     number of atoms/cell      =            4
     number of atomic types    =            2
     number of electrons       =        36.00
     number of Kohn-Sham states=           18
     kinetic-energy cutoff     =      50.0000  Ry
     charge density cutoff     =     400.0000  Ry
     scf convergence threshold =      1.0E-08
     mixing beta               =       0.3000
     number of iterations used =            8  plain     mixing
     Exchange-correlation= PBE
                           (   1   4   3   4   0   0   0)

     celldm(1)=   6.487762  celldm(2)=   0.000000  celldm(3)=   1.598215
     celldm(4)=   0.000000  celldm(5)=   0.000000  celldm(6)=   0.000000

     crystal axes: (cart. coord. in units of alat)
               a(1) = (   1.000000   0.000000   0.000000 )  
               a(2) = (  -0.500000   0.866025   0.000000 )  
               a(3) = (   0.000000   0.000000   1.598215 )  

     reciprocal axes: (cart. coord. in units 2 pi/alat)
               b(1) = (  1.000000  0.577350 -0.000000 )  
               b(2) = (  0.000000  1.154701  0.000000 )  
               b(3) = (  0.000000 -0.000000  0.625698 )  


     PseudoPot. # 1 for Zn read from file:
     /home/jvc/QEspresso7.2/ZnO_database/pseudos/Zn.upf
     MD5 check sum: 7f56cabf9682ed8c977c2f7d0c5985c5
     Pseudo is Ultrasoft + core correction, Zval = 12.0
     Generated using &quot;atomic&quot; code by A. Dal Corso  v.6.2.2
     Using radial grid of 1201 points,  6 beta functions with: 
                l(1) =   0
                l(2) =   0
                l(3) =   1
                l(4) =   1
                l(5) =   2
                l(6) =   2
     Q(r) pseudized with 0 coefficients 


     PseudoPot. # 2 for O  read from file:
     /home/jvc/QEspresso7.2/ZnO_database/pseudos/O.upf
     MD5 check sum: 91400c9766925bcf19f520983a725ff0
     Pseudo is Ultrasoft + core correction, Zval =  6.0
     Generated using &quot;atomic&quot; code by A. Dal Corso  v.6.3MaX
     Using radial grid of 1095 points,  4 beta functions with: 
                l(1) =   0
                l(2) =   0
                l(3) =   1
                l(4) =   1
     Q(r) pseudized with 0 coefficients 


     atomic species   valence    mass     pseudopotential
        Zn            12.00    63.38000     Zn( 1.00)
        O              6.00    15.99900     O ( 1.00)

     12 Sym. Ops. (no inversion) found ( 6 have fractional translation)



   Cartesian axes

     site n.     atom                  positions (alat units)
         1           Zn  tau(   1) = (   0.5000000   0.2886751   0.8001200  )
         2           Zn  tau(   2) = (  -0.0000000   0.5773503   0.0010126  )
         3           O   tau(   3) = (   0.5000000   0.2886751   1.4059118  )
         4           O   tau(   4) = (  -0.0000000   0.5773503   0.6068045  )

     number of k points=    28
                       cart. coord. in units 2pi/alat
        k(    1) = (   0.0000000   0.0000000   0.0000000), wk =   0.0092593
        k(    2) = (   0.0000000   0.0000000   0.1042830), wk =   0.0185185
        k(    3) = (   0.0000000   0.0000000   0.2085660), wk =   0.0185185
        k(    4) = (   0.0000000   0.0000000  -0.3128491), wk =   0.0092593
        k(    5) = (   0.0000000   0.1924501   0.0000000), wk =   0.0555556
        k(    6) = (   0.0000000   0.1924501   0.1042830), wk =   0.1111111
        k(    7) = (   0.0000000   0.1924501   0.2085660), wk =   0.1111111
        k(    8) = (   0.0000000   0.1924501  -0.3128491), wk =   0.0555556
        k(    9) = (   0.0000000   0.3849002   0.0000000), wk =   0.0555556
        k(   10) = (   0.0000000   0.3849002   0.1042830), wk =   0.1111111
        k(   11) = (   0.0000000   0.3849002   0.2085660), wk =   0.1111111
        k(   12) = (   0.0000000   0.3849002  -0.3128491), wk =   0.0555556
        k(   13) = (   0.0000000  -0.5773503   0.0000000), wk =   0.0277778
        k(   14) = (   0.0000000  -0.5773503   0.1042830), wk =   0.0555556
        k(   15) = (   0.0000000  -0.5773503   0.2085660), wk =   0.0555556
        k(   16) = (   0.0000000  -0.5773503  -0.3128491), wk =   0.0277778
        k(   17) = (   0.1666667   0.2886751   0.0000000), wk =   0.0555556
        k(   18) = (   0.1666667   0.2886751   0.1042830), wk =   0.1111111
        k(   19) = (   0.1666667   0.2886751   0.2085660), wk =   0.1111111
        k(   20) = (   0.1666667   0.2886751  -0.3128491), wk =   0.0555556
        k(   21) = (   0.1666667   0.4811252   0.0000000), wk =   0.1111111
        k(   22) = (   0.1666667   0.4811252   0.1042830), wk =   0.2222222
        k(   23) = (   0.1666667   0.4811252   0.2085660), wk =   0.2222222
        k(   24) = (   0.1666667   0.4811252  -0.3128491), wk =   0.1111111
        k(   25) = (   0.3333333   0.5773503   0.0000000), wk =   0.0185185
        k(   26) = (   0.3333333   0.5773503   0.1042830), wk =   0.0370370
        k(   27) = (   0.3333333   0.5773503   0.2085660), wk =   0.0370370
        k(   28) = (   0.3333333   0.5773503  -0.3128491), wk =   0.0185185

     Dense  grid:    51073 G-vectors     FFT dimensions: (  45,  45,  72)

     Smooth grid:    18137 G-vectors     FFT dimensions: (  30,  30,  48)

     Estimated max dynamical RAM per process >      29.32 MB

     Estimated total dynamical RAM >     234.53 MB

     Check: negative core charge=   -0.000002

     Initial potential from superposition of free atoms

     starting charge      35.9925, renormalised to      36.0000
     Starting wfcs are   26 randomized atomic wfcs

     total cpu time spent up to now is        1.7 secs

     Self-consistent Calculation

     iteration #  1     ecut=    50.00 Ry     beta= 0.30
     Davidson diagonalization with overlap
     ethr =  1.00E-02,  avg # of iterations =  1.4

     total cpu time spent up to now is        2.5 secs

     total energy              =    -361.43854179 Ry
     estimated scf accuracy    <       0.75079762 Ry

     iteration #  2     ecut=    50.00 Ry     beta= 0.30
     Davidson diagonalization with overlap
     ethr =  2.09E-03,  avg # of iterations =  2.2

     total cpu time spent up to now is        3.6 secs

     total energy              =    -361.55803419 Ry
     estimated scf accuracy    <       0.08210453 Ry

     iteration #  3     ecut=    50.00 Ry     beta= 0.30
     Davidson diagonalization with overlap
     ethr =  2.28E-04,  avg # of iterations =  6.2

     total cpu time spent up to now is        5.2 secs

     total energy              =    -361.57505729 Ry
     estimated scf accuracy    <       0.08144396 Ry

     iteration #  4     ecut=    50.00 Ry     beta= 0.30
     Davidson diagonalization with overlap
     ethr =  2.26E-04,  avg # of iterations =  9.0

     total cpu time spent up to now is        7.4 secs

     total energy              =    -361.64374872 Ry
     estimated scf accuracy    <       0.42945427 Ry

     iteration #  5     ecut=    50.00 Ry     beta= 0.30
     Davidson diagonalization with overlap
     ethr =  2.26E-04,  avg # of iterations =  2.0

     total cpu time spent up to now is        8.4 secs

     total energy              =    -361.72044798 Ry
     estimated scf accuracy    <       0.27197693 Ry

     iteration #  6     ecut=    50.00 Ry     beta= 0.30
     Davidson diagonalization with overlap
     ethr =  2.26E-04,  avg # of iterations =  1.7

     total cpu time spent up to now is        9.2 secs

     total energy              =    -361.68383761 Ry
     estimated scf accuracy    <       0.39656146 Ry

     iteration #  7     ecut=    50.00 Ry     beta= 0.30
     Davidson diagonalization with overlap
     ethr =  2.26E-04,  avg # of iterations =  1.0

     total cpu time spent up to now is       10.1 secs

     total energy              =    -361.45467000 Ry
     estimated scf accuracy    <       0.33581011 Ry

     iteration #  8     ecut=    50.00 Ry     beta= 0.30
     Davidson diagonalization with overlap
     ethr =  2.26E-04,  avg # of iterations =  8.4

     total cpu time spent up to now is       12.0 secs

     total energy              =    -361.66688113 Ry
     estimated scf accuracy    <       0.35818752 Ry

     iteration #  9     ecut=    50.00 Ry     beta= 0.30
     Davidson diagonalization with overlap
     ethr =  2.26E-04,  avg # of iterations =  1.1

     total cpu time spent up to now is       12.9 secs

     total energy              =    -361.67506235 Ry
     estimated scf accuracy    <       0.27837632 Ry

     iteration # 10     ecut=    50.00 Ry     beta= 0.30
     Davidson diagonalization with overlap
     ethr =  2.26E-04,  avg # of iterations =  1.0

     total cpu time spent up to now is       13.7 secs

     total energy              =    -361.65076111 Ry
     estimated scf accuracy    <       0.28946760 Ry

     iteration # 11     ecut=    50.00 Ry     beta= 0.30
     Davidson diagonalization with overlap
     ethr =  2.26E-04,  avg # of iterations =  1.0

     total cpu time spent up to now is       14.6 secs

     total energy              =    -361.62682151 Ry
     estimated scf accuracy    <       0.23655139 Ry

     iteration # 12     ecut=    50.00 Ry     beta= 0.30
     Davidson diagonalization with overlap
     ethr =  2.26E-04,  avg # of iterations =  2.0

     total cpu time spent up to now is       15.5 secs

     total energy              =    -361.62885964 Ry
     estimated scf accuracy    <       0.12130999 Ry

     iteration # 13     ecut=    50.00 Ry     beta= 0.30
     Davidson diagonalization with overlap
     ethr =  2.26E-04,  avg # of iterations =  1.1

     total cpu time spent up to now is       16.4 secs

     total energy              =    -361.62258570 Ry
     estimated scf accuracy    <       0.10034318 Ry

     iteration # 14     ecut=    50.00 Ry     beta= 0.30
     Davidson diagonalization with overlap
     ethr =  2.26E-04,  avg # of iterations =  1.0

     total cpu time spent up to now is       17.2 secs

     total energy              =    -361.55829457 Ry
     estimated scf accuracy    <       0.08064709 Ry

     iteration # 15     ecut=    50.00 Ry     beta= 0.30
     Davidson diagonalization with overlap
     ethr =  2.24E-04,  avg # of iterations =  9.1

     total cpu time spent up to now is       19.5 secs

     total energy              =    -361.58007155 Ry
     estimated scf accuracy    <       0.60138312 Ry

     iteration # 16     ecut=    50.00 Ry     beta= 0.30
     Davidson diagonalization with overlap
     ethr =  2.24E-04,  avg # of iterations =  5.0

     total cpu time spent up to now is       21.0 secs

     total energy              =    -361.63169204 Ry
     estimated scf accuracy    <       0.07293988 Ry

     iteration # 17     ecut=    50.00 Ry     beta= 0.30
     Davidson diagonalization with overlap
     ethr =  2.03E-04,  avg # of iterations =  1.1

     total cpu time spent up to now is       21.9 secs

     total energy              =    -361.62177590 Ry
     estimated scf accuracy    <       0.07632793 Ry

     iteration # 18     ecut=    50.00 Ry     beta= 0.30
     Davidson diagonalization with overlap
     ethr =  2.03E-04,  avg # of iterations =  1.1

     total cpu time spent up to now is       22.7 secs

     total energy              =    -361.60750963 Ry
     estimated scf accuracy    <       0.05170456 Ry

     iteration # 19     ecut=    50.00 Ry     beta= 0.30
     Davidson diagonalization with overlap
     ethr =  1.44E-04,  avg # of iterations =  2.6

     total cpu time spent up to now is       23.7 secs

     total energy              =    -361.60879439 Ry
     estimated scf accuracy    <       0.01270080 Ry

     iteration # 20     ecut=    50.00 Ry     beta= 0.30
     Davidson diagonalization with overlap
     ethr =  3.53E-05,  avg # of iterations =  5.5

     total cpu time spent up to now is       25.0 secs

     total energy              =    -361.61523319 Ry
     estimated scf accuracy    <       0.00089375 Ry

     iteration # 21     ecut=    50.00 Ry     beta= 0.30
     Davidson diagonalization with overlap
     ethr =  2.48E-06,  avg # of iterations =  4.9

     total cpu time spent up to now is       26.4 secs

     total energy              =    -361.61547822 Ry
     estimated scf accuracy    <       0.00051189 Ry

     iteration # 22     ecut=    50.00 Ry     beta= 0.30
     Davidson diagonalization with overlap
     ethr =  1.42E-06,  avg # of iterations =  5.2

     total cpu time spent up to now is       27.8 secs

     total energy              =    -361.61576201 Ry
     estimated scf accuracy    <       0.00039827 Ry

     iteration # 23     ecut=    50.00 Ry     beta= 0.30
     Davidson diagonalization with overlap
     ethr =  1.11E-06,  avg # of iterations =  1.0

     total cpu time spent up to now is       28.7 secs

     total energy              =    -361.61554330 Ry
     estimated scf accuracy    <       0.00033422 Ry

     iteration # 24     ecut=    50.00 Ry     beta= 0.30
     Davidson diagonalization with overlap
     ethr =  9.28E-07,  avg # of iterations =  5.0

     total cpu time spent up to now is       30.1 secs

     total energy              =    -361.61561719 Ry
     estimated scf accuracy    <       0.00021296 Ry

     iteration # 25     ecut=    50.00 Ry     beta= 0.30
     Davidson diagonalization with overlap
     ethr =  5.92E-07,  avg # of iterations =  4.3

     total cpu time spent up to now is       31.3 secs

     total energy              =    -361.61571285 Ry
     estimated scf accuracy    <       0.00002657 Ry

     iteration # 26     ecut=    50.00 Ry     beta= 0.30
     Davidson diagonalization with overlap
     ethr =  7.38E-08,  avg # of iterations =  6.7

     total cpu time spent up to now is       32.9 secs

     total energy              =    -361.61570963 Ry
     estimated scf accuracy    <       0.00020744 Ry

     iteration # 27     ecut=    50.00 Ry     beta= 0.30
     Davidson diagonalization with overlap
     ethr =  7.38E-08,  avg # of iterations =  2.0

     total cpu time spent up to now is       33.8 secs

     total energy              =    -361.61571929 Ry
     estimated scf accuracy    <       0.00014699 Ry

     iteration # 28     ecut=    50.00 Ry     beta= 0.30
     Davidson diagonalization with overlap
     ethr =  7.38E-08,  avg # of iterations =  1.0

     total cpu time spent up to now is       34.7 secs

     total energy              =    -361.61571539 Ry
     estimated scf accuracy    <       0.00015581 Ry

     iteration # 29     ecut=    50.00 Ry     beta= 0.30
     Davidson diagonalization with overlap
     ethr =  7.38E-08,  avg # of iterations =  1.0

     total cpu time spent up to now is       35.5 secs

     total energy              =    -361.61571769 Ry
     estimated scf accuracy    <       0.00014130 Ry

     iteration # 30     ecut=    50.00 Ry     beta= 0.30
     Davidson diagonalization with overlap
     ethr =  7.38E-08,  avg # of iterations =  1.0

     total cpu time spent up to now is       36.4 secs

     total energy              =    -361.61576075 Ry
     estimated scf accuracy    <       0.00014464 Ry

     iteration # 31     ecut=    50.00 Ry     beta= 0.30
     Davidson diagonalization with overlap
     ethr =  7.38E-08,  avg # of iterations =  2.3

     total cpu time spent up to now is       37.3 secs

     total energy              =    -361.61574592 Ry
     estimated scf accuracy    <       0.00023094 Ry

     iteration # 32     ecut=    50.00 Ry     beta= 0.30
     Davidson diagonalization with overlap
     ethr =  7.38E-08,  avg # of iterations =  1.0

     total cpu time spent up to now is       38.1 secs

     total energy              =    -361.61574870 Ry
     estimated scf accuracy    <       0.00021296 Ry

     iteration # 33     ecut=    50.00 Ry     beta= 0.30
     Davidson diagonalization with overlap
     ethr =  7.38E-08,  avg # of iterations =  1.0

     total cpu time spent up to now is       39.0 secs

     total energy              =    -361.61571895 Ry
     estimated scf accuracy    <       0.00022558 Ry

     iteration # 34     ecut=    50.00 Ry     beta= 0.30
     Davidson diagonalization with overlap
     ethr =  7.38E-08,  avg # of iterations =  1.6

     total cpu time spent up to now is       39.9 secs

     total energy              =    -361.61560826 Ry
     estimated scf accuracy    <       0.00017185 Ry

     iteration # 35     ecut=    50.00 Ry     beta= 0.30
     Davidson diagonalization with overlap
     ethr =  7.38E-08,  avg # of iterations =  9.9

     total cpu time spent up to now is       42.2 secs

     total energy              =    -361.61562609 Ry
     estimated scf accuracy    <       0.00015028 Ry

     iteration # 36     ecut=    50.00 Ry     beta= 0.30
     Davidson diagonalization with overlap
     ethr =  7.38E-08,  avg # of iterations =  9.6

     total cpu time spent up to now is       44.5 secs

     total energy              =    -361.61572302 Ry
     estimated scf accuracy    <       0.00011109 Ry

     iteration # 37     ecut=    50.00 Ry     beta= 0.30
     Davidson diagonalization with overlap
     ethr =  7.38E-08,  avg # of iterations =  1.6

     total cpu time spent up to now is       45.4 secs

     total energy              =    -361.61568653 Ry
     estimated scf accuracy    <       0.00013165 Ry

     iteration # 38     ecut=    50.00 Ry     beta= 0.30
     Davidson diagonalization with overlap
     ethr =  7.38E-08,  avg # of iterations =  2.1

     total cpu time spent up to now is       46.4 secs

     total energy              =    -361.61566448 Ry
     estimated scf accuracy    <       0.00006586 Ry

     iteration # 39     ecut=    50.00 Ry     beta= 0.30
     Davidson diagonalization with overlap
     ethr =  7.38E-08,  avg # of iterations =  5.9

     total cpu time spent up to now is       47.9 secs

     total energy              =    -361.61568660 Ry
     estimated scf accuracy    <       0.00000358 Ry

     iteration # 40     ecut=    50.00 Ry     beta= 0.30
     Davidson diagonalization with overlap
     ethr =  9.96E-09,  avg # of iterations =  3.6

     total cpu time spent up to now is       49.0 secs

     total energy              =    -361.61568710 Ry
     estimated scf accuracy    <       0.00000025 Ry

     iteration # 41     ecut=    50.00 Ry     beta= 0.30
     Davidson diagonalization with overlap
     ethr =  7.05E-10,  avg # of iterations =  8.0

     total cpu time spent up to now is       51.0 secs

     total energy              =    -361.61568767 Ry
     estimated scf accuracy    <       0.00000051 Ry

     iteration # 42     ecut=    50.00 Ry     beta= 0.30
     Davidson diagonalization with overlap
     ethr =  7.05E-10,  avg # of iterations =  1.3

     total cpu time spent up to now is       51.8 secs

     total energy              =    -361.61568723 Ry
     estimated scf accuracy    <       0.00000052 Ry

     iteration # 43     ecut=    50.00 Ry     beta= 0.30
     Davidson diagonalization with overlap
     ethr =  7.05E-10,  avg # of iterations =  9.8

     total cpu time spent up to now is       54.2 secs

     total energy              =    -361.61568783 Ry
     estimated scf accuracy    <       0.00000281 Ry

     iteration # 44     ecut=    50.00 Ry     beta= 0.30
     Davidson diagonalization with overlap
     ethr =  7.05E-10,  avg # of iterations =  2.0

     total cpu time spent up to now is       55.1 secs

     total energy              =    -361.61568714 Ry
     estimated scf accuracy    <       0.00000203 Ry

     iteration # 45     ecut=    50.00 Ry     beta= 0.30
     Davidson diagonalization with overlap
     ethr =  7.05E-10,  avg # of iterations =  7.1

     total cpu time spent up to now is       56.9 secs

     End of self-consistent calculation

          k = 0.0000 0.0000 0.0000 (  2297 PWs)   bands (ev):

   -11.8882 -11.3756  -0.0281  -0.0281  -0.0076   0.1188   0.1188   0.5030
     0.7205   0.7205   0.8687   0.8687   1.1425   4.4006   4.4006   5.0128
     5.0401   5.0401

          k = 0.0000 0.0000 0.1043 (  2267 PWs)   bands (ev):

   -11.8551 -11.4111  -0.0327  -0.0227  -0.0227   0.1041   0.1041   0.2671
     0.7347   0.7347   0.8631   0.8631   1.5288   4.4199   4.4446   4.4446
     4.9985   4.9985

          k = 0.0000 0.0000 0.2086 (  2268 PWs)   bands (ev):

   -11.7637 -11.5073  -0.0816  -0.0052  -0.0052   0.0181   0.0673   0.0673
     0.7693   0.7693   0.8439   0.8439   2.2005   3.6692   4.5640   4.5640
     4.8838   4.8838

          k = 0.0000 0.0000-0.3128 (  2292 PWs)   bands (ev):

   -11.6367 -11.6367  -0.0881  -0.0881   0.0263   0.0263   0.0263   0.0263
     0.8102   0.8102   0.8102   0.8102   2.9296   2.9296   4.7251   4.7251
     4.7251   4.7251

          k = 0.0000 0.1925 0.0000 (  2271 PWs)   bands (ev):

   -11.7857 -11.3334  -0.0952   0.0315   0.0493   0.1401   0.2099   0.5426
     0.6843   0.7212   0.8767   1.0158   1.2112   3.5763   3.9528   4.1230
     4.8603   4.8938

          k = 0.0000 0.1925 0.1043 (  2265 PWs)   bands (ev):

   -11.7560 -11.3643  -0.1118   0.0367   0.0391   0.1154   0.1931   0.3476
     0.7068   0.7341   0.8689   0.9165   1.6367   3.5828   3.8529   4.1764
     4.7928   4.8436

          k = 0.0000 0.1925 0.2086 (  2259 PWs)   bands (ev):

   -11.6744 -11.4482  -0.1456  -0.0423   0.0631   0.0788   0.1512   0.1658
     0.7568   0.7675   0.8456   0.8669   2.2565   3.3160   3.9472   4.3207
     4.5691   4.7056

          k = 0.0000 0.1925-0.3128 (  2256 PWs)   bands (ev):

   -11.5619 -11.5619  -0.1383  -0.1383   0.1013   0.1013   0.1027   0.1027
     0.8089   0.8089   0.8152   0.8152   2.8382   2.8382   4.2448   4.2448
     4.5147   4.5147

          k = 0.0000 0.3849 0.0000 (  2250 PWs)   bands (ev):

   -11.5572 -11.2646  -0.1363   0.0942   0.1238   0.3203   0.4227   0.5583
     0.7036   0.7752   0.8905   1.0541   1.6397   2.2930   2.9713   3.5662
     4.4108   4.5783

          k = 0.0000 0.3849 0.1043 (  2255 PWs)   bands (ev):

   -11.5370 -11.2835  -0.1563   0.0498   0.1399   0.3023   0.3983   0.4650
     0.7134   0.7818   0.8807   0.9947   1.7813   2.4044   3.0008   3.6386
     4.4294   4.5133

          k = 0.0000 0.3849 0.2086 (  2250 PWs)   bands (ev):

   -11.4822 -11.3356  -0.1898  -0.0713   0.1864   0.2730   0.3348   0.3349
     0.7743   0.8005   0.8566   0.9224   1.9851   2.3787   3.3874   3.8315
     4.3284   4.3345

          k = 0.0000 0.3849-0.3128 (  2254 PWs)   bands (ev):

   -11.4082 -11.4082  -0.1738  -0.1738   0.2563   0.2563   0.2787   0.2787
     0.8273   0.8273   0.8498   0.8498   2.1896   2.1896   3.9475   3.9475
     4.0864   4.0864

          k = 0.0000-0.5774 0.0000 (  2256 PWs)   bands (ev):

   -11.4136 -11.2554  -0.0997   0.1520   0.1879   0.4351   0.5451   0.5572
     0.7822   0.8404   0.9000   0.9520   1.5427   2.0166   2.7026   3.2713
     4.0176   4.4101

          k = 0.0000-0.5774 0.1043 (  2260 PWs)   bands (ev):

   -11.4017 -11.2646  -0.1247   0.0990   0.1735   0.4285   0.5143   0.5270
     0.8219   0.8421   0.8903   0.9520   1.5134   1.9325   2.9579   3.3555
     4.1055   4.3381

          k = 0.0000-0.5774 0.2086 (  2246 PWs)   bands (ev):

   -11.3702 -11.2909  -0.1694  -0.0644   0.2355   0.4224   0.4322   0.4739
     0.8474   0.8718   0.8859   0.9478   1.5225   1.7651   3.4891   3.5766
     4.1400   4.1777

          k = 0.0000-0.5774-0.3128 (  2260 PWs)   bands (ev):

   -11.3293 -11.3293  -0.1654  -0.1654   0.3282   0.3282   0.4354   0.4354
     0.8568   0.8568   0.9287   0.9287   1.6143   1.6143   3.8637   3.8637
     3.9702   3.9702

          k = 0.1667 0.2887 0.0000 (  2257 PWs)   bands (ev):

   -11.6193 -11.2784  -0.0721   0.0256   0.1353   0.2122   0.3783   0.6021
     0.6523   0.7413   0.8858   1.0553   1.5402   2.9178   2.9232   3.6297
     4.5246   4.5711

          k = 0.1667 0.2887 0.1043 (  2253 PWs)   bands (ev):

   -11.5961 -11.3008  -0.0962   0.0174   0.1296   0.1955   0.3564   0.4396
     0.6839   0.7640   0.8770   0.9839   1.8086   2.8677   3.0693   3.6474
     4.4559   4.5681

          k = 0.1667 0.2887 0.2086 (  2254 PWs)   bands (ev):

   -11.5331 -11.3625  -0.1407  -0.0496   0.1325   0.1709   0.2692   0.3024
     0.7554   0.7908   0.8546   0.9133   2.1807   2.7060   3.4877   3.7731
     4.2715   4.4264

          k = 0.1667 0.2887-0.3128 (  2260 PWs)   bands (ev):

   -11.4474 -11.4474  -0.1360  -0.1360   0.1549   0.1549   0.2486   0.2486
     0.8156   0.8156   0.8452   0.8452   2.4708   2.4708   3.9477   3.9477
     4.0905   4.0905

          k = 0.1667 0.4811 0.0000 (  2256 PWs)   bands (ev):

   -11.4182 -11.2527  -0.0382   0.1353   0.2816   0.3849   0.5449   0.5782
     0.7269   0.7735   0.9125   1.0613   1.6300   2.1245   2.6911   2.9760
     4.0145   4.1427

          k = 0.1667 0.4811 0.1043 (  2259 PWs)   bands (ev):

   -11.4059 -11.2624  -0.0477   0.1172   0.2236   0.3754   0.4998   0.5259
     0.7318   0.8090   0.9116   1.0486   1.6288   2.1008   2.7988   3.1626
     3.9976   4.1579

          k = 0.1667 0.4811 0.2086 (  2254 PWs)   bands (ev):

   -11.3731 -11.2902  -0.0791   0.0189   0.2020   0.3521   0.4223   0.4317
     0.7836   0.8269   0.9235   1.0098   1.6939   1.9757   3.0718   3.5948
     3.7923   4.2290

          k = 0.1667 0.4811-0.3128 (  2254 PWs)   bands (ev):

   -11.3304 -11.3304  -0.0747  -0.0747   0.2771   0.2771   0.3940   0.3940
     0.8187   0.8187   0.9606   0.9606   1.8220   1.8220   3.4142   3.4142
     4.0649   4.0649

          k = 0.3333 0.5774 0.0000 (  2259 PWs)   bands (ev):

   -11.2979 -11.2979  -0.0238   0.2811   0.2811   0.6132   0.6710   0.6710
     0.7205   0.7717   0.9313   0.9313   1.8788   1.8788   1.9191   3.4878
     3.4878   3.6907

          k = 0.3333 0.5774 0.1043 (  2244 PWs)   bands (ev):

   -11.2963 -11.2963   0.0020   0.2295   0.2295   0.5387   0.6213   0.6213
     0.7157   0.7674   0.9853   0.9853   1.8262   1.8262   2.0674   3.5765
     3.6548   3.6548

          k = 0.3333 0.5774 0.2086 (  2265 PWs)   bands (ev):

   -11.2933 -11.2933   0.0791   0.1212   0.1212   0.3717   0.5688   0.5688
     0.7231   0.7550   1.0547   1.0547   1.7462   1.7462   2.4212   3.2696
     3.9643   3.9643

          k = 0.3333 0.5774-0.3128 (  2256 PWs)   bands (ev):

   -11.2918 -11.2918   0.0677   0.0677   0.2060   0.2060   0.5526   0.5526
     0.7386   0.7386   1.0813   1.0813   1.7146   1.7146   2.8538   2.8538
     4.1118   4.1118

     highest occupied level (ev):     5.0401

!    total energy              =    -361.61568753 Ry
     estimated scf accuracy    <          5.4E-09 Ry

     The total energy is the sum of the following terms:
     one-electron contribution =    -169.92765878 Ry
     hartree contribution      =     123.84658554 Ry
     xc contribution           =    -109.28856256 Ry
     ewald contribution        =    -206.24605173 Ry

     convergence has been achieved in  45 iterations

     Forces acting on atoms (cartesian axes, Ry/au):

     atom    1 type  1   force =     0.00000000    0.00000000   -0.00097704
     atom    2 type  1   force =    -0.00000000    0.00000000   -0.00097704
     atom    3 type  2   force =     0.00000000    0.00000000    0.00097704
     atom    4 type  2   force =     0.00000000    0.00000000    0.00097704
     The non-local contrib.  to forces
     atom    1 type  1   force =     0.00000000    0.00000000   -0.03131054
     atom    2 type  1   force =     0.00000000    0.00000000   -0.03131054
     atom    3 type  2   force =     0.00000000    0.00000000   -0.01876005
     atom    4 type  2   force =     0.00000000    0.00000000   -0.01876005
     The ionic contribution  to forces
     atom    1 type  1   force =    -0.00000000    0.00000000   -0.13182904
     atom    2 type  1   force =     0.00000000   -0.00000000   -0.13182904
     atom    3 type  2   force =    -0.00000000    0.00000000    0.13182904
     atom    4 type  2   force =     0.00000000   -0.00000000    0.13182904
     The local contribution  to forces
     atom    1 type  1   force =    -0.00000002    0.00000001    0.16010680
     atom    2 type  1   force =     0.00000007   -0.00000004    0.16010681
     atom    3 type  2   force =    -0.00000001    0.00000000   -0.11225153
     atom    4 type  2   force =     0.00000002   -0.00000001   -0.11225154
     The core correction contribution to forces
     atom    1 type  1   force =    -0.00000000    0.00000000    0.00206858
     atom    2 type  1   force =     0.00000001   -0.00000001    0.00206858
     atom    3 type  2   force =     0.00000000   -0.00000000    0.00014164
     atom    4 type  2   force =    -0.00000000    0.00000000    0.00014164
     The Hubbard contrib.    to forces
     atom    1 type  1   force =     0.00000000    0.00000000    0.00000000
     atom    2 type  1   force =     0.00000000    0.00000000    0.00000000
     atom    3 type  2   force =     0.00000000    0.00000000    0.00000000
     atom    4 type  2   force =     0.00000000    0.00000000    0.00000000
     The SCF correction term to forces
     atom    1 type  1   force =     0.00000000   -0.00000000   -0.00002031
     atom    2 type  1   force =    -0.00000000    0.00000000   -0.00002031
     atom    3 type  2   force =     0.00000000   -0.00000000    0.00001045
     atom    4 type  2   force =    -0.00000000    0.00000000    0.00001045

     Total force =     0.001954     Total SCF correction =     0.000032


     Computing stress (Cartesian axis) and pressure

          total   stress  (Ry/bohr**3)                   (kbar)     P=     -135.22
  -0.00094969   0.00000000   0.00000000         -139.70        0.00        0.00
   0.00000000  -0.00094969   0.00000000            0.00     -139.70        0.00
   0.00000000   0.00000000  -0.00085823            0.00        0.00     -126.25


     Writing all to output data dir ./ZnO_ANN.save/

     init_run     :      2.00s CPU      1.35s WALL (       1 calls)
     electrons    :    147.72s CPU     55.26s WALL (       1 calls)
     forces       :      0.78s CPU      0.39s WALL (       1 calls)
     stress       :      2.76s CPU      1.31s WALL (       1 calls)

     Called by init_run:
     wfcinit      :      1.07s CPU      0.41s WALL (       1 calls)
     potinit      :      0.29s CPU      0.30s WALL (       1 calls)
     hinit0       :      0.49s CPU      0.50s WALL (       1 calls)

     Called by electrons:
     c_bands      :    116.93s CPU     43.26s WALL (      45 calls)
     sum_band     :     22.36s CPU      8.59s WALL (      45 calls)
     v_of_rho     :      2.01s CPU      0.87s WALL (      46 calls)
     newd         :      5.95s CPU      2.36s WALL (      46 calls)
     mix_rho      :      0.33s CPU      0.15s WALL (      45 calls)

     Called by c_bands:
     init_us_2    :      2.12s CPU      0.74s WALL (    2604 calls)
     init_us_2:cp :      2.08s CPU      0.73s WALL (    2604 calls)
     cegterg      :    112.17s CPU     41.44s WALL (    1260 calls)

     Called by *egterg:
     cdiaghg      :     16.91s CPU      5.47s WALL (    5815 calls)
     h_psi        :     77.27s CPU     31.55s WALL (    5843 calls)
     s_psi        :      1.84s CPU      0.53s WALL (    5843 calls)
     g_psi        :      0.63s CPU      0.16s WALL (    4555 calls)

     Called by h_psi:
     h_psi:calbec :      2.84s CPU      1.02s WALL (    5843 calls)
     vloc_psi     :     71.93s CPU     29.73s WALL (    5843 calls)
     add_vuspsi   :      1.79s CPU      0.58s WALL (    5843 calls)

     General routines
     calbec       :      3.71s CPU      1.31s WALL (    7243 calls)
     fft          :      1.36s CPU      0.71s WALL (     621 calls)
     ffts         :      0.20s CPU      0.16s WALL (      91 calls)
     fftw         :     71.96s CPU     29.81s WALL (  164666 calls)
     interpolate  :      0.25s CPU      0.18s WALL (      46 calls)

     Parallel routines

     PWSCF        :   2m33.80s CPU     58.80s WALL


   This run was terminated on:  18:34:54  13Jun2025            

=------------------------------------------------------------------------------=
   JOB DONE.
=------------------------------------------------------------------------------=
Note: The following floating-point exceptions are signalling: IEEE_INVALID_FLAG
