Authorization required, but no authorization protocol specified

Authorization required, but no authorization protocol specified

Authorization required, but no authorization protocol specified

Authorization required, but no authorization protocol specified

Authorization required, but no authorization protocol specified

Authorization required, but no authorization protocol specified

Authorization required, but no authorization protocol specified

Authorization required, but no authorization protocol specified

Authorization required, but no authorization protocol specified

Authorization required, but no authorization protocol specified


     Program PWSCF v.7.2 starts on 13Jun2025 at 15:23:50 

     This program is part of the open-source Quantum ESPRESSO suite
     for quantum simulation of materials; please cite
         "P. Giannozzi et al., J. Phys.:Condens. Matter 21 395502 (2009);
         "P. Giannozzi et al., J. Phys.:Condens. Matter 29 465901 (2017);
         "P. Giannozzi et al., J. Chem. Phys. 152 154105 (2020);
          URL http://www.quantum-espresso.org", 
     in publications or presentations arising from this work. More details at
     http://www.quantum-espresso.org/quote

     Parallel version (MPI), running on     8 processors

     MPI processes distributed on     1 nodes
     120722 MiB available memory on the printing compute node when the environment starts

     Reading input from /home/jvc/QEspresso7.2/ZnO_database_python/SCFs.in/scf-5.62-1.50.in

     Current dimensions of program PWSCF are:
     Max number of different atomic species (ntypx) = 10
     Max number of k-points (npk) =  40000
     Max angular momentum in pseudopotentials (lmaxx) =  4
     file Zn.upf: wavefunction(s)  3D renormalized

     R & G space division:  proc/nbgrp/npool/nimage =       8
     Subspace diagonalization in iterative solution of the eigenvalue problem:
     a serial algorithm will be used


     Parallelization info
     --------------------
     sticks:   dense  smooth     PW     G-vecs:    dense   smooth      PW
     Min         107      54     16                 3895     1380     243
     Max         108      55     18                 3902     1387     246
     Sum         859     433    139                31187    11055    1959

     Using Slab Decomposition



     bravais-lattice index     =            4
     lattice parameter (alat)  =       5.6227  a.u.
     unit-cell volume          =     231.1291 (a.u.)^3
     number of atoms/cell      =            4
     number of atomic types    =            2
     number of electrons       =        36.00
     number of Kohn-Sham states=           18
     kinetic-energy cutoff     =      50.0000  Ry
     charge density cutoff     =     400.0000  Ry
     scf convergence threshold =      1.0E-08
     mixing beta               =       0.3000
     number of iterations used =            8  plain     mixing
     Exchange-correlation= PBE
                           (   1   4   3   4   0   0   0)

     celldm(1)=   5.622727  celldm(2)=   0.000000  celldm(3)=   1.501353
     celldm(4)=   0.000000  celldm(5)=   0.000000  celldm(6)=   0.000000

     crystal axes: (cart. coord. in units of alat)
               a(1) = (   1.000000   0.000000   0.000000 )  
               a(2) = (  -0.500000   0.866025   0.000000 )  
               a(3) = (   0.000000   0.000000   1.501353 )  

     reciprocal axes: (cart. coord. in units 2 pi/alat)
               b(1) = (  1.000000  0.577350 -0.000000 )  
               b(2) = (  0.000000  1.154701  0.000000 )  
               b(3) = (  0.000000 -0.000000  0.666066 )  


     PseudoPot. # 1 for Zn read from file:
     /home/jvc/QEspresso7.2/ZnO_database/pseudos/Zn.upf
     MD5 check sum: 7f56cabf9682ed8c977c2f7d0c5985c5
     Pseudo is Ultrasoft + core correction, Zval = 12.0
     Generated using &quot;atomic&quot; code by A. Dal Corso  v.6.2.2
     Using radial grid of 1201 points,  6 beta functions with: 
                l(1) =   0
                l(2) =   0
                l(3) =   1
                l(4) =   1
                l(5) =   2
                l(6) =   2
     Q(r) pseudized with 0 coefficients 


     PseudoPot. # 2 for O  read from file:
     /home/jvc/QEspresso7.2/ZnO_database/pseudos/O.upf
     MD5 check sum: 91400c9766925bcf19f520983a725ff0
     Pseudo is Ultrasoft + core correction, Zval =  6.0
     Generated using &quot;atomic&quot; code by A. Dal Corso  v.6.3MaX
     Using radial grid of 1095 points,  4 beta functions with: 
                l(1) =   0
                l(2) =   0
                l(3) =   1
                l(4) =   1
     Q(r) pseudized with 0 coefficients 


     atomic species   valence    mass     pseudopotential
        Zn            12.00    63.38000     Zn( 1.00)
        O              6.00    15.99900     O ( 1.00)

     12 Sym. Ops. (no inversion) found ( 6 have fractional translation)



   Cartesian axes

     site n.     atom                  positions (alat units)
         1           Zn  tau(   1) = (   0.5000000   0.2886751   0.7516279  )
         2           Zn  tau(   2) = (  -0.0000000   0.5773503   0.0009512  )
         3           O   tau(   3) = (   0.5000000   0.2886751   1.3207051  )
         4           O   tau(   4) = (  -0.0000000   0.5773503   0.5700284  )

     number of k points=    28
                       cart. coord. in units 2pi/alat
        k(    1) = (   0.0000000   0.0000000   0.0000000), wk =   0.0092593
        k(    2) = (   0.0000000   0.0000000   0.1110110), wk =   0.0185185
        k(    3) = (   0.0000000   0.0000000   0.2220219), wk =   0.0185185
        k(    4) = (   0.0000000   0.0000000  -0.3330329), wk =   0.0092593
        k(    5) = (   0.0000000   0.1924501   0.0000000), wk =   0.0555556
        k(    6) = (   0.0000000   0.1924501   0.1110110), wk =   0.1111111
        k(    7) = (   0.0000000   0.1924501   0.2220219), wk =   0.1111111
        k(    8) = (   0.0000000   0.1924501  -0.3330329), wk =   0.0555556
        k(    9) = (   0.0000000   0.3849002   0.0000000), wk =   0.0555556
        k(   10) = (   0.0000000   0.3849002   0.1110110), wk =   0.1111111
        k(   11) = (   0.0000000   0.3849002   0.2220219), wk =   0.1111111
        k(   12) = (   0.0000000   0.3849002  -0.3330329), wk =   0.0555556
        k(   13) = (   0.0000000  -0.5773503   0.0000000), wk =   0.0277778
        k(   14) = (   0.0000000  -0.5773503   0.1110110), wk =   0.0555556
        k(   15) = (   0.0000000  -0.5773503   0.2220219), wk =   0.0555556
        k(   16) = (   0.0000000  -0.5773503  -0.3330329), wk =   0.0277778
        k(   17) = (   0.1666667   0.2886751   0.0000000), wk =   0.0555556
        k(   18) = (   0.1666667   0.2886751   0.1110110), wk =   0.1111111
        k(   19) = (   0.1666667   0.2886751   0.2220219), wk =   0.1111111
        k(   20) = (   0.1666667   0.2886751  -0.3330329), wk =   0.0555556
        k(   21) = (   0.1666667   0.4811252   0.0000000), wk =   0.1111111
        k(   22) = (   0.1666667   0.4811252   0.1110110), wk =   0.2222222
        k(   23) = (   0.1666667   0.4811252   0.2220219), wk =   0.2222222
        k(   24) = (   0.1666667   0.4811252  -0.3330329), wk =   0.1111111
        k(   25) = (   0.3333333   0.5773503   0.0000000), wk =   0.0185185
        k(   26) = (   0.3333333   0.5773503   0.1110110), wk =   0.0370370
        k(   27) = (   0.3333333   0.5773503   0.2220219), wk =   0.0370370
        k(   28) = (   0.3333333   0.5773503  -0.3330329), wk =   0.0185185

     Dense  grid:    31187 G-vectors     FFT dimensions: (  36,  36,  54)

     Smooth grid:    11055 G-vectors     FFT dimensions: (  25,  25,  40)

     Estimated max dynamical RAM per process >      19.01 MB

     Estimated total dynamical RAM >     152.10 MB

     Check: negative core charge=   -0.000001

     Initial potential from superposition of free atoms

     starting charge      35.9925, renormalised to      36.0000
     Starting wfcs are   26 randomized atomic wfcs

     total cpu time spent up to now is        1.2 secs

     Self-consistent Calculation

     iteration #  1     ecut=    50.00 Ry     beta= 0.30
     Davidson diagonalization with overlap
     ethr =  1.00E-02,  avg # of iterations =  2.1

     total cpu time spent up to now is        1.8 secs

     total energy              =    -361.22338389 Ry
     estimated scf accuracy    <       0.70585385 Ry

     iteration #  2     ecut=    50.00 Ry     beta= 0.30
     Davidson diagonalization with overlap
     ethr =  1.96E-03,  avg # of iterations =  2.0

     total cpu time spent up to now is        2.5 secs

     total energy              =    -361.24545358 Ry
     estimated scf accuracy    <       0.15671328 Ry

     iteration #  3     ecut=    50.00 Ry     beta= 0.30
     Davidson diagonalization with overlap
     ethr =  4.35E-04,  avg # of iterations =  6.2

     total cpu time spent up to now is        3.6 secs

     total energy              =    -361.34597244 Ry
     estimated scf accuracy    <       0.09627643 Ry

     iteration #  4     ecut=    50.00 Ry     beta= 0.30
     Davidson diagonalization with overlap
     ethr =  2.67E-04,  avg # of iterations =  1.8

     total cpu time spent up to now is        4.2 secs

     total energy              =    -361.33931303 Ry
     estimated scf accuracy    <       0.03215109 Ry

     iteration #  5     ecut=    50.00 Ry     beta= 0.30
     Davidson diagonalization with overlap
     ethr =  8.93E-05,  avg # of iterations =  8.6

     total cpu time spent up to now is        5.7 secs

     total energy              =    -361.38651256 Ry
     estimated scf accuracy    <       0.48136970 Ry

     iteration #  6     ecut=    50.00 Ry     beta= 0.30
     Davidson diagonalization with overlap
     ethr =  8.93E-05,  avg # of iterations =  5.0

     total cpu time spent up to now is        6.7 secs

     total energy              =    -361.31262471 Ry
     estimated scf accuracy    <       0.18701399 Ry

     iteration #  7     ecut=    50.00 Ry     beta= 0.30
     Davidson diagonalization with overlap
     ethr =  8.93E-05,  avg # of iterations =  6.5

     total cpu time spent up to now is        7.9 secs

     total energy              =    -361.35083461 Ry
     estimated scf accuracy    <       0.00019369 Ry

     iteration #  8     ecut=    50.00 Ry     beta= 0.30
     Davidson diagonalization with overlap
     ethr =  5.38E-07,  avg # of iterations = 10.1

     total cpu time spent up to now is        9.6 secs

     total energy              =    -361.35170268 Ry
     estimated scf accuracy    <       0.00157421 Ry

     iteration #  9     ecut=    50.00 Ry     beta= 0.30
     Davidson diagonalization with overlap
     ethr =  5.38E-07,  avg # of iterations =  5.1

     total cpu time spent up to now is       10.5 secs

     total energy              =    -361.35158008 Ry
     estimated scf accuracy    <       0.00034394 Ry

     iteration # 10     ecut=    50.00 Ry     beta= 0.30
     Davidson diagonalization with overlap
     ethr =  5.38E-07,  avg # of iterations =  6.3

     total cpu time spent up to now is       11.7 secs

     total energy              =    -361.35172018 Ry
     estimated scf accuracy    <       0.00010397 Ry

     iteration # 11     ecut=    50.00 Ry     beta= 0.30
     Davidson diagonalization with overlap
     ethr =  2.89E-07,  avg # of iterations =  2.0

     total cpu time spent up to now is       12.3 secs

     total energy              =    -361.35172109 Ry
     estimated scf accuracy    <       0.00002763 Ry

     iteration # 12     ecut=    50.00 Ry     beta= 0.30
     Davidson diagonalization with overlap
     ethr =  7.68E-08,  avg # of iterations =  4.0

     total cpu time spent up to now is       13.1 secs

     total energy              =    -361.35172964 Ry
     estimated scf accuracy    <       0.00000183 Ry

     iteration # 13     ecut=    50.00 Ry     beta= 0.30
     Davidson diagonalization with overlap
     ethr =  5.08E-09,  avg # of iterations =  6.2

     total cpu time spent up to now is       14.2 secs

     total energy              =    -361.35173186 Ry
     estimated scf accuracy    <       0.00000058 Ry

     iteration # 14     ecut=    50.00 Ry     beta= 0.30
     Davidson diagonalization with overlap
     ethr =  1.62E-09,  avg # of iterations =  2.6

     total cpu time spent up to now is       14.8 secs

     total energy              =    -361.35173167 Ry
     estimated scf accuracy    <       0.00000105 Ry

     iteration # 15     ecut=    50.00 Ry     beta= 0.30
     Davidson diagonalization with overlap
     ethr =  1.62E-09,  avg # of iterations =  1.0

     total cpu time spent up to now is       15.4 secs

     total energy              =    -361.35173148 Ry
     estimated scf accuracy    <       0.00000062 Ry

     iteration # 16     ecut=    50.00 Ry     beta= 0.30
     Davidson diagonalization with overlap
     ethr =  1.62E-09,  avg # of iterations =  2.2

     total cpu time spent up to now is       16.0 secs

     total energy              =    -361.35173153 Ry
     estimated scf accuracy    <       0.00000018 Ry

     iteration # 17     ecut=    50.00 Ry     beta= 0.30
     Davidson diagonalization with overlap
     ethr =  4.95E-10,  avg # of iterations =  3.1

     total cpu time spent up to now is       16.6 secs

     total energy              =    -361.35173154 Ry
     estimated scf accuracy    <       0.00000010 Ry

     iteration # 18     ecut=    50.00 Ry     beta= 0.30
     Davidson diagonalization with overlap
     ethr =  2.89E-10,  avg # of iterations =  2.0

     total cpu time spent up to now is       17.2 secs

     total energy              =    -361.35173152 Ry
     estimated scf accuracy    <       0.00000006 Ry

     iteration # 19     ecut=    50.00 Ry     beta= 0.30
     Davidson diagonalization with overlap
     ethr =  1.59E-10,  avg # of iterations =  5.3

     total cpu time spent up to now is       18.2 secs

     End of self-consistent calculation

          k = 0.0000 0.0000 0.0000 (  1399 PWs)   bands (ev):

    -8.1846  -6.6470   4.7023   5.2751   5.2751   5.3562   5.6465   5.6465
     7.5588   7.5588   8.0788   8.0788   8.5179  11.7098  11.7098  13.1688
    13.1963  13.1963

          k = 0.0000 0.0000 0.1110 (  1393 PWs)   bands (ev):

    -8.0883  -6.7558   4.5943   5.2156   5.2805   5.2805   5.5991   5.5991
     7.6146   7.6146   8.0710   8.0710   8.9497  11.8079  11.8079  12.7067
    13.0993  13.0993

          k = 0.0000 0.0000 0.2220 (  1381 PWs)   bands (ev):

    -7.8199  -7.0498   4.4854   4.8928   5.3091   5.3091   5.4897   5.4897
     7.7533   7.7533   8.0233   8.0233   9.9306  11.9306  12.0805  12.0805
    12.8305  12.8305

          k = 0.0000 0.0000-0.3330 (  1352 PWs)   bands (ev):

    -7.4414  -7.4414   4.5930   4.5930   5.3801   5.3801   5.3801   5.3801
     7.9104   7.9104   7.9104   7.9104  11.0013  11.0013  12.4568  12.4568
    12.4568  12.4568

          k = 0.0000 0.1925 0.0000 (  1403 PWs)   bands (ev):

    -7.9349  -6.5675   4.8517   5.0383   5.3884   5.4745   5.6603   5.8207
     7.4310   7.5612   8.0473   8.1175   8.6098  10.6934  11.1864  12.1036
    12.8871  12.9346

          k = 0.0000 0.1925 0.1110 (  1388 PWs)   bands (ev):

    -7.8462  -6.6601   4.6969   4.8975   5.3987   5.4466   5.6307   5.7689
     7.5148   7.6137   8.0993   8.1067   9.0017  10.8020  11.3084  11.8888
    12.8237  12.8580

          k = 0.0000 0.1925 0.2220 (  1383 PWs)   bands (ev):

    -7.6009  -6.9140   4.4582   4.6555   5.4103   5.4391   5.5419   5.6482
     7.7043   7.7463   8.0303   8.0631   9.9774  11.1174  11.4873  11.6392
    12.4898  12.5155

          k = 0.0000 0.1925-0.3330 (  1370 PWs)   bands (ev):

    -7.2598  -7.2598   4.4503   4.4503   5.4486   5.4486   5.5244   5.5244
     7.9035   7.9035   7.9109   7.9109  10.8701  10.8701  11.7850  11.7850
    12.0831  12.0831

          k = 0.0000 0.3849 0.0000 (  1363 PWs)   bands (ev):

    -7.3519  -6.4565   4.5119   5.0247   5.5667   5.6110   6.1804   6.2683
     7.3388   7.7302   7.8987   8.1728   8.8282   9.2325  10.0962  10.5633
    12.1029  12.3323

          k = 0.0000 0.3849 0.1110 (  1376 PWs)   bands (ev):

    -7.2863  -6.5081   4.4245   4.7628   5.5948   5.6013   6.0352   6.1936
     7.4655   7.7595   8.1291   8.1369   8.9146   9.4896  10.2773  10.4564
    12.1998  12.2072

          k = 0.0000 0.3849 0.2220 (  1384 PWs)   bands (ev):

    -7.1096  -6.6570   4.2391   4.3661   5.6009   5.6816   5.8246   6.0181
     7.7131   7.8381   8.0505   8.1544   9.2815   9.8677  10.6488  10.7342
    11.8299  12.1519

          k = 0.0000 0.3849-0.3330 (  1382 PWs)   bands (ev):

    -6.8763  -6.8763   4.1743   4.1743   5.6723   5.6723   5.8289   5.8289
     7.9436   7.9436   7.9654   7.9654   9.6403   9.6403  11.3018  11.3018
    11.5524  11.5524

          k = 0.0000-0.5774 0.0000 (  1364 PWs)   bands (ev):

    -6.9581  -6.4831   4.6002   4.6342   5.6211   5.7482   6.3188   6.5860
     7.6378   7.9500   8.1961   8.2543   8.4948   8.9654   9.4350   9.5046
    11.5520  11.9837

          k = 0.0000-0.5774 0.1110 (  1382 PWs)   bands (ev):

    -6.9155  -6.5022   4.4655   4.4731   5.6614   5.7174   6.1991   6.4818
     7.7688   7.9573   8.1430   8.2704   8.5510   8.8620   9.6776   9.9459
    11.6966  11.8419

          k = 0.0000-0.5774 0.2220 (  1378 PWs)   bands (ev):

    -6.8056  -6.5647   4.1713   4.2116   5.7254   5.7848   5.9863   6.2418
     7.9789   7.9809   8.0666   8.2403   8.6649   8.7868  10.2314  10.8093
    11.4450  11.8607

          k = 0.0000-0.5774-0.3330 (  1404 PWs)   bands (ev):

    -6.6732  -6.6732   4.0613   4.0613   5.8180   5.8180   5.9857   5.9857
     8.0134   8.0134   8.1415   8.1415   8.7417   8.7417  10.8704  10.8704
    11.5766  11.5766

          k = 0.1667 0.2887 0.0000 (  1378 PWs)   bands (ev):

    -7.5152  -6.4734   4.7035   5.0041   5.5771   5.6056   5.8909   6.1529
     7.3341   7.5896   7.9832   8.1553   8.8468   9.6774  10.0412  11.0845
    12.3209  12.3592

          k = 0.1667 0.2887 0.1110 (  1378 PWs)   bands (ev):

    -7.4421  -6.5371   4.6199   4.7782   5.5329   5.5525   5.8397   6.0853
     7.4389   7.6928   8.1281   8.1399   9.0899   9.8492  10.1884  10.9346
    12.1808  12.4296

          k = 0.1667 0.2887 0.2220 (  1379 PWs)   bands (ev):

    -7.2434  -6.7176   4.4182   4.4225   5.4923   5.5161   5.7752   5.9379
     7.6740   7.8127   8.0531   8.1335   9.7116  10.4086  10.5113  10.8086
    11.8038  12.2760

          k = 0.1667 0.2887-0.3330 (  1372 PWs)   bands (ev):

    -6.9761  -6.9761   4.2953   4.2953   5.4967   5.4967   5.8068   5.8068
     7.9022   7.9022   7.9713   7.9713  10.1440  10.1440  11.2081  11.2081
    11.6129  11.6129

          k = 0.1667 0.4811 0.0000 (  1389 PWs)   bands (ev):

    -6.9777  -6.4715   4.7144   4.9823   5.5081   5.6982   6.3873   6.5490
     7.4954   7.5921   8.1461   8.1971   8.5347   8.8732   9.4845   9.8676
    11.4103  11.6754

          k = 0.1667 0.4811 0.1110 (  1376 PWs)   bands (ev):

    -6.9333  -6.4929   4.6037   4.7937   5.4831   5.6513   6.2510   6.4232
     7.5364   7.8365   8.1654   8.2923   8.5228   9.0665   9.4939  10.1102
    11.3682  11.7241

          k = 0.1667 0.4811 0.2220 (  1377 PWs)   bands (ev):

    -6.8184  -6.5618   4.3696   4.4370   5.4947   5.5886   6.1072   6.2214
     7.7112   7.9055   8.1754   8.3718   8.7120   9.2186   9.7459  10.7272
    11.0818  11.8766

          k = 0.1667 0.4811-0.3330 (  1374 PWs)   bands (ev):

    -6.6785  -6.6785   4.2643   4.2643   5.5417   5.5417   6.0937   6.0937
     7.8512   7.8512   8.2536   8.2536   9.0186   9.0186  10.3377  10.3377
    11.6199  11.6199

          k = 0.3333 0.5774 0.0000 (  1368 PWs)   bands (ev):

    -6.6351  -6.6351   5.0469   5.3729   5.3729   5.6016   6.5679   6.5679
     7.4373   7.6496   7.6496   7.7923   8.3223   9.2057   9.2057  10.6322
    10.6322  10.7851

          k = 0.3333 0.5774 0.1110 (  1362 PWs)   bands (ev):

    -6.6217  -6.6217   5.0690   5.1469   5.1469   5.5397   6.4430   6.4430
     7.4607   7.7694   7.9516   7.9516   8.4890   9.1281   9.1281  10.6016
    10.8869  10.8869

          k = 0.3333 0.5774 0.2220 (  1371 PWs)   bands (ev):

    -6.5947  -6.5947   4.7511   4.7511   5.1370   5.3985   6.3310   6.3310
     7.5264   7.7053   8.3942   8.3942   8.9271   8.9616   8.9616  10.1259
    11.3895  11.3895

          k = 0.3333 0.5774-0.3330 (  1344 PWs)   bands (ev):

    -6.5809  -6.5809   4.5768   4.5768   5.2511   5.2511   6.2978   6.2978
     7.6168   7.6168   8.6756   8.6756   8.7803   8.7803   9.5169   9.5169
    11.6428  11.6428

     highest occupied level (ev):    13.1963

!    total energy              =    -361.35173155 Ry
     estimated scf accuracy    <          9.5E-09 Ry

     The total energy is the sum of the following terms:
     one-electron contribution =    -112.53346296 Ry
     hartree contribution      =     104.20102935 Ry
     xc contribution           =    -110.46458692 Ry
     ewald contribution        =    -242.55471103 Ry

     convergence has been achieved in  19 iterations

     Forces acting on atoms (cartesian axes, Ry/au):

     atom    1 type  1   force =    -0.00000000   -0.00000000   -0.11486745
     atom    2 type  1   force =     0.00000000    0.00000000   -0.11486745
     atom    3 type  2   force =     0.00000000    0.00000000    0.11486745
     atom    4 type  2   force =     0.00000000    0.00000000    0.11486745
     The non-local contrib.  to forces
     atom    1 type  1   force =     0.00000000    0.00000000   -0.25751578
     atom    2 type  1   force =    -0.00000000   -0.00000000   -0.25751578
     atom    3 type  2   force =    -0.00000000   -0.00000000   -0.13671133
     atom    4 type  2   force =     0.00000000    0.00000000   -0.13671133
     The ionic contribution  to forces
     atom    1 type  1   force =    -0.00000000    0.00000000   -1.81399368
     atom    2 type  1   force =     0.00000000   -0.00000000   -1.81399368
     atom    3 type  2   force =    -0.00000000    0.00000000    1.81399368
     atom    4 type  2   force =     0.00000000   -0.00000000    1.81399368
     The local contribution  to forces
     atom    1 type  1   force =    -0.00000002    0.00000001    1.92947081
     atom    2 type  1   force =     0.00000006   -0.00000003    1.92947082
     atom    3 type  2   force =    -0.00000001    0.00000000   -1.56298572
     atom    4 type  2   force =     0.00000002   -0.00000001   -1.56298573
     The core correction contribution to forces
     atom    1 type  1   force =    -0.00000000    0.00000000    0.02717577
     atom    2 type  1   force =     0.00000001   -0.00000000    0.02717577
     atom    3 type  2   force =     0.00000000   -0.00000000    0.00058086
     atom    4 type  2   force =    -0.00000000    0.00000000    0.00058086
     The Hubbard contrib.    to forces
     atom    1 type  1   force =     0.00000000    0.00000000    0.00000000
     atom    2 type  1   force =     0.00000000    0.00000000    0.00000000
     atom    3 type  2   force =     0.00000000    0.00000000    0.00000000
     atom    4 type  2   force =     0.00000000    0.00000000    0.00000000
     The SCF correction term to forces
     atom    1 type  1   force =    -0.00000000    0.00000000    0.00000085
     atom    2 type  1   force =     0.00000000   -0.00000000    0.00000085
     atom    3 type  2   force =    -0.00000000    0.00000000   -0.00000461
     atom    4 type  2   force =     0.00000000   -0.00000000   -0.00000461

     Total force =     0.229735     Total SCF correction =     0.000007


     Computing stress (Cartesian axis) and pressure

          total   stress  (Ry/bohr**3)                   (kbar)     P=     1074.36
   0.00605492   0.00000000   0.00000000          890.71        0.00        0.00
   0.00000000   0.00605492   0.00000000            0.00      890.71        0.00
   0.00000000   0.00000000   0.00980023            0.00        0.00     1441.66


     Writing all to output data dir ./ZnO_ANN.save/

     init_run     :      1.31s CPU      0.91s WALL (       1 calls)
     electrons    :     45.30s CPU     16.99s WALL (       1 calls)
     forces       :      0.49s CPU      0.24s WALL (       1 calls)
     stress       :      1.72s CPU      0.89s WALL (       1 calls)

     Called by init_run:
     wfcinit      :      0.66s CPU      0.26s WALL (       1 calls)
     potinit      :      0.17s CPU      0.17s WALL (       1 calls)
     hinit0       :      0.40s CPU      0.41s WALL (       1 calls)

     Called by electrons:
     c_bands      :     37.75s CPU     13.95s WALL (      19 calls)
     sum_band     :      5.57s CPU      2.18s WALL (      19 calls)
     v_of_rho     :      0.44s CPU      0.20s WALL (      20 calls)
     newd         :      1.45s CPU      0.63s WALL (      20 calls)
     mix_rho      :      0.07s CPU      0.03s WALL (      19 calls)

     Called by c_bands:
     init_us_2    :      0.57s CPU      0.21s WALL (    1148 calls)
     init_us_2:cp :      0.55s CPU      0.20s WALL (    1148 calls)
     cegterg      :     36.44s CPU     13.46s WALL (     532 calls)

     Called by *egterg:
     cdiaghg      :      7.87s CPU      2.74s WALL (    2839 calls)
     h_psi        :     22.72s CPU      9.11s WALL (    2867 calls)
     s_psi        :      0.66s CPU      0.21s WALL (    2867 calls)
     g_psi        :      0.19s CPU      0.05s WALL (    2307 calls)

     Called by h_psi:
     h_psi:calbec :      0.97s CPU      0.37s WALL (    2867 calls)
     vloc_psi     :     20.86s CPU      8.44s WALL (    2867 calls)
     add_vuspsi   :      0.65s CPU      0.23s WALL (    2867 calls)

     General routines
     calbec       :      1.24s CPU      0.47s WALL (    3539 calls)
     fft          :      0.45s CPU      0.30s WALL (     283 calls)
     ffts         :      0.09s CPU      0.08s WALL (      39 calls)
     fftw         :     20.55s CPU      8.33s WALL (   78412 calls)
     interpolate  :      0.10s CPU      0.08s WALL (      20 calls)

     Parallel routines

     PWSCF        :     49.35s CPU     19.48s WALL


   This run was terminated on:  15:24:10  13Jun2025            

=------------------------------------------------------------------------------=
   JOB DONE.
=------------------------------------------------------------------------------=
Note: The following floating-point exceptions are signalling: IEEE_INVALID_FLAG
