Authorization required, but no authorization protocol specified

Authorization required, but no authorization protocol specified

Authorization required, but no authorization protocol specified

Authorization required, but no authorization protocol specified

Authorization required, but no authorization protocol specified

Authorization required, but no authorization protocol specified

Authorization required, but no authorization protocol specified

Authorization required, but no authorization protocol specified

Authorization required, but no authorization protocol specified

Authorization required, but no authorization protocol specified


     Program PWSCF v.7.2 starts on 13Jun2025 at 16:31:14 

     This program is part of the open-source Quantum ESPRESSO suite
     for quantum simulation of materials; please cite
         "P. Giannozzi et al., J. Phys.:Condens. Matter 21 395502 (2009);
         "P. Giannozzi et al., J. Phys.:Condens. Matter 29 465901 (2017);
         "P. Giannozzi et al., J. Chem. Phys. 152 154105 (2020);
          URL http://www.quantum-espresso.org", 
     in publications or presentations arising from this work. More details at
     http://www.quantum-espresso.org/quote

     Parallel version (MPI), running on     8 processors

     MPI processes distributed on     1 nodes
     120705 MiB available memory on the printing compute node when the environment starts

     Reading input from /home/jvc/QEspresso7.2/ZnO_database_python/SCFs.in/scf-5.99-1.61.in

     Current dimensions of program PWSCF are:
     Max number of different atomic species (ntypx) = 10
     Max number of k-points (npk) =  40000
     Max angular momentum in pseudopotentials (lmaxx) =  4
     file Zn.upf: wavefunction(s)  3D renormalized

     R & G space division:  proc/nbgrp/npool/nimage =       8
     Subspace diagonalization in iterative solution of the eigenvalue problem:
     a serial algorithm will be used


     Parallelization info
     --------------------
     sticks:   dense  smooth     PW     G-vecs:    dense   smooth      PW
     Min         122      62     18                 5068     1802     306
     Max         123      63     19                 5073     1809     311
     Sum         979     499    151                40567    14449    2479

     Using Slab Decomposition



     bravais-lattice index     =            4
     lattice parameter (alat)  =       5.9935  a.u.
     unit-cell volume          =     300.9974 (a.u.)^3
     number of atoms/cell      =            4
     number of atomic types    =            2
     number of electrons       =        36.00
     number of Kohn-Sham states=           18
     kinetic-energy cutoff     =      50.0000  Ry
     charge density cutoff     =     400.0000  Ry
     scf convergence threshold =      1.0E-08
     mixing beta               =       0.3000
     number of iterations used =            8  plain     mixing
     Exchange-correlation= PBE
                           (   1   4   3   4   0   0   0)

     celldm(1)=   5.993457  celldm(2)=   0.000000  celldm(3)=   1.614358
     celldm(4)=   0.000000  celldm(5)=   0.000000  celldm(6)=   0.000000

     crystal axes: (cart. coord. in units of alat)
               a(1) = (   1.000000   0.000000   0.000000 )  
               a(2) = (  -0.500000   0.866025   0.000000 )  
               a(3) = (   0.000000   0.000000   1.614358 )  

     reciprocal axes: (cart. coord. in units 2 pi/alat)
               b(1) = (  1.000000  0.577350 -0.000000 )  
               b(2) = (  0.000000  1.154701  0.000000 )  
               b(3) = (  0.000000 -0.000000  0.619441 )  


     PseudoPot. # 1 for Zn read from file:
     /home/jvc/QEspresso7.2/ZnO_database/pseudos/Zn.upf
     MD5 check sum: 7f56cabf9682ed8c977c2f7d0c5985c5
     Pseudo is Ultrasoft + core correction, Zval = 12.0
     Generated using &quot;atomic&quot; code by A. Dal Corso  v.6.2.2
     Using radial grid of 1201 points,  6 beta functions with: 
                l(1) =   0
                l(2) =   0
                l(3) =   1
                l(4) =   1
                l(5) =   2
                l(6) =   2
     Q(r) pseudized with 0 coefficients 


     PseudoPot. # 2 for O  read from file:
     /home/jvc/QEspresso7.2/ZnO_database/pseudos/O.upf
     MD5 check sum: 91400c9766925bcf19f520983a725ff0
     Pseudo is Ultrasoft + core correction, Zval =  6.0
     Generated using &quot;atomic&quot; code by A. Dal Corso  v.6.3MaX
     Using radial grid of 1095 points,  4 beta functions with: 
                l(1) =   0
                l(2) =   0
                l(3) =   1
                l(4) =   1
     Q(r) pseudized with 0 coefficients 


     atomic species   valence    mass     pseudopotential
        Zn            12.00    63.38000     Zn( 1.00)
        O              6.00    15.99900     O ( 1.00)

     12 Sym. Ops. (no inversion) found ( 6 have fractional translation)



   Cartesian axes

     site n.     atom                  positions (alat units)
         1           Zn  tau(   1) = (   0.5000000   0.2886751   0.8082020  )
         2           Zn  tau(   2) = (  -0.0000000   0.5773503   0.0010228  )
         3           O   tau(   3) = (   0.5000000   0.2886751   1.4201130  )
         4           O   tau(   4) = (  -0.0000000   0.5773503   0.6129338  )

     number of k points=    28
                       cart. coord. in units 2pi/alat
        k(    1) = (   0.0000000   0.0000000   0.0000000), wk =   0.0092593
        k(    2) = (   0.0000000   0.0000000   0.1032402), wk =   0.0185185
        k(    3) = (   0.0000000   0.0000000   0.2064804), wk =   0.0185185
        k(    4) = (   0.0000000   0.0000000  -0.3097206), wk =   0.0092593
        k(    5) = (   0.0000000   0.1924501   0.0000000), wk =   0.0555556
        k(    6) = (   0.0000000   0.1924501   0.1032402), wk =   0.1111111
        k(    7) = (   0.0000000   0.1924501   0.2064804), wk =   0.1111111
        k(    8) = (   0.0000000   0.1924501  -0.3097206), wk =   0.0555556
        k(    9) = (   0.0000000   0.3849002   0.0000000), wk =   0.0555556
        k(   10) = (   0.0000000   0.3849002   0.1032402), wk =   0.1111111
        k(   11) = (   0.0000000   0.3849002   0.2064804), wk =   0.1111111
        k(   12) = (   0.0000000   0.3849002  -0.3097206), wk =   0.0555556
        k(   13) = (   0.0000000  -0.5773503   0.0000000), wk =   0.0277778
        k(   14) = (   0.0000000  -0.5773503   0.1032402), wk =   0.0555556
        k(   15) = (   0.0000000  -0.5773503   0.2064804), wk =   0.0555556
        k(   16) = (   0.0000000  -0.5773503  -0.3097206), wk =   0.0277778
        k(   17) = (   0.1666667   0.2886751   0.0000000), wk =   0.0555556
        k(   18) = (   0.1666667   0.2886751   0.1032402), wk =   0.1111111
        k(   19) = (   0.1666667   0.2886751   0.2064804), wk =   0.1111111
        k(   20) = (   0.1666667   0.2886751  -0.3097206), wk =   0.0555556
        k(   21) = (   0.1666667   0.4811252   0.0000000), wk =   0.1111111
        k(   22) = (   0.1666667   0.4811252   0.1032402), wk =   0.2222222
        k(   23) = (   0.1666667   0.4811252   0.2064804), wk =   0.2222222
        k(   24) = (   0.1666667   0.4811252  -0.3097206), wk =   0.1111111
        k(   25) = (   0.3333333   0.5773503   0.0000000), wk =   0.0185185
        k(   26) = (   0.3333333   0.5773503   0.1032402), wk =   0.0370370
        k(   27) = (   0.3333333   0.5773503   0.2064804), wk =   0.0370370
        k(   28) = (   0.3333333   0.5773503  -0.3097206), wk =   0.0185185

     Dense  grid:    40567 G-vectors     FFT dimensions: (  40,  40,  64)

     Smooth grid:    14449 G-vectors     FFT dimensions: (  27,  27,  48)

     Estimated max dynamical RAM per process >      23.85 MB

     Estimated total dynamical RAM >     190.77 MB

     Check: negative core charge=   -0.000002

     Initial potential from superposition of free atoms

     starting charge      35.9925, renormalised to      36.0000
     Starting wfcs are   26 randomized atomic wfcs

     total cpu time spent up to now is        1.5 secs

     Self-consistent Calculation

     iteration #  1     ecut=    50.00 Ry     beta= 0.30
     Davidson diagonalization with overlap
     ethr =  1.00E-02,  avg # of iterations =  2.0

     total cpu time spent up to now is        2.3 secs

     total energy              =    -361.47424181 Ry
     estimated scf accuracy    <       0.67359875 Ry

     iteration #  2     ecut=    50.00 Ry     beta= 0.30
     Davidson diagonalization with overlap
     ethr =  1.87E-03,  avg # of iterations =  2.0

     total cpu time spent up to now is        3.3 secs

     total energy              =    -361.55112319 Ry
     estimated scf accuracy    <       0.10338861 Ry

     iteration #  3     ecut=    50.00 Ry     beta= 0.30
     Davidson diagonalization with overlap
     ethr =  2.87E-04,  avg # of iterations =  6.5

     total cpu time spent up to now is        4.8 secs

     total energy              =    -361.59058700 Ry
     estimated scf accuracy    <       0.06564435 Ry

     iteration #  4     ecut=    50.00 Ry     beta= 0.30
     Davidson diagonalization with overlap
     ethr =  1.82E-04,  avg # of iterations =  7.1

     total cpu time spent up to now is        6.6 secs

     total energy              =    -361.64597190 Ry
     estimated scf accuracy    <       0.15833704 Ry

     iteration #  5     ecut=    50.00 Ry     beta= 0.30
     Davidson diagonalization with overlap
     ethr =  1.82E-04,  avg # of iterations =  1.0

     total cpu time spent up to now is        7.3 secs

     total energy              =    -361.58105101 Ry
     estimated scf accuracy    <       0.11616668 Ry

     iteration #  6     ecut=    50.00 Ry     beta= 0.30
     Davidson diagonalization with overlap
     ethr =  1.82E-04,  avg # of iterations =  5.6

     total cpu time spent up to now is        8.8 secs

     total energy              =    -361.62300183 Ry
     estimated scf accuracy    <       0.01291054 Ry

     iteration #  7     ecut=    50.00 Ry     beta= 0.30
     Davidson diagonalization with overlap
     ethr =  3.59E-05,  avg # of iterations =  2.2

     total cpu time spent up to now is        9.6 secs

     total energy              =    -361.62439795 Ry
     estimated scf accuracy    <       0.01185106 Ry

     iteration #  8     ecut=    50.00 Ry     beta= 0.30
     Davidson diagonalization with overlap
     ethr =  3.29E-05,  avg # of iterations =  1.1

     total cpu time spent up to now is       10.4 secs

     total energy              =    -361.62469546 Ry
     estimated scf accuracy    <       0.01324088 Ry

     iteration #  9     ecut=    50.00 Ry     beta= 0.30
     Davidson diagonalization with overlap
     ethr =  3.29E-05,  avg # of iterations =  1.0

     total cpu time spent up to now is       11.1 secs

     total energy              =    -361.62125508 Ry
     estimated scf accuracy    <       0.01381819 Ry

     iteration # 10     ecut=    50.00 Ry     beta= 0.30
     Davidson diagonalization with overlap
     ethr =  3.29E-05,  avg # of iterations =  1.0

     total cpu time spent up to now is       11.9 secs

     total energy              =    -361.61890210 Ry
     estimated scf accuracy    <       0.00722461 Ry

     iteration # 11     ecut=    50.00 Ry     beta= 0.30
     Davidson diagonalization with overlap
     ethr =  2.01E-05,  avg # of iterations =  3.0

     total cpu time spent up to now is       12.9 secs

     total energy              =    -361.62077811 Ry
     estimated scf accuracy    <       0.00045297 Ry

     iteration # 12     ecut=    50.00 Ry     beta= 0.30
     Davidson diagonalization with overlap
     ethr =  1.26E-06,  avg # of iterations =  4.2

     total cpu time spent up to now is       14.1 secs

     total energy              =    -361.62705340 Ry
     estimated scf accuracy    <       0.00081442 Ry

     iteration # 13     ecut=    50.00 Ry     beta= 0.30
     Davidson diagonalization with overlap
     ethr =  1.26E-06,  avg # of iterations = 11.4

     total cpu time spent up to now is       16.7 secs

     total energy              =    -361.61220825 Ry
     estimated scf accuracy    <       0.05050887 Ry

     iteration # 14     ecut=    50.00 Ry     beta= 0.30
     Davidson diagonalization with overlap
     ethr =  1.26E-06,  avg # of iterations = 12.1

     total cpu time spent up to now is       19.5 secs

     total energy              =    -361.62115219 Ry
     estimated scf accuracy    <       0.00005901 Ry

     iteration # 15     ecut=    50.00 Ry     beta= 0.30
     Davidson diagonalization with overlap
     ethr =  1.64E-07,  avg # of iterations =  9.9

     total cpu time spent up to now is       21.8 secs

     total energy              =    -361.62018084 Ry
     estimated scf accuracy    <       0.00300867 Ry

     iteration # 16     ecut=    50.00 Ry     beta= 0.30
     Davidson diagonalization with overlap
     ethr =  1.64E-07,  avg # of iterations = 10.9

     total cpu time spent up to now is       24.3 secs

     total energy              =    -361.62077916 Ry
     estimated scf accuracy    <       0.00000568 Ry

     iteration # 17     ecut=    50.00 Ry     beta= 0.30
     Davidson diagonalization with overlap
     ethr =  1.58E-08,  avg # of iterations =  7.7

     total cpu time spent up to now is       26.1 secs

     total energy              =    -361.62080036 Ry
     estimated scf accuracy    <       0.00005979 Ry

     iteration # 18     ecut=    50.00 Ry     beta= 0.30
     Davidson diagonalization with overlap
     ethr =  1.58E-08,  avg # of iterations =  4.6

     total cpu time spent up to now is       27.2 secs

     total energy              =    -361.62077187 Ry
     estimated scf accuracy    <       0.00010658 Ry

     iteration # 19     ecut=    50.00 Ry     beta= 0.30
     Davidson diagonalization with overlap
     ethr =  1.58E-08,  avg # of iterations =  5.9

     total cpu time spent up to now is       28.7 secs

     total energy              =    -361.62076431 Ry
     estimated scf accuracy    <       0.00002913 Ry

     iteration # 20     ecut=    50.00 Ry     beta= 0.30
     Davidson diagonalization with overlap
     ethr =  1.58E-08,  avg # of iterations =  6.7

     total cpu time spent up to now is       30.4 secs

     total energy              =    -361.62077058 Ry
     estimated scf accuracy    <       0.00000001 Ry

     iteration # 21     ecut=    50.00 Ry     beta= 0.30
     Davidson diagonalization with overlap
     ethr =  3.22E-11,  avg # of iterations = 11.1

     total cpu time spent up to now is       32.8 secs

     total energy              =    -361.62077073 Ry
     estimated scf accuracy    <       0.00000002 Ry

     iteration # 22     ecut=    50.00 Ry     beta= 0.30
     Davidson diagonalization with overlap
     ethr =  3.22E-11,  avg # of iterations =  8.0

     total cpu time spent up to now is       34.7 secs

     total energy              =    -361.62077073 Ry
     estimated scf accuracy    <       0.00000005 Ry

     iteration # 23     ecut=    50.00 Ry     beta= 0.30
     Davidson diagonalization with overlap
     ethr =  3.22E-11,  avg # of iterations =  5.2

     total cpu time spent up to now is       36.0 secs

     End of self-consistent calculation

          k = 0.0000 0.0000 0.0000 (  1785 PWs)   bands (ev):

   -10.3490  -9.5251   2.1192   2.2577   2.2577   2.3100   2.4725   2.4725
     3.6545   3.6545   3.8998   3.8998   4.1983   7.4325   7.4325   8.1884
     8.3020   8.3020

          k = 0.0000 0.0000 0.1032 (  1798 PWs)   bands (ev):

   -10.2970  -9.5837   2.0382   2.2459   2.2652   2.2652   2.4505   2.4505
     3.6767   3.6767   3.8900   3.8900   4.4931   7.4915   7.4915   7.6453
     8.2449   8.2449

          k = 0.0000 0.0000 0.2065 (  1804 PWs)   bands (ev):

   -10.1528  -9.7411   1.9417   2.0978   2.2908   2.2908   2.3969   2.3969
     3.7341   3.7341   3.8577   3.8577   5.1827   6.8417   7.6526   7.6526
     8.0880   8.0880

          k = 0.0000 0.0000-0.3097 (  1822 PWs)   bands (ev):

    -9.9503  -9.9503   1.9664   1.9664   2.3367   2.3367   2.3367   2.3367
     3.8017   3.8017   3.8017   3.8017   6.0087   6.0087   7.8713   7.8713
     7.8713   7.8713

          k = 0.0000 0.1925 0.0000 (  1790 PWs)   bands (ev):

   -10.1819  -9.4526   2.0599   2.3442   2.3481   2.3852   2.5090   2.6070
     3.5819   3.6524   3.9133   3.9888   4.1758   6.4845   7.0540   7.1912
     7.9874   8.0925

          k = 0.0000 0.1925 0.1032 (  1797 PWs)   bands (ev):

   -10.1349  -9.5032   2.0173   2.1638   2.3588   2.3974   2.5115   2.5819
     3.6183   3.6737   3.8999   3.9450   4.5287   6.5491   7.0249   7.1261
     7.9052   8.0250

          k = 0.0000 0.1925 0.2065 (  1802 PWs)   bands (ev):

   -10.0051  -9.6403   1.9133   1.9676   2.3926   2.3946   2.4731   2.5201
     3.7035   3.7292   3.8601   3.8858   5.2399   6.5078   6.8764   7.3209
     7.6132   7.8394

          k = 0.0000 0.1925-0.3097 (  1800 PWs)   bands (ev):

    -9.8246  -9.8246   1.8773   1.8773   2.4233   2.4233   2.4495   2.4495
     3.7986   3.7986   3.8017   3.8017   5.9642   5.9642   7.2018   7.2018
     7.5824   7.5824

          k = 0.0000 0.3849 0.0000 (  1796 PWs)   bands (ev):

    -9.8041  -9.3308   1.8536   2.2533   2.4954   2.6775   2.9360   2.9895
     3.5300   3.7404   3.9368   4.0095   4.3536   4.9781   5.9676   6.2685
     7.3933   7.6318

          k = 0.0000 0.3849 0.1032 (  1797 PWs)   bands (ev):

    -9.7714  -9.3611   1.8146   2.1239   2.5177   2.6522   2.8731   2.8971
     3.5852   3.7523   3.9203   4.0262   4.5851   5.1235   5.9149   6.3700
     7.4113   7.5463

          k = 0.0000 0.3849 0.2065 (  1796 PWs)   bands (ev):

    -9.6826  -9.4452   1.7416   1.8808   2.5828   2.6331   2.7431   2.7993
     3.7061   3.7850   3.8798   3.9559   4.9213   5.3276   6.1198   6.6360
     7.2698   7.3105

          k = 0.0000 0.3849-0.3097 (  1794 PWs)   bands (ev):

    -9.5627  -9.5627   1.7389   1.7389   2.6636   2.6636   2.6830   2.6830
     3.8307   3.8307   3.8396   3.8396   5.1730   5.1730   6.7763   6.7763
     6.9803   6.9803

          k = 0.0000-0.5774 0.0000 (  1806 PWs)   bands (ev):

    -9.5630  -9.3109   1.9440   2.0840   2.5443   2.8900   2.9878   3.1472
     3.6832   3.8553   3.9552   4.0377   4.5087   4.5292   5.2845   5.8213
     6.9045   7.3766

          k = 0.0000-0.5774 0.1032 (  1800 PWs)   bands (ev):

    -9.5435  -9.3249   1.8840   1.9802   2.5744   2.8549   2.9530   3.0928
     3.7590   3.8583   3.9391   4.0368   4.4562   4.5059   5.5873   5.9457
     6.9916   7.2825

          k = 0.0000-0.5774 0.2065 (  1806 PWs)   bands (ev):

    -9.4920  -9.3655   1.7633   1.7942   2.6625   2.8249   2.8866   2.9572
     3.8677   3.8832   3.9087   4.0224   4.4117   4.4577   6.2174   6.2604
     7.0217   7.0565

          k = 0.0000-0.5774-0.3097 (  1808 PWs)   bands (ev):

    -9.4260  -9.4260   1.7070   1.7070   2.7983   2.7983   2.8374   2.8374
     3.8840   3.8840   3.9751   3.9751   4.4181   4.4181   6.6532   6.6532
     6.7979   6.7979

          k = 0.1667 0.2887 0.0000 (  1787 PWs)   bands (ev):

    -9.9076  -9.3559   1.9869   2.2246   2.4998   2.5413   2.8510   2.8600
     3.5193   3.6737   3.9282   4.0358   4.3096   5.5964   5.9327   6.4866
     7.5909   7.6096

          k = 0.1667 0.2887 0.1032 (  1804 PWs)   bands (ev):

    -9.8704  -9.3923   1.9420   2.1325   2.4874   2.5066   2.7499   2.8271
     3.5701   3.7137   3.9127   4.0217   4.6252   5.7215   5.9373   6.4661
     7.5006   7.5954

          k = 0.1667 0.2887 0.2065 (  1796 PWs)   bands (ev):

    -9.7688  -9.4924   1.8494   1.9244   2.4793   2.4924   2.6708   2.7493
     3.6891   3.7648   3.8743   3.9462   5.1714   5.8168   6.1536   6.5929
     7.2583   7.3886

          k = 0.1667 0.2887-0.3097 (  1794 PWs)   bands (ev):

    -9.6302  -9.6302   1.8153   1.8153   2.4904   2.4904   2.6765   2.6765
     3.8065   3.8065   3.8407   3.8407   5.5533   5.5533   6.7578   6.7578
     6.9931   6.9931

          k = 0.1667 0.4811 0.0000 (  1796 PWs)   bands (ev):

    -9.5728  -9.3058   2.0540   2.2998   2.5250   2.7559   3.0822   3.1670
     3.6076   3.6915   3.9680   4.1257   4.2948   4.9068   5.2109   5.5856
     6.8573   7.0824

          k = 0.1667 0.4811 0.1032 (  1793 PWs)   bands (ev):

    -9.5525  -9.3209   2.0056   2.1973   2.5136   2.7283   3.0061   3.0796
     3.6280   3.7870   3.9625   4.1794   4.2973   4.9506   5.3159   5.7743
     6.8427   7.0748

          k = 0.1667 0.4811 0.2065 (  1797 PWs)   bands (ev):

    -9.4984  -9.3644   1.9011   1.9863   2.5381   2.6808   2.9135   2.9542
     3.7279   3.8254   3.9719   4.1156   4.4753   4.8507   5.6814   6.2537
     6.6199   7.1076

          k = 0.1667 0.4811-0.3097 (  1800 PWs)   bands (ev):

    -9.4288  -9.4288   1.8669   1.8669   2.6127   2.6127   2.8887   2.8887
     3.8044   3.8044   4.0260   4.0260   4.6756   4.6756   6.1128   6.1128
     6.8808   6.8808

          k = 0.3333 0.5774 0.0000 (  1785 PWs)   bands (ev):

    -9.3756  -9.3756   2.1801   2.6086   2.6086   2.8973   3.3043   3.3043
     3.5543   3.6997   3.6997   3.7230   4.3677   4.6945   4.6945   6.2323
     6.2323   6.4132

          k = 0.3333 0.5774 0.1032 (  1794 PWs)   bands (ev):

    -9.3724  -9.3724   2.2078   2.4837   2.4837   2.8019   3.1973   3.1973
     3.5752   3.7139   3.8901   3.8901   4.5271   4.6454   4.6454   6.2740
     6.4061   6.4061

          k = 0.3333 0.5774 0.2065 (  1791 PWs)   bands (ev):

    -9.3659  -9.3659   2.2574   2.2574   2.2909   2.6111   3.1196   3.1196
     3.6134   3.6892   4.1367   4.1367   4.5393   4.5393   4.9211   5.9056
     6.7450   6.7450

          k = 0.3333 0.5774-0.3097 (  1812 PWs)   bands (ev):

    -9.3626  -9.3626   2.1563   2.1563   2.4283   2.4283   3.0990   3.0990
     3.6532   3.6532   4.2652   4.2652   4.4566   4.4566   5.4168   5.4168
     6.9125   6.9125

     highest occupied level (ev):     8.3020

!    total energy              =    -361.62077074 Ry
     estimated scf accuracy    <          2.7E-09 Ry

     The total energy is the sum of the following terms:
     one-electron contribution =    -143.90517607 Ry
     hartree contribution      =     114.55815329 Ry
     xc contribution           =    -109.74308039 Ry
     ewald contribution        =    -222.53066757 Ry

     convergence has been achieved in  23 iterations

     Forces acting on atoms (cartesian axes, Ry/au):

     atom    1 type  1   force =     0.00000000    0.00000000    0.00031201
     atom    2 type  1   force =     0.00000000    0.00000000    0.00031201
     atom    3 type  2   force =     0.00000000    0.00000000   -0.00031201
     atom    4 type  2   force =     0.00000000    0.00000000   -0.00031201
     The non-local contrib.  to forces
     atom    1 type  1   force =     0.00000000    0.00000000   -0.00524287
     atom    2 type  1   force =     0.00000000   -0.00000000   -0.00524287
     atom    3 type  2   force =     0.00000000    0.00000000    0.00463727
     atom    4 type  2   force =    -0.00000000   -0.00000000    0.00463727
     The ionic contribution  to forces
     atom    1 type  1   force =    -0.00000000    0.00000000    0.06665690
     atom    2 type  1   force =     0.00000000   -0.00000000    0.06665690
     atom    3 type  2   force =    -0.00000000    0.00000000   -0.06665690
     atom    4 type  2   force =     0.00000000   -0.00000000   -0.06665690
     The local contribution  to forces
     atom    1 type  1   force =    -0.00000002    0.00000001   -0.06167446
     atom    2 type  1   force =     0.00000006   -0.00000004   -0.06167446
     atom    3 type  2   force =    -0.00000001    0.00000000    0.06174930
     atom    4 type  2   force =     0.00000002   -0.00000001    0.06174930
     The core correction contribution to forces
     atom    1 type  1   force =    -0.00000000    0.00000000    0.00059328
     atom    2 type  1   force =     0.00000001   -0.00000000    0.00059328
     atom    3 type  2   force =     0.00000000   -0.00000000   -0.00005279
     atom    4 type  2   force =    -0.00000000    0.00000000   -0.00005279
     The Hubbard contrib.    to forces
     atom    1 type  1   force =     0.00000000    0.00000000    0.00000000
     atom    2 type  1   force =     0.00000000    0.00000000    0.00000000
     atom    3 type  2   force =     0.00000000    0.00000000    0.00000000
     atom    4 type  2   force =     0.00000000    0.00000000    0.00000000
     The SCF correction term to forces
     atom    1 type  1   force =    -0.00000000    0.00000000   -0.00003202
     atom    2 type  1   force =     0.00000000   -0.00000000   -0.00003202
     atom    3 type  2   force =    -0.00000000    0.00000000   -0.00000007
     atom    4 type  2   force =     0.00000000   -0.00000000   -0.00000007

     Total force =     0.000624     Total SCF correction =     0.000045


     Computing stress (Cartesian axis) and pressure

          total   stress  (Ry/bohr**3)                   (kbar)     P=      148.77
   0.00101507   0.00000000   0.00000000          149.32        0.00        0.00
   0.00000000   0.00101507   0.00000000            0.00      149.32        0.00
   0.00000000   0.00000000   0.00100376            0.00        0.00      147.66


     Writing all to output data dir ./ZnO_ANN.save/

     init_run     :      1.68s CPU      1.17s WALL (       1 calls)
     electrons    :     92.72s CPU     34.54s WALL (       1 calls)
     forces       :      0.63s CPU      0.29s WALL (       1 calls)
     stress       :      2.09s CPU      1.03s WALL (       1 calls)

     Called by init_run:
     wfcinit      :      0.90s CPU      0.37s WALL (       1 calls)
     potinit      :      0.21s CPU      0.21s WALL (       1 calls)
     hinit0       :      0.46s CPU      0.47s WALL (       1 calls)

     Called by electrons:
     c_bands      :     79.50s CPU     29.33s WALL (      23 calls)
     sum_band     :      9.87s CPU      3.84s WALL (      23 calls)
     v_of_rho     :      0.74s CPU      0.33s WALL (      24 calls)
     newd         :      2.46s CPU      1.00s WALL (      24 calls)
     mix_rho      :      0.12s CPU      0.06s WALL (      23 calls)

     Called by c_bands:
     init_us_2    :      0.91s CPU      0.32s WALL (    1372 calls)
     init_us_2:cp :      0.89s CPU      0.32s WALL (    1372 calls)
     cegterg      :     77.56s CPU     28.57s WALL (     644 calls)

     Called by *egterg:
     cdiaghg      :     13.04s CPU      4.30s WALL (    4288 calls)
     h_psi        :     52.68s CPU     21.27s WALL (    4316 calls)
     s_psi        :      1.16s CPU      0.35s WALL (    4316 calls)
     g_psi        :      0.41s CPU      0.11s WALL (    3644 calls)

     Called by h_psi:
     h_psi:calbec :      1.77s CPU      0.65s WALL (    4316 calls)
     vloc_psi     :     49.33s CPU     20.10s WALL (    4316 calls)
     add_vuspsi   :      1.13s CPU      0.38s WALL (    4316 calls)

     General routines
     calbec       :      2.17s CPU      0.78s WALL (    5100 calls)
     fft          :      0.63s CPU      0.38s WALL (     335 calls)
     ffts         :      0.13s CPU      0.11s WALL (      47 calls)
     fftw         :     48.61s CPU     19.88s WALL (  115268 calls)
     interpolate  :      0.14s CPU      0.12s WALL (      24 calls)

     Parallel routines

     PWSCF        :   1m37.68s CPU     37.48s WALL


   This run was terminated on:  16:31:51  13Jun2025            

=------------------------------------------------------------------------------=
   JOB DONE.
=------------------------------------------------------------------------------=
Note: The following floating-point exceptions are signalling: IEEE_INVALID_FLAG
