Authorization required, but no authorization protocol specified

Authorization required, but no authorization protocol specified

Authorization required, but no authorization protocol specified

Authorization required, but no authorization protocol specified

Authorization required, but no authorization protocol specified

Authorization required, but no authorization protocol specified

Authorization required, but no authorization protocol specified

Authorization required, but no authorization protocol specified

Authorization required, but no authorization protocol specified

Authorization required, but no authorization protocol specified


     Program PWSCF v.7.2 starts on 13Jun2025 at 15:55: 0 

     This program is part of the open-source Quantum ESPRESSO suite
     for quantum simulation of materials; please cite
         "P. Giannozzi et al., J. Phys.:Condens. Matter 21 395502 (2009);
         "P. Giannozzi et al., J. Phys.:Condens. Matter 29 465901 (2017);
         "P. Giannozzi et al., J. Chem. Phys. 152 154105 (2020);
          URL http://www.quantum-espresso.org", 
     in publications or presentations arising from this work. More details at
     http://www.quantum-espresso.org/quote

     Parallel version (MPI), running on     8 processors

     MPI processes distributed on     1 nodes
     120705 MiB available memory on the printing compute node when the environment starts

     Reading input from /home/jvc/QEspresso7.2/ZnO_database_python/SCFs.in/scf-5.81-1.60.in

     Current dimensions of program PWSCF are:
     Max number of different atomic species (ntypx) = 10
     Max number of k-points (npk) =  40000
     Max angular momentum in pseudopotentials (lmaxx) =  4
     file Zn.upf: wavefunction(s)  3D renormalized

     R & G space division:  proc/nbgrp/npool/nimage =       8
     Subspace diagonalization in iterative solution of the eigenvalue problem:
     a serial algorithm will be used


     Parallelization info
     --------------------
     sticks:   dense  smooth     PW     G-vecs:    dense   smooth      PW
     Min         116      57     18                 4573     1617     281
     Max         118      59     20                 4576     1620     284
     Sum         931     463    151                36593    12947    2261

     Using Slab Decomposition



     bravais-lattice index     =            4
     lattice parameter (alat)  =       5.8081  a.u.
     unit-cell volume          =     271.1854 (a.u.)^3
     number of atoms/cell      =            4
     number of atomic types    =            2
     number of electrons       =        36.00
     number of Kohn-Sham states=           18
     kinetic-energy cutoff     =      50.0000  Ry
     charge density cutoff     =     400.0000  Ry
     scf convergence threshold =      1.0E-08
     mixing beta               =       0.3000
     number of iterations used =            8  plain     mixing
     Exchange-correlation= PBE
                           (   1   4   3   4   0   0   0)

     celldm(1)=   5.808092  celldm(2)=   0.000000  celldm(3)=   1.598215
     celldm(4)=   0.000000  celldm(5)=   0.000000  celldm(6)=   0.000000

     crystal axes: (cart. coord. in units of alat)
               a(1) = (   1.000000   0.000000   0.000000 )  
               a(2) = (  -0.500000   0.866025   0.000000 )  
               a(3) = (   0.000000   0.000000   1.598215 )  

     reciprocal axes: (cart. coord. in units 2 pi/alat)
               b(1) = (  1.000000  0.577350 -0.000000 )  
               b(2) = (  0.000000  1.154701  0.000000 )  
               b(3) = (  0.000000 -0.000000  0.625698 )  


     PseudoPot. # 1 for Zn read from file:
     /home/jvc/QEspresso7.2/ZnO_database/pseudos/Zn.upf
     MD5 check sum: 7f56cabf9682ed8c977c2f7d0c5985c5
     Pseudo is Ultrasoft + core correction, Zval = 12.0
     Generated using &quot;atomic&quot; code by A. Dal Corso  v.6.2.2
     Using radial grid of 1201 points,  6 beta functions with: 
                l(1) =   0
                l(2) =   0
                l(3) =   1
                l(4) =   1
                l(5) =   2
                l(6) =   2
     Q(r) pseudized with 0 coefficients 


     PseudoPot. # 2 for O  read from file:
     /home/jvc/QEspresso7.2/ZnO_database/pseudos/O.upf
     MD5 check sum: 91400c9766925bcf19f520983a725ff0
     Pseudo is Ultrasoft + core correction, Zval =  6.0
     Generated using &quot;atomic&quot; code by A. Dal Corso  v.6.3MaX
     Using radial grid of 1095 points,  4 beta functions with: 
                l(1) =   0
                l(2) =   0
                l(3) =   1
                l(4) =   1
     Q(r) pseudized with 0 coefficients 


     atomic species   valence    mass     pseudopotential
        Zn            12.00    63.38000     Zn( 1.00)
        O              6.00    15.99900     O ( 1.00)

     12 Sym. Ops. (no inversion) found ( 6 have fractional translation)



   Cartesian axes

     site n.     atom                  positions (alat units)
         1           Zn  tau(   1) = (   0.5000000   0.2886751   0.8001200  )
         2           Zn  tau(   2) = (  -0.0000000   0.5773503   0.0010126  )
         3           O   tau(   3) = (   0.5000000   0.2886751   1.4059118  )
         4           O   tau(   4) = (  -0.0000000   0.5773503   0.6068045  )

     number of k points=    28
                       cart. coord. in units 2pi/alat
        k(    1) = (   0.0000000   0.0000000   0.0000000), wk =   0.0092593
        k(    2) = (   0.0000000   0.0000000   0.1042830), wk =   0.0185185
        k(    3) = (   0.0000000   0.0000000   0.2085660), wk =   0.0185185
        k(    4) = (   0.0000000   0.0000000  -0.3128491), wk =   0.0092593
        k(    5) = (   0.0000000   0.1924501   0.0000000), wk =   0.0555556
        k(    6) = (   0.0000000   0.1924501   0.1042830), wk =   0.1111111
        k(    7) = (   0.0000000   0.1924501   0.2085660), wk =   0.1111111
        k(    8) = (   0.0000000   0.1924501  -0.3128491), wk =   0.0555556
        k(    9) = (   0.0000000   0.3849002   0.0000000), wk =   0.0555556
        k(   10) = (   0.0000000   0.3849002   0.1042830), wk =   0.1111111
        k(   11) = (   0.0000000   0.3849002   0.2085660), wk =   0.1111111
        k(   12) = (   0.0000000   0.3849002  -0.3128491), wk =   0.0555556
        k(   13) = (   0.0000000  -0.5773503   0.0000000), wk =   0.0277778
        k(   14) = (   0.0000000  -0.5773503   0.1042830), wk =   0.0555556
        k(   15) = (   0.0000000  -0.5773503   0.2085660), wk =   0.0555556
        k(   16) = (   0.0000000  -0.5773503  -0.3128491), wk =   0.0277778
        k(   17) = (   0.1666667   0.2886751   0.0000000), wk =   0.0555556
        k(   18) = (   0.1666667   0.2886751   0.1042830), wk =   0.1111111
        k(   19) = (   0.1666667   0.2886751   0.2085660), wk =   0.1111111
        k(   20) = (   0.1666667   0.2886751  -0.3128491), wk =   0.0555556
        k(   21) = (   0.1666667   0.4811252   0.0000000), wk =   0.1111111
        k(   22) = (   0.1666667   0.4811252   0.1042830), wk =   0.2222222
        k(   23) = (   0.1666667   0.4811252   0.2085660), wk =   0.2222222
        k(   24) = (   0.1666667   0.4811252  -0.3128491), wk =   0.1111111
        k(   25) = (   0.3333333   0.5773503   0.0000000), wk =   0.0185185
        k(   26) = (   0.3333333   0.5773503   0.1042830), wk =   0.0370370
        k(   27) = (   0.3333333   0.5773503   0.2085660), wk =   0.0370370
        k(   28) = (   0.3333333   0.5773503  -0.3128491), wk =   0.0185185

     Dense  grid:    36593 G-vectors     FFT dimensions: (  40,  40,  60)

     Smooth grid:    12947 G-vectors     FFT dimensions: (  27,  27,  48)

     Estimated max dynamical RAM per process >      21.91 MB

     Estimated total dynamical RAM >     175.25 MB

     Check: negative core charge=   -0.000002

     Initial potential from superposition of free atoms

     starting charge      35.9925, renormalised to      36.0000
     Starting wfcs are   26 randomized atomic wfcs

     total cpu time spent up to now is        1.5 secs

     Self-consistent Calculation

     iteration #  1     ecut=    50.00 Ry     beta= 0.30
     Davidson diagonalization with overlap
     ethr =  1.00E-02,  avg # of iterations =  2.0

     total cpu time spent up to now is        2.3 secs

     total energy              =    -361.42652233 Ry
     estimated scf accuracy    <       0.67150294 Ry

     iteration #  2     ecut=    50.00 Ry     beta= 0.30
     Davidson diagonalization with overlap
     ethr =  1.87E-03,  avg # of iterations =  2.0

     total cpu time spent up to now is        3.2 secs

     total energy              =    -361.48008068 Ry
     estimated scf accuracy    <       0.12349651 Ry

     iteration #  3     ecut=    50.00 Ry     beta= 0.30
     Davidson diagonalization with overlap
     ethr =  3.43E-04,  avg # of iterations =  6.1

     total cpu time spent up to now is        4.7 secs

     total energy              =    -361.54550627 Ry
     estimated scf accuracy    <       0.08165238 Ry

     iteration #  4     ecut=    50.00 Ry     beta= 0.30
     Davidson diagonalization with overlap
     ethr =  2.27E-04,  avg # of iterations =  2.0

     total cpu time spent up to now is        5.6 secs

     total energy              =    -361.56189806 Ry
     estimated scf accuracy    <       0.01265349 Ry

     iteration #  5     ecut=    50.00 Ry     beta= 0.30
     Davidson diagonalization with overlap
     ethr =  3.51E-05,  avg # of iterations = 10.2

     total cpu time spent up to now is        8.0 secs

     total energy              =    -361.63441797 Ry
     estimated scf accuracy    <       0.48820450 Ry

     iteration #  6     ecut=    50.00 Ry     beta= 0.30
     Davidson diagonalization with overlap
     ethr =  3.51E-05,  avg # of iterations =  5.3

     total cpu time spent up to now is        9.3 secs

     total energy              =    -361.49049982 Ry
     estimated scf accuracy    <       0.28706924 Ry

     iteration #  7     ecut=    50.00 Ry     beta= 0.30
     Davidson diagonalization with overlap
     ethr =  3.51E-05,  avg # of iterations =  9.6

     total cpu time spent up to now is       11.5 secs

     total energy              =    -361.56939928 Ry
     estimated scf accuracy    <       0.00858973 Ry

     iteration #  8     ecut=    50.00 Ry     beta= 0.30
     Davidson diagonalization with overlap
     ethr =  2.39E-05,  avg # of iterations =  1.9

     total cpu time spent up to now is       12.3 secs

     total energy              =    -361.56747015 Ry
     estimated scf accuracy    <       0.01639815 Ry

     iteration #  9     ecut=    50.00 Ry     beta= 0.30
     Davidson diagonalization with overlap
     ethr =  2.39E-05,  avg # of iterations =  1.0

     total cpu time spent up to now is       13.1 secs

     total energy              =    -361.56445074 Ry
     estimated scf accuracy    <       0.01312345 Ry

     iteration # 10     ecut=    50.00 Ry     beta= 0.30
     Davidson diagonalization with overlap
     ethr =  2.39E-05,  avg # of iterations =  1.1

     total cpu time spent up to now is       13.8 secs

     total energy              =    -361.56252281 Ry
     estimated scf accuracy    <       0.00730397 Ry

     iteration # 11     ecut=    50.00 Ry     beta= 0.30
     Davidson diagonalization with overlap
     ethr =  2.03E-05,  avg # of iterations =  2.0

     total cpu time spent up to now is       14.6 secs

     total energy              =    -361.56286496 Ry
     estimated scf accuracy    <       0.00201898 Ry

     iteration # 12     ecut=    50.00 Ry     beta= 0.30
     Davidson diagonalization with overlap
     ethr =  5.61E-06,  avg # of iterations =  4.3

     total cpu time spent up to now is       15.8 secs

     total energy              =    -361.56350826 Ry
     estimated scf accuracy    <       0.00015971 Ry

     iteration # 13     ecut=    50.00 Ry     beta= 0.30
     Davidson diagonalization with overlap
     ethr =  4.44E-07,  avg # of iterations =  4.9

     total cpu time spent up to now is       16.9 secs

     total energy              =    -361.56355114 Ry
     estimated scf accuracy    <       0.00013212 Ry

     iteration # 14     ecut=    50.00 Ry     beta= 0.30
     Davidson diagonalization with overlap
     ethr =  3.67E-07,  avg # of iterations =  1.2

     total cpu time spent up to now is       17.6 secs

     total energy              =    -361.56353449 Ry
     estimated scf accuracy    <       0.00009269 Ry

     iteration # 15     ecut=    50.00 Ry     beta= 0.30
     Davidson diagonalization with overlap
     ethr =  2.57E-07,  avg # of iterations =  2.0

     total cpu time spent up to now is       18.4 secs

     total energy              =    -361.56352211 Ry
     estimated scf accuracy    <       0.00004113 Ry

     iteration # 16     ecut=    50.00 Ry     beta= 0.30
     Davidson diagonalization with overlap
     ethr =  1.14E-07,  avg # of iterations =  4.3

     total cpu time spent up to now is       19.6 secs

     total energy              =    -361.56353623 Ry
     estimated scf accuracy    <       0.00000008 Ry

     iteration # 17     ecut=    50.00 Ry     beta= 0.30
     Davidson diagonalization with overlap
     c_bands:  2 eigenvalues not converged
     ethr =  2.14E-10,  avg # of iterations = 12.4

     total cpu time spent up to now is       22.4 secs

     total energy              =    -361.56353903 Ry
     estimated scf accuracy    <       0.00000271 Ry

     iteration # 18     ecut=    50.00 Ry     beta= 0.30
     Davidson diagonalization with overlap
     ethr =  2.14E-10,  avg # of iterations =  5.6

     total cpu time spent up to now is       23.7 secs

     total energy              =    -361.56353597 Ry
     estimated scf accuracy    <       0.00000437 Ry

     iteration # 19     ecut=    50.00 Ry     beta= 0.30
     Davidson diagonalization with overlap
     ethr =  2.14E-10,  avg # of iterations = 13.1

     total cpu time spent up to now is       26.7 secs

     total energy              =    -361.56353964 Ry
     estimated scf accuracy    <       0.00000329 Ry

     iteration # 20     ecut=    50.00 Ry     beta= 0.30
     Davidson diagonalization with overlap
     ethr =  2.14E-10,  avg # of iterations =  7.4

     total cpu time spent up to now is       28.5 secs

     total energy              =    -361.56353923 Ry
     estimated scf accuracy    <       0.00000689 Ry

     iteration # 21     ecut=    50.00 Ry     beta= 0.30
     Davidson diagonalization with overlap
     ethr =  2.14E-10,  avg # of iterations =  2.9

     total cpu time spent up to now is       29.4 secs

     total energy              =    -361.56353787 Ry
     estimated scf accuracy    <       0.00000585 Ry

     iteration # 22     ecut=    50.00 Ry     beta= 0.30
     Davidson diagonalization with overlap
     ethr =  2.14E-10,  avg # of iterations =  8.8

     total cpu time spent up to now is       31.4 secs

     total energy              =    -361.56353810 Ry
     estimated scf accuracy    <       0.00000143 Ry

     iteration # 23     ecut=    50.00 Ry     beta= 0.30
     Davidson diagonalization with overlap
     ethr =  2.14E-10,  avg # of iterations =  1.5

     total cpu time spent up to now is       32.2 secs

     total energy              =    -361.56353757 Ry
     estimated scf accuracy    <       0.00000121 Ry

     iteration # 24     ecut=    50.00 Ry     beta= 0.30
     Davidson diagonalization with overlap
     ethr =  2.14E-10,  avg # of iterations =  8.6

     total cpu time spent up to now is       34.2 secs

     End of self-consistent calculation

          k = 0.0000 0.0000 0.0000 (  1641 PWs)   bands (ev):

    -9.5460  -8.5126   2.9957   3.3891   3.3891   3.4532   3.6467   3.6467
     5.1388   5.1388   5.4572   5.4572   5.8063   9.0615   9.0615   9.9668
    10.0952  10.0952

          k = 0.0000 0.0000 0.1043 (  1641 PWs)   bands (ev):

    -9.4814  -8.5868   2.9364   3.3654   3.3974   3.3974   3.6195   3.6195
     5.1687   5.1687   5.4461   5.4461   6.1164   9.1312   9.1312   9.4475
    10.0271  10.0271

          k = 0.0000 0.0000 0.2086 (  1635 PWs)   bands (ev):

    -9.3018  -8.7856   2.8830   3.1610   3.4264   3.4264   3.5533   3.5533
     5.2447   5.2447   5.4064   5.4064   6.8612   8.6325   9.3217   9.3217
     9.8398   9.8398

          k = 0.0000 0.0000-0.3128 (  1640 PWs)   bands (ev):

    -9.0485  -9.0485   2.9638   2.9638   3.4806   3.4806   3.4806   3.4806
     5.3342   5.3342   5.3342   5.3342   7.7543   7.7543   9.5816   9.5816
     9.5816   9.5816

          k = 0.0000 0.1925 0.0000 (  1633 PWs)   bands (ev):

    -9.3446  -8.4282   3.1011   3.3106   3.4926   3.5238   3.6586   3.8003
     5.0445   5.1359   5.4766   5.5166   5.8018   8.0651   8.6313   8.9871
     9.7365   9.8586

          k = 0.0000 0.1925 0.1043 (  1634 PWs)   bands (ev):

    -9.2859  -8.4921   3.0240   3.1645   3.5045   3.5346   3.6566   3.7694
     5.0923   5.1642   5.4599   5.5002   6.1417   8.1437   8.7165   8.8041
     9.6565   9.7790

          k = 0.0000 0.1925 0.2086 (  1626 PWs)   bands (ev):

    -9.1236  -8.6650   2.8755   2.9829   3.5324   3.5429   3.6186   3.6940
     5.2041   5.2381   5.4097   5.4376   6.9140   8.2509   8.5177   8.9468
     9.3282   9.5599

          k = 0.0000 0.1925-0.3128 (  1620 PWs)   bands (ev):

    -8.8969  -8.8969   2.8585   2.8585   3.5639   3.5639   3.6095   3.6095
     5.3294   5.3294   5.3319   5.3319   7.7133   7.7133   8.8502   8.8502
     9.2562   9.2562

          k = 0.0000 0.3849 0.0000 (  1615 PWs)   bands (ev):

    -8.8850  -8.2885   2.8348   3.2947   3.6618   3.7880   4.1392   4.1810
     4.9620   5.2471   5.4677   5.5073   5.9999   6.4975   7.6471   7.7329
     9.0669   9.3313

          k = 0.0000 0.3849 0.1043 (  1623 PWs)   bands (ev):

    -8.8435  -8.3262   2.7831   3.1174   3.6870   3.7750   4.0445   4.1333
     5.0396   5.2631   5.4858   5.5628   6.1741   6.6574   7.5722   7.8543
     9.0971   9.2322

          k = 0.0000 0.3849 0.2086 (  1619 PWs)   bands (ev):

    -8.7308  -8.4312   2.6835   2.8241   3.7612   3.7729   3.9137   4.0151
     5.2002   5.3068   5.4325   5.5145   6.5316   6.9532   7.7067   8.1695
     8.9547   8.9584

          k = 0.0000 0.3849-0.3128 (  1624 PWs)   bands (ev):

    -8.5791  -8.5791   2.6670   2.6670   3.8187   3.8187   3.8775   3.8775
     5.3677   5.3677   5.3718   5.3718   6.8096   6.8096   8.4112   8.4112
     8.5736   8.5736

          k = 0.0000-0.5774 0.0000 (  1610 PWs)   bands (ev):

    -8.5872  -8.2710   2.9367   3.0132   3.7175   3.9809   4.2349   4.4342
     5.1672   5.3957   5.5292   5.6190   5.9426   6.1563   6.7699   7.2084
     8.5434   9.0337

          k = 0.0000-0.5774 0.1043 (  1600 PWs)   bands (ev):

    -8.5620  -8.2876   2.8562   2.8955   3.7522   3.9564   4.1806   4.3666
     5.2603   5.3997   5.5064   5.6192   5.9518   6.0801   7.1071   7.3605
     8.6361   8.9253

          k = 0.0000-0.5774 0.2086 (  1604 PWs)   bands (ev):

    -8.4958  -8.3368   2.6899   2.6928   3.8537   3.9490   4.0767   4.2013
     5.4118   5.4149   5.4654   5.5983   5.9670   6.0096   7.7369   7.7951
     8.6247   8.7090

          k = 0.0000-0.5774-0.3128 (  1612 PWs)   bands (ev):

    -8.4120  -8.4120   2.6052   2.6052   3.9917   3.9917   4.0121   4.0121
     5.4330   5.4330   5.5325   5.5325   5.9808   5.9808   8.1974   8.1974
     8.4298   8.4298

          k = 0.1667 0.2887 0.0000 (  1623 PWs)   bands (ev):

    -9.0118  -8.3167   3.0020   3.2688   3.6623   3.6907   3.9217   4.0892
     4.9648   5.1576   5.4958   5.5223   5.9586   7.0933   7.5184   8.1295
     9.3010   9.3074

          k = 0.1667 0.2887 0.1043 (  1630 PWs)   bands (ev):

    -8.9648  -8.3622   2.9455   3.1272   3.6427   3.6470   3.8853   4.0491
     5.0300   5.2121   5.4763   5.5692   6.2296   7.2181   7.5747   8.0626
     9.1964   9.3013

          k = 0.1667 0.2887 0.2086 (  1629 PWs)   bands (ev):

    -8.8364  -8.4878   2.8237   2.8729   3.6243   3.6348   3.8455   3.9556
     5.1821   5.2815   5.4258   5.5040   6.8291   7.5184   7.6719   8.1473
     8.9159   9.0796

          k = 0.1667 0.2887-0.3128 (  1622 PWs)   bands (ev):

    -8.6614  -8.6614   2.7632   2.7632   3.6318   3.6318   3.8675   3.8675
     5.3365   5.3365   5.3760   5.3760   7.2445   7.2445   8.3485   8.3485
     8.6187   8.6187

          k = 0.1667 0.4811 0.0000 (  1619 PWs)   bands (ev):

    -8.6006  -8.2641   3.0533   3.3008   3.6606   3.8831   4.3072   4.4252
     5.0638   5.1666   5.5392   5.6174   5.8889   6.4426   6.6542   7.1191
     8.4659   8.7315

          k = 0.1667 0.4811 0.1043 (  1611 PWs)   bands (ev):

    -8.5742  -8.2822   2.9854   3.1734   3.6469   3.8494   4.2243   4.3379
     5.0960   5.3042   5.5292   5.7277   5.8436   6.5336   6.7480   7.2959
     8.4508   8.7210

          k = 0.1667 0.4811 0.2086 (  1610 PWs)   bands (ev):

    -8.5046  -8.3354   2.8446   2.9237   3.6686   3.7977   4.1326   4.1980
     5.2237   5.3566   5.5372   5.7069   6.0166   6.4450   7.1553   7.7945
     8.2129   8.7545

          k = 0.1667 0.4811-0.3128 (  1614 PWs)   bands (ev):

    -8.4159  -8.4159   2.7913   2.7913   3.7357   3.7357   4.1163   4.1163
     5.3251   5.3251   5.5992   5.5992   6.2549   6.2549   7.6347   7.6347
     8.5032   8.5032

          k = 0.3333 0.5774 0.0000 (  1626 PWs)   bands (ev):

    -8.3556  -8.3556   3.2531   3.6976   3.6976   3.9037   4.5055   4.5055
     5.0059   5.1637   5.1637   5.2310   5.8296   6.3496   6.3496   7.7895
     7.7895   7.9579

          k = 0.3333 0.5774 0.1043 (  1608 PWs)   bands (ev):

    -8.3505  -8.3505   3.2797   3.5317   3.5317   3.8265   4.4230   4.4230
     5.0295   5.2186   5.3815   5.3815   5.9802   6.2904   6.2904   7.8053
     7.9753   7.9753

          k = 0.3333 0.5774 0.2086 (  1614 PWs)   bands (ev):

    -8.3404  -8.3404   3.2472   3.2472   3.3595   3.6593   4.3563   4.3563
     5.0788   5.1836   5.7010   5.7010   6.1557   6.1557   6.3706   7.4054
     8.3425   8.3425

          k = 0.3333 0.5774-0.3128 (  1596 PWs)   bands (ev):

    -8.3352  -8.3352   3.1236   3.1236   3.4902   3.4902   4.3379   4.3379
     5.1341   5.1341   5.9026   5.9026   6.0192   6.0192   6.8847   6.8847
     8.5265   8.5265

     highest occupied level (ev):    10.0952

!    total energy              =    -361.56353781 Ry
     estimated scf accuracy    <          8.6E-10 Ry

     The total energy is the sum of the following terms:
     one-electron contribution =    -131.50051852 Ry
     hartree contribution      =     110.31408423 Ry
     xc contribution           =    -109.99587552 Ry
     ewald contribution        =    -230.38122800 Ry

     convergence has been achieved in  24 iterations

     Forces acting on atoms (cartesian axes, Ry/au):

     atom    1 type  1   force =     0.00000000    0.00000000   -0.00739574
     atom    2 type  1   force =     0.00000000    0.00000000   -0.00739574
     atom    3 type  2   force =     0.00000000    0.00000000    0.00739574
     atom    4 type  2   force =     0.00000000    0.00000000    0.00739574
     The non-local contrib.  to forces
     atom    1 type  1   force =     0.00000000    0.00000000   -0.03767692
     atom    2 type  1   force =     0.00000000    0.00000000   -0.03767692
     atom    3 type  2   force =    -0.00000000   -0.00000000   -0.01938718
     atom    4 type  2   force =     0.00000000   -0.00000000   -0.01938718
     The ionic contribution  to forces
     atom    1 type  1   force =    -0.00000000    0.00000000   -0.16448791
     atom    2 type  1   force =     0.00000000   -0.00000000   -0.16448791
     atom    3 type  2   force =    -0.00000000    0.00000000    0.16448791
     atom    4 type  2   force =     0.00000000   -0.00000000    0.16448791
     The local contribution  to forces
     atom    1 type  1   force =    -0.00000002    0.00000001    0.19120368
     atom    2 type  1   force =     0.00000006   -0.00000003    0.19120369
     atom    3 type  2   force =    -0.00000001    0.00000000   -0.13780989
     atom    4 type  2   force =     0.00000002   -0.00000001   -0.13780990
     The core correction contribution to forces
     atom    1 type  1   force =    -0.00000000    0.00000000    0.00356547
     atom    2 type  1   force =     0.00000001   -0.00000000    0.00356547
     atom    3 type  2   force =     0.00000000   -0.00000000    0.00010735
     atom    4 type  2   force =    -0.00000000    0.00000000    0.00010735
     The Hubbard contrib.    to forces
     atom    1 type  1   force =     0.00000000    0.00000000    0.00000000
     atom    2 type  1   force =     0.00000000    0.00000000    0.00000000
     atom    3 type  2   force =     0.00000000    0.00000000    0.00000000
     atom    4 type  2   force =     0.00000000    0.00000000    0.00000000
     The SCF correction term to forces
     atom    1 type  1   force =    -0.00000000    0.00000000    0.00000458
     atom    2 type  1   force =     0.00000000   -0.00000000    0.00000458
     atom    3 type  2   force =    -0.00000000    0.00000000    0.00000221
     atom    4 type  2   force =     0.00000000   -0.00000000    0.00000221

     Total force =     0.014791     Total SCF correction =     0.000007


     Computing stress (Cartesian axis) and pressure

          total   stress  (Ry/bohr**3)                   (kbar)     P=      402.85
   0.00264931   0.00000000   0.00000000          389.73        0.00        0.00
   0.00000000   0.00264931   0.00000000            0.00      389.73        0.00
   0.00000000   0.00000000   0.00291699            0.00        0.00      429.10


     Writing all to output data dir ./ZnO_ANN.save/

     init_run     :      1.64s CPU      1.13s WALL (       1 calls)
     electrons    :     86.52s CPU     32.72s WALL (       1 calls)
     forces       :      0.58s CPU      0.26s WALL (       1 calls)
     stress       :      1.93s CPU      0.93s WALL (       1 calls)

     Called by init_run:
     wfcinit      :      0.90s CPU      0.37s WALL (       1 calls)
     potinit      :      0.20s CPU      0.20s WALL (       1 calls)
     hinit0       :      0.45s CPU      0.46s WALL (       1 calls)

     Called by electrons:
     c_bands      :     73.54s CPU     27.54s WALL (      24 calls)
     sum_band     :      9.80s CPU      3.87s WALL (      24 calls)
     v_of_rho     :      0.77s CPU      0.34s WALL (      25 calls)
     newd         :      2.22s CPU      0.92s WALL (      25 calls)
     mix_rho      :      0.14s CPU      0.06s WALL (      24 calls)

     Called by c_bands:
     init_us_2    :      0.84s CPU      0.30s WALL (    1428 calls)
     init_us_2:cp :      0.82s CPU      0.29s WALL (    1428 calls)
     cegterg      :     71.60s CPU     26.83s WALL (     672 calls)

     Called by *egterg:
     cdiaghg      :     11.92s CPU      3.98s WALL (    4030 calls)
     h_psi        :     49.50s CPU     20.22s WALL (    4058 calls)
     s_psi        :      1.06s CPU      0.32s WALL (    4058 calls)
     g_psi        :      0.35s CPU      0.09s WALL (    3358 calls)

     Called by h_psi:
     h_psi:calbec :      1.59s CPU      0.59s WALL (    4058 calls)
     vloc_psi     :     46.48s CPU     19.16s WALL (    4058 calls)
     add_vuspsi   :      1.04s CPU      0.35s WALL (    4058 calls)

     General routines
     calbec       :      1.98s CPU      0.72s WALL (    4870 calls)
     fft          :      0.68s CPU      0.42s WALL (     348 calls)
     ffts         :      0.12s CPU      0.11s WALL (      49 calls)
     fftw         :     46.39s CPU     19.17s WALL (  110934 calls)
     interpolate  :      0.14s CPU      0.12s WALL (      25 calls)

     Parallel routines

     PWSCF        :   1m31.22s CPU     35.49s WALL


   This run was terminated on:  15:55:35  13Jun2025            

=------------------------------------------------------------------------------=
   JOB DONE.
=------------------------------------------------------------------------------=
Note: The following floating-point exceptions are signalling: IEEE_INVALID_FLAG
