Authorization required, but no authorization protocol specified

Authorization required, but no authorization protocol specified

Authorization required, but no authorization protocol specified

Authorization required, but no authorization protocol specified

Authorization required, but no authorization protocol specified

Authorization required, but no authorization protocol specified

Authorization required, but no authorization protocol specified

Authorization required, but no authorization protocol specified

Authorization required, but no authorization protocol specified

Authorization required, but no authorization protocol specified


     Program PWSCF v.7.2 starts on 13Jun2025 at 17: 6:59 

     This program is part of the open-source Quantum ESPRESSO suite
     for quantum simulation of materials; please cite
         "P. Giannozzi et al., J. Phys.:Condens. Matter 21 395502 (2009);
         "P. Giannozzi et al., J. Phys.:Condens. Matter 29 465901 (2017);
         "P. Giannozzi et al., J. Chem. Phys. 152 154105 (2020);
          URL http://www.quantum-espresso.org", 
     in publications or presentations arising from this work. More details at
     http://www.quantum-espresso.org/quote

     Parallel version (MPI), running on     8 processors

     MPI processes distributed on     1 nodes
     120716 MiB available memory on the printing compute node when the environment starts

     Reading input from /home/jvc/QEspresso7.2/ZnO_database_python/SCFs.in/scf-6.18-1.45.in

     Current dimensions of program PWSCF are:
     Max number of different atomic species (ntypx) = 10
     Max number of k-points (npk) =  40000
     Max angular momentum in pseudopotentials (lmaxx) =  4
     file Zn.upf: wavefunction(s)  3D renormalized

     R & G space division:  proc/nbgrp/npool/nimage =       8
     Subspace diagonalization in iterative solution of the eigenvalue problem:
     a serial algorithm will be used


     Parallelization info
     --------------------
     sticks:   dense  smooth     PW     G-vecs:    dense   smooth      PW
     Min         130      64     20                 5028     1766     302
     Max         132      66     21                 5031     1769     307
     Sum        1045     517    163                40233    14141    2429

     Using Slab Decomposition



     bravais-lattice index     =            4
     lattice parameter (alat)  =       6.1788  a.u.
     unit-cell volume          =     296.8179 (a.u.)^3
     number of atoms/cell      =            4
     number of atomic types    =            2
     number of electrons       =        36.00
     number of Kohn-Sham states=           18
     kinetic-energy cutoff     =      50.0000  Ry
     charge density cutoff     =     400.0000  Ry
     scf convergence threshold =      1.0E-08
     mixing beta               =       0.3000
     number of iterations used =            8  plain     mixing
     Exchange-correlation= PBE
                           (   1   4   3   4   0   0   0)

     celldm(1)=   6.178821  celldm(2)=   0.000000  celldm(3)=   1.452923
     celldm(4)=   0.000000  celldm(5)=   0.000000  celldm(6)=   0.000000

     crystal axes: (cart. coord. in units of alat)
               a(1) = (   1.000000   0.000000   0.000000 )  
               a(2) = (  -0.500000   0.866025   0.000000 )  
               a(3) = (   0.000000   0.000000   1.452923 )  

     reciprocal axes: (cart. coord. in units 2 pi/alat)
               b(1) = (  1.000000  0.577350 -0.000000 )  
               b(2) = (  0.000000  1.154701  0.000000 )  
               b(3) = (  0.000000 -0.000000  0.688268 )  


     PseudoPot. # 1 for Zn read from file:
     /home/jvc/QEspresso7.2/ZnO_database/pseudos/Zn.upf
     MD5 check sum: 7f56cabf9682ed8c977c2f7d0c5985c5
     Pseudo is Ultrasoft + core correction, Zval = 12.0
     Generated using &quot;atomic&quot; code by A. Dal Corso  v.6.2.2
     Using radial grid of 1201 points,  6 beta functions with: 
                l(1) =   0
                l(2) =   0
                l(3) =   1
                l(4) =   1
                l(5) =   2
                l(6) =   2
     Q(r) pseudized with 0 coefficients 


     PseudoPot. # 2 for O  read from file:
     /home/jvc/QEspresso7.2/ZnO_database/pseudos/O.upf
     MD5 check sum: 91400c9766925bcf19f520983a725ff0
     Pseudo is Ultrasoft + core correction, Zval =  6.0
     Generated using &quot;atomic&quot; code by A. Dal Corso  v.6.3MaX
     Using radial grid of 1095 points,  4 beta functions with: 
                l(1) =   0
                l(2) =   0
                l(3) =   1
                l(4) =   1
     Q(r) pseudized with 0 coefficients 


     atomic species   valence    mass     pseudopotential
        Zn            12.00    63.38000     Zn( 1.00)
        O              6.00    15.99900     O ( 1.00)

     12 Sym. Ops. (no inversion) found ( 6 have fractional translation)



   Cartesian axes

     site n.     atom                  positions (alat units)
         1           Zn  tau(   1) = (   0.5000000   0.2886751   0.7273818  )
         2           Zn  tau(   2) = (  -0.0000000   0.5773503   0.0009206  )
         3           O   tau(   3) = (   0.5000000   0.2886751   1.2781017  )
         4           O   tau(   4) = (  -0.0000000   0.5773503   0.5516404  )

     number of k points=    28
                       cart. coord. in units 2pi/alat
        k(    1) = (   0.0000000   0.0000000   0.0000000), wk =   0.0092593
        k(    2) = (   0.0000000   0.0000000   0.1147113), wk =   0.0185185
        k(    3) = (   0.0000000   0.0000000   0.2294226), wk =   0.0185185
        k(    4) = (   0.0000000   0.0000000  -0.3441340), wk =   0.0092593
        k(    5) = (   0.0000000   0.1924501   0.0000000), wk =   0.0555556
        k(    6) = (   0.0000000   0.1924501   0.1147113), wk =   0.1111111
        k(    7) = (   0.0000000   0.1924501   0.2294226), wk =   0.1111111
        k(    8) = (   0.0000000   0.1924501  -0.3441340), wk =   0.0555556
        k(    9) = (   0.0000000   0.3849002   0.0000000), wk =   0.0555556
        k(   10) = (   0.0000000   0.3849002   0.1147113), wk =   0.1111111
        k(   11) = (   0.0000000   0.3849002   0.2294226), wk =   0.1111111
        k(   12) = (   0.0000000   0.3849002  -0.3441340), wk =   0.0555556
        k(   13) = (   0.0000000  -0.5773503   0.0000000), wk =   0.0277778
        k(   14) = (   0.0000000  -0.5773503   0.1147113), wk =   0.0555556
        k(   15) = (   0.0000000  -0.5773503   0.2294226), wk =   0.0555556
        k(   16) = (   0.0000000  -0.5773503  -0.3441340), wk =   0.0277778
        k(   17) = (   0.1666667   0.2886751   0.0000000), wk =   0.0555556
        k(   18) = (   0.1666667   0.2886751   0.1147113), wk =   0.1111111
        k(   19) = (   0.1666667   0.2886751   0.2294226), wk =   0.1111111
        k(   20) = (   0.1666667   0.2886751  -0.3441340), wk =   0.0555556
        k(   21) = (   0.1666667   0.4811252   0.0000000), wk =   0.1111111
        k(   22) = (   0.1666667   0.4811252   0.1147113), wk =   0.2222222
        k(   23) = (   0.1666667   0.4811252   0.2294226), wk =   0.2222222
        k(   24) = (   0.1666667   0.4811252  -0.3441340), wk =   0.1111111
        k(   25) = (   0.3333333   0.5773503   0.0000000), wk =   0.0185185
        k(   26) = (   0.3333333   0.5773503   0.1147113), wk =   0.0370370
        k(   27) = (   0.3333333   0.5773503   0.2294226), wk =   0.0370370
        k(   28) = (   0.3333333   0.5773503  -0.3441340), wk =   0.0185185

     Dense  grid:    40233 G-vectors     FFT dimensions: (  40,  40,  60)

     Smooth grid:    14141 G-vectors     FFT dimensions: (  27,  27,  48)

     Estimated max dynamical RAM per process >      23.68 MB

     Estimated total dynamical RAM >     189.41 MB

     Check: negative core charge=   -0.000002

     Initial potential from superposition of free atoms

     starting charge      35.9925, renormalised to      36.0000
     Starting wfcs are   26 randomized atomic wfcs

     total cpu time spent up to now is        1.5 secs

     Self-consistent Calculation

     iteration #  1     ecut=    50.00 Ry     beta= 0.30
     Davidson diagonalization with overlap
     ethr =  1.00E-02,  avg # of iterations =  2.0

     total cpu time spent up to now is        2.3 secs

     total energy              =    -361.43998617 Ry
     estimated scf accuracy    <       0.69423738 Ry

     iteration #  2     ecut=    50.00 Ry     beta= 0.30
     Davidson diagonalization with overlap
     ethr =  1.93E-03,  avg # of iterations =  2.0

     total cpu time spent up to now is        3.3 secs

     total energy              =    -361.51885061 Ry
     estimated scf accuracy    <       0.10734593 Ry

     iteration #  3     ecut=    50.00 Ry     beta= 0.30
     Davidson diagonalization with overlap
     ethr =  2.98E-04,  avg # of iterations =  6.4

     total cpu time spent up to now is        4.9 secs

     total energy              =    -361.56277815 Ry
     estimated scf accuracy    <       0.06842651 Ry

     iteration #  4     ecut=    50.00 Ry     beta= 0.30
     Davidson diagonalization with overlap
     ethr =  1.90E-04,  avg # of iterations =  6.4

     total cpu time spent up to now is        6.5 secs

     total energy              =    -361.60835324 Ry
     estimated scf accuracy    <       0.06963038 Ry

     iteration #  5     ecut=    50.00 Ry     beta= 0.30
     Davidson diagonalization with overlap
     ethr =  1.90E-04,  avg # of iterations =  1.0

     total cpu time spent up to now is        7.2 secs

     total energy              =    -361.57634810 Ry
     estimated scf accuracy    <       0.06365791 Ry

     iteration #  6     ecut=    50.00 Ry     beta= 0.30
     Davidson diagonalization with overlap
     ethr =  1.77E-04,  avg # of iterations =  2.1

     total cpu time spent up to now is        8.1 secs

     total energy              =    -361.57807128 Ry
     estimated scf accuracy    <       0.00964870 Ry

     iteration #  7     ecut=    50.00 Ry     beta= 0.30
     Davidson diagonalization with overlap
     ethr =  2.68E-05,  avg # of iterations =  6.9

     total cpu time spent up to now is        9.7 secs

     total energy              =    -361.59317236 Ry
     estimated scf accuracy    <       0.01091416 Ry

     iteration #  8     ecut=    50.00 Ry     beta= 0.30
     Davidson diagonalization with overlap
     ethr =  2.68E-05,  avg # of iterations =  1.0

     total cpu time spent up to now is       10.5 secs

     total energy              =    -361.59103734 Ry
     estimated scf accuracy    <       0.00908497 Ry

     iteration #  9     ecut=    50.00 Ry     beta= 0.30
     Davidson diagonalization with overlap
     ethr =  2.52E-05,  avg # of iterations =  1.0

     total cpu time spent up to now is       11.3 secs

     total energy              =    -361.59068377 Ry
     estimated scf accuracy    <       0.00437905 Ry

     iteration # 10     ecut=    50.00 Ry     beta= 0.30
     Davidson diagonalization with overlap
     ethr =  1.22E-05,  avg # of iterations =  2.0

     total cpu time spent up to now is       12.1 secs

     total energy              =    -361.59098168 Ry
     estimated scf accuracy    <       0.00212433 Ry

     iteration # 11     ecut=    50.00 Ry     beta= 0.30
     Davidson diagonalization with overlap
     ethr =  5.90E-06,  avg # of iterations =  1.9

     total cpu time spent up to now is       13.0 secs

     total energy              =    -361.59082413 Ry
     estimated scf accuracy    <       0.00163213 Ry

     iteration # 12     ecut=    50.00 Ry     beta= 0.30
     Davidson diagonalization with overlap
     ethr =  4.53E-06,  avg # of iterations =  2.0

     total cpu time spent up to now is       13.8 secs

     total energy              =    -361.59075518 Ry
     estimated scf accuracy    <       0.00083495 Ry

     iteration # 13     ecut=    50.00 Ry     beta= 0.30
     Davidson diagonalization with overlap
     ethr =  2.32E-06,  avg # of iterations =  4.0

     total cpu time spent up to now is       14.9 secs

     total energy              =    -361.59101146 Ry
     estimated scf accuracy    <       0.00004444 Ry

     iteration # 14     ecut=    50.00 Ry     beta= 0.30
     Davidson diagonalization with overlap
     ethr =  1.23E-07,  avg # of iterations =  5.4

     total cpu time spent up to now is       16.1 secs

     total energy              =    -361.59100127 Ry
     estimated scf accuracy    <       0.00004362 Ry

     iteration # 15     ecut=    50.00 Ry     beta= 0.30
     Davidson diagonalization with overlap
     ethr =  1.21E-07,  avg # of iterations =  5.8

     total cpu time spent up to now is       17.6 secs

     total energy              =    -361.59105358 Ry
     estimated scf accuracy    <       0.00002303 Ry

     iteration # 16     ecut=    50.00 Ry     beta= 0.30
     Davidson diagonalization with overlap
     ethr =  6.40E-08,  avg # of iterations =  6.0

     total cpu time spent up to now is       19.0 secs

     total energy              =    -361.59105085 Ry
     estimated scf accuracy    <       0.00016764 Ry

     iteration # 17     ecut=    50.00 Ry     beta= 0.30
     Davidson diagonalization with overlap
     ethr =  6.40E-08,  avg # of iterations =  1.0

     total cpu time spent up to now is       19.8 secs

     total energy              =    -361.59105232 Ry
     estimated scf accuracy    <       0.00013263 Ry

     iteration # 18     ecut=    50.00 Ry     beta= 0.30
     Davidson diagonalization with overlap
     ethr =  6.40E-08,  avg # of iterations =  1.0

     total cpu time spent up to now is       20.5 secs

     total energy              =    -361.59095460 Ry
     estimated scf accuracy    <       0.00013254 Ry

     iteration # 19     ecut=    50.00 Ry     beta= 0.30
     Davidson diagonalization with overlap
     ethr =  6.40E-08,  avg # of iterations =  9.5

     total cpu time spent up to now is       22.7 secs

     total energy              =    -361.59101957 Ry
     estimated scf accuracy    <       0.00015669 Ry

     iteration # 20     ecut=    50.00 Ry     beta= 0.30
     Davidson diagonalization with overlap
     ethr =  6.40E-08,  avg # of iterations =  4.5

     total cpu time spent up to now is       23.9 secs

     total energy              =    -361.59102133 Ry
     estimated scf accuracy    <       0.00004455 Ry

     iteration # 21     ecut=    50.00 Ry     beta= 0.30
     Davidson diagonalization with overlap
     ethr =  6.40E-08,  avg # of iterations =  2.0

     total cpu time spent up to now is       24.8 secs

     total energy              =    -361.59100613 Ry
     estimated scf accuracy    <       0.00002618 Ry

     iteration # 22     ecut=    50.00 Ry     beta= 0.30
     Davidson diagonalization with overlap
     ethr =  6.40E-08,  avg # of iterations =  6.6

     total cpu time spent up to now is       26.4 secs

     total energy              =    -361.59101901 Ry
     estimated scf accuracy    <       0.00001982 Ry

     iteration # 23     ecut=    50.00 Ry     beta= 0.30
     Davidson diagonalization with overlap
     ethr =  5.51E-08,  avg # of iterations =  2.0

     total cpu time spent up to now is       27.2 secs

     total energy              =    -361.59101769 Ry
     estimated scf accuracy    <       0.00000554 Ry

     iteration # 24     ecut=    50.00 Ry     beta= 0.30
     Davidson diagonalization with overlap
     ethr =  1.54E-08,  avg # of iterations =  5.5

     total cpu time spent up to now is       28.6 secs

     total energy              =    -361.59102196 Ry
     estimated scf accuracy    <       0.00000126 Ry

     iteration # 25     ecut=    50.00 Ry     beta= 0.30
     Davidson diagonalization with overlap
     ethr =  3.49E-09,  avg # of iterations =  2.4

     total cpu time spent up to now is       29.5 secs

     total energy              =    -361.59102192 Ry
     estimated scf accuracy    <       0.00000224 Ry

     iteration # 26     ecut=    50.00 Ry     beta= 0.30
     Davidson diagonalization with overlap
     ethr =  3.49E-09,  avg # of iterations =  1.1

     total cpu time spent up to now is       30.2 secs

     total energy              =    -361.59102156 Ry
     estimated scf accuracy    <       0.00000200 Ry

     iteration # 27     ecut=    50.00 Ry     beta= 0.30
     Davidson diagonalization with overlap
     ethr =  3.49E-09,  avg # of iterations =  1.0

     total cpu time spent up to now is       31.0 secs

     total energy              =    -361.59102135 Ry
     estimated scf accuracy    <       0.00000126 Ry

     iteration # 28     ecut=    50.00 Ry     beta= 0.30
     Davidson diagonalization with overlap
     ethr =  3.49E-09,  avg # of iterations =  1.9

     total cpu time spent up to now is       31.8 secs

     total energy              =    -361.59102138 Ry
     estimated scf accuracy    <       0.00000053 Ry

     iteration # 29     ecut=    50.00 Ry     beta= 0.30
     Davidson diagonalization with overlap
     ethr =  1.48E-09,  avg # of iterations =  1.2

     total cpu time spent up to now is       32.6 secs

     total energy              =    -361.59102110 Ry
     estimated scf accuracy    <       0.00000039 Ry

     iteration # 30     ecut=    50.00 Ry     beta= 0.30
     Davidson diagonalization with overlap
     ethr =  1.08E-09,  avg # of iterations =  6.9

     total cpu time spent up to now is       34.3 secs

     total energy              =    -361.59102144 Ry
     estimated scf accuracy    <       0.00000062 Ry

     iteration # 31     ecut=    50.00 Ry     beta= 0.30
     Davidson diagonalization with overlap
     ethr =  1.08E-09,  avg # of iterations =  1.0

     total cpu time spent up to now is       35.0 secs

     total energy              =    -361.59102143 Ry
     estimated scf accuracy    <       0.00000041 Ry

     iteration # 32     ecut=    50.00 Ry     beta= 0.30
     Davidson diagonalization with overlap
     ethr =  1.08E-09,  avg # of iterations =  1.0

     total cpu time spent up to now is       35.8 secs

     total energy              =    -361.59102136 Ry
     estimated scf accuracy    <       0.00000037 Ry

     iteration # 33     ecut=    50.00 Ry     beta= 0.30
     Davidson diagonalization with overlap
     ethr =  1.03E-09,  avg # of iterations =  1.0

     total cpu time spent up to now is       36.6 secs

     total energy              =    -361.59102138 Ry
     estimated scf accuracy    <       0.00000021 Ry

     iteration # 34     ecut=    50.00 Ry     beta= 0.30
     Davidson diagonalization with overlap
     ethr =  5.97E-10,  avg # of iterations =  1.0

     total cpu time spent up to now is       37.3 secs

     total energy              =    -361.59102141 Ry
     estimated scf accuracy    <       0.00000021 Ry

     iteration # 35     ecut=    50.00 Ry     beta= 0.30
     Davidson diagonalization with overlap
     ethr =  5.79E-10,  avg # of iterations =  1.0

     total cpu time spent up to now is       38.1 secs

     total energy              =    -361.59102130 Ry
     estimated scf accuracy    <       0.00000023 Ry

     iteration # 36     ecut=    50.00 Ry     beta= 0.30
     Davidson diagonalization with overlap
     ethr =  5.79E-10,  avg # of iterations =  3.8

     total cpu time spent up to now is       39.1 secs

     End of self-consistent calculation

          k = 0.0000 0.0000 0.0000 (  1731 PWs)   bands (ev):

   -10.2865  -9.2539   2.4334   2.4431   2.4431   2.4578   2.7300   2.7300
     3.7741   3.7741   4.1046   4.1046   4.3489   7.2514   7.2514   8.4301
     8.4301   8.5224

          k = 0.0000 0.0000 0.1147 (  1736 PWs)   bands (ev):

   -10.2196  -9.3247   2.2495   2.3381   2.4452   2.4452   2.6907   2.6907
     3.8116   3.8116   4.1019   4.1019   4.7778   7.3341   7.3341   7.9958
     8.3565   8.3565

          k = 0.0000 0.0000 0.2294 (  1754 PWs)   bands (ev):

   -10.0349  -9.5174   1.9980   2.1267   2.4634   2.4634   2.6019   2.6019
     3.9034   3.9034   4.0748   4.0748   5.6298   7.2710   7.5586   7.5586
     8.1506   8.1506

          k = 0.0000 0.0000-0.3441 (  1784 PWs)   bands (ev):

    -9.7783  -9.7783   1.9655   1.9655   2.5156   2.5156   2.5156   2.5156
     4.0041   4.0041   4.0041   4.0041   6.4975   6.4975   7.8593   7.8593
     7.8593   7.8593

          k = 0.0000 0.1925 0.0000 (  1760 PWs)   bands (ev):

   -10.1322  -9.2174   2.2262   2.5142   2.5415   2.5555   2.8477   2.8536
     3.7127   3.7806   4.0908   4.1285   4.4367   6.4282   6.8625   7.3625
     8.2620   8.3005

          k = 0.0000 0.1925 0.1147 (  1767 PWs)   bands (ev):

   -10.0713  -9.2780   2.1579   2.3051   2.5206   2.5389   2.7574   2.8105
     3.7678   3.8152   4.1190   4.1339   4.8468   6.5345   6.9637   7.1709
     8.1755   8.2873

          k = 0.0000 0.1925 0.2294 (  1760 PWs)   bands (ev):

    -9.9040  -9.4448   1.9684   2.0135   2.5205   2.5492   2.6478   2.7124
     3.8872   3.9015   4.0791   4.1046   5.6404   6.6972   6.9762   7.2346
     7.9338   8.0273

          k = 0.0000 0.1925-0.3441 (  1756 PWs)   bands (ev):

    -9.6743  -9.6743   1.8880   1.8880   2.5602   2.5602   2.6142   2.6142
     4.0013   4.0013   4.0137   4.0137   6.2828   6.2828   7.4915   7.4915
     7.5914   7.5914

          k = 0.0000 0.3849 0.0000 (  1768 PWs)   bands (ev):

    -9.7757  -9.1789   2.0318   2.4597   2.6210   2.7326   3.1745   3.2107
     3.7527   3.8846   4.0772   4.1635   4.5613   5.2671   6.0599   6.1862
     7.6736   7.8796

          k = 0.0000 0.3849 0.1147 (  1772 PWs)   bands (ev):

    -9.7317  -9.2137   1.9606   2.2634   2.6421   2.6974   3.0123   3.1139
     3.7881   3.9030   4.1407   4.2046   4.7712   5.4967   6.1185   6.2074
     7.7721   7.7932

          k = 0.0000 0.3849 0.2294 (  1775 PWs)   bands (ev):

    -9.6137  -9.3132   1.8095   1.9178   2.6712   2.7086   2.8192   2.9728
     3.9204   3.9528   4.0866   4.1732   5.1002   5.6083   6.5616   6.5797
     7.4718   7.8055

          k = 0.0000 0.3849-0.3441 (  1778 PWs)   bands (ev):

    -9.4589  -9.4589   1.7519   1.7519   2.7096   2.7096   2.8228   2.8228
     4.0191   4.0191   4.0630   4.0630   5.3773   5.3773   7.0421   7.0421
     7.3538   7.3538

          k = 0.0000-0.5774 0.0000 (  1774 PWs)   bands (ev):

    -9.5362  -9.2134   2.0791   2.3229   2.6524   2.8639   3.1077   3.3955
     3.8461   4.0088   4.1767   4.2212   4.7782   4.9199   5.5190   5.5916
     7.2109   7.6666

          k = 0.0000-0.5774 0.1147 (  1776 PWs)   bands (ev):

    -9.5081  -9.2277   1.9880   2.1429   2.6832   2.8225   3.0354   3.3165
     3.9394   4.0137   4.1397   4.2212   4.7120   4.8845   5.7823   5.9303
     7.3893   7.5498

          k = 0.0000-0.5774 0.2294 (  1780 PWs)   bands (ev):

    -9.4355  -9.2727   1.7984   1.8370   2.7766   2.7977   2.9102   3.1302
     4.0276   4.0737   4.0859   4.2076   4.6961   4.8177   6.2286   6.7176
     7.2229   7.6014

          k = 0.0000-0.5774-0.3441 (  1768 PWs)   bands (ev):

    -9.3471  -9.3471   1.7044   1.7044   2.8257   2.8257   2.9315   2.9315
     4.0504   4.0504   4.1626   4.1626   4.7484   4.7484   6.7509   6.7509
     7.3839   7.3839

          k = 0.1667 0.2887 0.0000 (  1757 PWs)   bands (ev):

    -9.8748  -9.1810   2.1363   2.3938   2.6570   2.6869   3.0803   3.1677
     3.6663   3.8184   4.0793   4.1550   4.5881   5.7061   5.8842   6.6100
     7.8440   7.8756

          k = 0.1667 0.2887 0.1147 (  1764 PWs)   bands (ev):

    -9.8255  -9.2234   2.0628   2.2616   2.6225   2.6413   2.9358   3.0248
     3.7337   3.8795   4.1385   4.1847   4.8955   5.9097   5.9726   6.5069
     7.7309   7.9669

          k = 0.1667 0.2887 0.2294 (  1778 PWs)   bands (ev):

    -9.6922  -9.3430   1.8991   1.9530   2.5922   2.6280   2.7852   2.9014
     3.8792   3.9444   4.0940   4.1565   5.3859   5.9671   6.5770   6.5820
     7.4226   7.9081

          k = 0.1667 0.2887-0.3441 (  1778 PWs)   bands (ev):

    -9.5142  -9.5142   1.8151   1.8151   2.6118   2.6118   2.7899   2.7899
     3.9997   3.9997   4.0597   4.0597   5.7206   5.7206   6.9754   6.9754
     7.4102   7.4102

          k = 0.1667 0.4811 0.0000 (  1778 PWs)   bands (ev):

    -9.5456  -9.2068   2.1835   2.4428   2.6500   2.8098   3.2493   3.4306
     3.8135   3.8339   4.1792   4.2682   4.4788   4.9691   5.4168   5.7969
     7.1658   7.3870

          k = 0.1667 0.4811 0.1147 (  1773 PWs)   bands (ev):

    -9.5166  -9.2223   2.0969   2.2972   2.6057   2.7834   3.1203   3.2965
     3.8058   3.9645   4.1612   4.3259   4.5372   5.1464   5.4019   6.1007
     7.1944   7.4096

          k = 0.1667 0.4811 0.2294 (  1783 PWs)   bands (ev):

    -9.4413  -9.2705   1.9075   1.9783   2.6308   2.7431   2.9835   3.0957
     3.9022   3.9916   4.1738   4.2961   4.7399   5.1156   5.7590   6.7352
     6.9199   7.6257

          k = 0.1667 0.4811-0.3441 (  1784 PWs)   bands (ev):

    -9.3491  -9.3491   1.8231   1.8231   2.6985   2.6985   2.9667   2.9667
     3.9685   3.9685   4.2289   4.2289   4.9437   4.9437   6.3017   6.3017
     7.4565   7.4565

          k = 0.3333 0.5774 0.0000 (  1779 PWs)   bands (ev):

    -9.3258  -9.3258   2.3503   2.5684   2.5684   3.2385   3.3998   3.3998
     3.7281   3.9440   3.9637   3.9637   4.2956   4.9403   4.9403   6.4854
     6.4854   6.8839

          k = 0.3333 0.5774 0.1147 (  1779 PWs)   bands (ev):

    -9.3181  -9.3181   2.3767   2.4161   2.4161   3.0820   3.2489   3.2489
     3.7519   3.9315   4.1491   4.1491   4.5390   4.8939   4.8939   6.7178
     6.7567   6.7567

          k = 0.3333 0.5774 0.2294 (  1758 PWs)   bands (ev):

    -9.3025  -9.3025   2.1222   2.1222   2.4603   2.8230   3.1243   3.1243
     3.7955   3.8968   4.3573   4.3573   4.8241   4.8241   5.0667   6.2764
     7.2632   7.2632

          k = 0.3333 0.5774-0.3441 (  1752 PWs)   bands (ev):

    -9.2947  -9.2947   1.9872   1.9872   2.6078   2.6078   3.0892   3.0892
     3.8473   3.8473   4.4342   4.4342   4.7936   4.7936   5.6844   5.6844
     7.5064   7.5064

     highest occupied level (ev):     8.5224

!    total energy              =    -361.59102134 Ry
     estimated scf accuracy    <          5.7E-09 Ry

     The total energy is the sum of the following terms:
     one-electron contribution =    -143.79609324 Ry
     hartree contribution      =     114.76095035 Ry
     xc contribution           =    -109.79604395 Ry
     ewald contribution        =    -222.75983450 Ry

     convergence has been achieved in  36 iterations

     Forces acting on atoms (cartesian axes, Ry/au):

     atom    1 type  1   force =     0.00000000    0.00000000   -0.07693406
     atom    2 type  1   force =     0.00000000   -0.00000000   -0.07693406
     atom    3 type  2   force =     0.00000000    0.00000000    0.07693406
     atom    4 type  2   force =     0.00000000   -0.00000000    0.07693406
     The non-local contrib.  to forces
     atom    1 type  1   force =     0.00000000    0.00000000   -0.32979612
     atom    2 type  1   force =    -0.00000000   -0.00000000   -0.32979612
     atom    3 type  2   force =    -0.00000000    0.00000000   -0.22280136
     atom    4 type  2   force =     0.00000000    0.00000000   -0.22280136
     The ionic contribution  to forces
     atom    1 type  1   force =    -0.00000000    0.00000000   -2.26021379
     atom    2 type  1   force =     0.00000000   -0.00000000   -2.26021379
     atom    3 type  2   force =    -0.00000000    0.00000000    2.26021379
     atom    4 type  2   force =     0.00000000   -0.00000000    2.26021379
     The local contribution  to forces
     atom    1 type  1   force =    -0.00000002    0.00000001    2.48539649
     atom    2 type  1   force =     0.00000006   -0.00000004    2.48539648
     atom    3 type  2   force =    -0.00000001    0.00000000   -1.96190298
     atom    4 type  2   force =     0.00000002   -0.00000001   -1.96190298
     The core correction contribution to forces
     atom    1 type  1   force =    -0.00000000    0.00000000    0.02768403
     atom    2 type  1   force =     0.00000001   -0.00000000    0.02768403
     atom    3 type  2   force =     0.00000000   -0.00000000    0.00145164
     atom    4 type  2   force =    -0.00000000    0.00000000    0.00145164
     The Hubbard contrib.    to forces
     atom    1 type  1   force =     0.00000000    0.00000000    0.00000000
     atom    2 type  1   force =     0.00000000    0.00000000    0.00000000
     atom    3 type  2   force =     0.00000000    0.00000000    0.00000000
     atom    4 type  2   force =     0.00000000    0.00000000    0.00000000
     The SCF correction term to forces
     atom    1 type  1   force =    -0.00000000    0.00000000    0.00000609
     atom    2 type  1   force =     0.00000000   -0.00000000    0.00000609
     atom    3 type  2   force =     0.00000000   -0.00000000   -0.00001629
     atom    4 type  2   force =    -0.00000000    0.00000000   -0.00001629

     Total force =     0.153868     Total SCF correction =     0.000025


     Computing stress (Cartesian axis) and pressure

          total   stress  (Ry/bohr**3)                   (kbar)     P=      207.55
   0.00058661   0.00000000  -0.00000000           86.29        0.00       -0.00
   0.00000000   0.00058661  -0.00000000            0.00       86.29       -0.00
  -0.00000000  -0.00000000   0.00305941           -0.00       -0.00      450.05


     Writing all to output data dir ./ZnO_ANN.save/

     init_run     :      1.74s CPU      1.19s WALL (       1 calls)
     electrons    :     98.33s CPU     37.63s WALL (       1 calls)
     forces       :      0.64s CPU      0.29s WALL (       1 calls)
     stress       :      2.22s CPU      1.18s WALL (       1 calls)

     Called by init_run:
     wfcinit      :      0.94s CPU      0.38s WALL (       1 calls)
     potinit      :      0.21s CPU      0.21s WALL (       1 calls)
     hinit0       :      0.49s CPU      0.50s WALL (       1 calls)

     Called by electrons:
     c_bands      :     77.95s CPU     29.46s WALL (      36 calls)
     sum_band     :     15.27s CPU      6.03s WALL (      36 calls)
     v_of_rho     :      1.13s CPU      0.51s WALL (      37 calls)
     newd         :      3.69s CPU      1.53s WALL (      37 calls)
     mix_rho      :      0.20s CPU      0.09s WALL (      36 calls)

     Called by c_bands:
     init_us_2    :      1.35s CPU      0.48s WALL (    2100 calls)
     init_us_2:cp :      1.33s CPU      0.47s WALL (    2100 calls)
     cegterg      :     74.84s CPU     28.29s WALL (    1008 calls)

     Called by *egterg:
     cdiaghg      :     11.36s CPU      3.82s WALL (    4120 calls)
     h_psi        :     53.49s CPU     21.88s WALL (    4148 calls)
     s_psi        :      1.12s CPU      0.35s WALL (    4148 calls)
     g_psi        :      0.35s CPU      0.09s WALL (    3112 calls)

     Called by h_psi:
     h_psi:calbec :      1.72s CPU      0.63s WALL (    4148 calls)
     vloc_psi     :     50.23s CPU     20.74s WALL (    4148 calls)
     add_vuspsi   :      1.12s CPU      0.38s WALL (    4148 calls)

     General routines
     calbec       :      2.28s CPU      0.82s WALL (    5296 calls)
     fft          :      0.89s CPU      0.53s WALL (     504 calls)
     ffts         :      0.15s CPU      0.12s WALL (      73 calls)
     fftw         :     52.18s CPU     21.60s WALL (  123074 calls)
     interpolate  :      0.17s CPU      0.13s WALL (      37 calls)

     Parallel routines

     PWSCF        :   1m43.46s CPU     40.75s WALL


   This run was terminated on:  17: 7:39  13Jun2025            

=------------------------------------------------------------------------------=
   JOB DONE.
=------------------------------------------------------------------------------=
Note: The following floating-point exceptions are signalling: IEEE_INVALID_FLAG
