Authorization required, but no authorization protocol specified

Authorization required, but no authorization protocol specified

Authorization required, but no authorization protocol specified

Authorization required, but no authorization protocol specified

Authorization required, but no authorization protocol specified

Authorization required, but no authorization protocol specified

Authorization required, but no authorization protocol specified

Authorization required, but no authorization protocol specified

Authorization required, but no authorization protocol specified

Authorization required, but no authorization protocol specified


     Program PWSCF v.7.2 starts on 13Jun2025 at 16:15:35 

     This program is part of the open-source Quantum ESPRESSO suite
     for quantum simulation of materials; please cite
         "P. Giannozzi et al., J. Phys.:Condens. Matter 21 395502 (2009);
         "P. Giannozzi et al., J. Phys.:Condens. Matter 29 465901 (2017);
         "P. Giannozzi et al., J. Chem. Phys. 152 154105 (2020);
          URL http://www.quantum-espresso.org", 
     in publications or presentations arising from this work. More details at
     http://www.quantum-espresso.org/quote

     Parallel version (MPI), running on     8 processors

     MPI processes distributed on     1 nodes
     120730 MiB available memory on the printing compute node when the environment starts

     Reading input from /home/jvc/QEspresso7.2/ZnO_database_python/SCFs.in/scf-5.93-1.52.in

     Current dimensions of program PWSCF are:
     Max number of different atomic species (ntypx) = 10
     Max number of k-points (npk) =  40000
     Max angular momentum in pseudopotentials (lmaxx) =  4
     file Zn.upf: wavefunction(s)  3D renormalized

     R & G space division:  proc/nbgrp/npool/nimage =       8
     Subspace diagonalization in iterative solution of the eigenvalue problem:
     a serial algorithm will be used


     Parallelization info
     --------------------
     sticks:   dense  smooth     PW     G-vecs:    dense   smooth      PW
     Min         119      62     18                 4621     1644     280
     Max         120      63     19                 4632     1647     283
     Sum         955     499    151                36999    13163    2261

     Using Slab Decomposition



     bravais-lattice index     =            4
     lattice parameter (alat)  =       5.9317  a.u.
     unit-cell volume          =     274.2768 (a.u.)^3
     number of atoms/cell      =            4
     number of atomic types    =            2
     number of electrons       =        36.00
     number of Kohn-Sham states=           18
     kinetic-energy cutoff     =      50.0000  Ry
     charge density cutoff     =     400.0000  Ry
     scf convergence threshold =      1.0E-08
     mixing beta               =       0.3000
     number of iterations used =            8  plain     mixing
     Exchange-correlation= PBE
                           (   1   4   3   4   0   0   0)

     celldm(1)=   5.931669  celldm(2)=   0.000000  celldm(3)=   1.517497
     celldm(4)=   0.000000  celldm(5)=   0.000000  celldm(6)=   0.000000

     crystal axes: (cart. coord. in units of alat)
               a(1) = (   1.000000   0.000000   0.000000 )  
               a(2) = (  -0.500000   0.866025   0.000000 )  
               a(3) = (   0.000000   0.000000   1.517497 )  

     reciprocal axes: (cart. coord. in units 2 pi/alat)
               b(1) = (  1.000000  0.577350 -0.000000 )  
               b(2) = (  0.000000  1.154701  0.000000 )  
               b(3) = (  0.000000 -0.000000  0.658980 )  


     PseudoPot. # 1 for Zn read from file:
     /home/jvc/QEspresso7.2/ZnO_database/pseudos/Zn.upf
     MD5 check sum: 7f56cabf9682ed8c977c2f7d0c5985c5
     Pseudo is Ultrasoft + core correction, Zval = 12.0
     Generated using &quot;atomic&quot; code by A. Dal Corso  v.6.2.2
     Using radial grid of 1201 points,  6 beta functions with: 
                l(1) =   0
                l(2) =   0
                l(3) =   1
                l(4) =   1
                l(5) =   2
                l(6) =   2
     Q(r) pseudized with 0 coefficients 


     PseudoPot. # 2 for O  read from file:
     /home/jvc/QEspresso7.2/ZnO_database/pseudos/O.upf
     MD5 check sum: 91400c9766925bcf19f520983a725ff0
     Pseudo is Ultrasoft + core correction, Zval =  6.0
     Generated using &quot;atomic&quot; code by A. Dal Corso  v.6.3MaX
     Using radial grid of 1095 points,  4 beta functions with: 
                l(1) =   0
                l(2) =   0
                l(3) =   1
                l(4) =   1
     Q(r) pseudized with 0 coefficients 


     atomic species   valence    mass     pseudopotential
        Zn            12.00    63.38000     Zn( 1.00)
        O              6.00    15.99900     O ( 1.00)

     12 Sym. Ops. (no inversion) found ( 6 have fractional translation)



   Cartesian axes

     site n.     atom                  positions (alat units)
         1           Zn  tau(   1) = (   0.5000000   0.2886751   0.7597099  )
         2           Zn  tau(   2) = (  -0.0000000   0.5773503   0.0009615  )
         3           O   tau(   3) = (   0.5000000   0.2886751   1.3349062  )
         4           O   tau(   4) = (  -0.0000000   0.5773503   0.5761578  )

     number of k points=    28
                       cart. coord. in units 2pi/alat
        k(    1) = (   0.0000000   0.0000000   0.0000000), wk =   0.0092593
        k(    2) = (   0.0000000   0.0000000   0.1098300), wk =   0.0185185
        k(    3) = (   0.0000000   0.0000000   0.2196600), wk =   0.0185185
        k(    4) = (   0.0000000   0.0000000  -0.3294900), wk =   0.0092593
        k(    5) = (   0.0000000   0.1924501   0.0000000), wk =   0.0555556
        k(    6) = (   0.0000000   0.1924501   0.1098300), wk =   0.1111111
        k(    7) = (   0.0000000   0.1924501   0.2196600), wk =   0.1111111
        k(    8) = (   0.0000000   0.1924501  -0.3294900), wk =   0.0555556
        k(    9) = (   0.0000000   0.3849002   0.0000000), wk =   0.0555556
        k(   10) = (   0.0000000   0.3849002   0.1098300), wk =   0.1111111
        k(   11) = (   0.0000000   0.3849002   0.2196600), wk =   0.1111111
        k(   12) = (   0.0000000   0.3849002  -0.3294900), wk =   0.0555556
        k(   13) = (   0.0000000  -0.5773503   0.0000000), wk =   0.0277778
        k(   14) = (   0.0000000  -0.5773503   0.1098300), wk =   0.0555556
        k(   15) = (   0.0000000  -0.5773503   0.2196600), wk =   0.0555556
        k(   16) = (   0.0000000  -0.5773503  -0.3294900), wk =   0.0277778
        k(   17) = (   0.1666667   0.2886751   0.0000000), wk =   0.0555556
        k(   18) = (   0.1666667   0.2886751   0.1098300), wk =   0.1111111
        k(   19) = (   0.1666667   0.2886751   0.2196600), wk =   0.1111111
        k(   20) = (   0.1666667   0.2886751  -0.3294900), wk =   0.0555556
        k(   21) = (   0.1666667   0.4811252   0.0000000), wk =   0.1111111
        k(   22) = (   0.1666667   0.4811252   0.1098300), wk =   0.2222222
        k(   23) = (   0.1666667   0.4811252   0.2196600), wk =   0.2222222
        k(   24) = (   0.1666667   0.4811252  -0.3294900), wk =   0.1111111
        k(   25) = (   0.3333333   0.5773503   0.0000000), wk =   0.0185185
        k(   26) = (   0.3333333   0.5773503   0.1098300), wk =   0.0370370
        k(   27) = (   0.3333333   0.5773503   0.2196600), wk =   0.0370370
        k(   28) = (   0.3333333   0.5773503  -0.3294900), wk =   0.0185185

     Dense  grid:    36999 G-vectors     FFT dimensions: (  40,  40,  60)

     Smooth grid:    13163 G-vectors     FFT dimensions: (  27,  27,  48)

     Estimated max dynamical RAM per process >      22.13 MB

     Estimated total dynamical RAM >     177.02 MB

     Check: negative core charge=   -0.000002

     Initial potential from superposition of free atoms

     starting charge      35.9925, renormalised to      36.0000
     Starting wfcs are   26 randomized atomic wfcs

     total cpu time spent up to now is        1.5 secs

     Self-consistent Calculation

     iteration #  1     ecut=    50.00 Ry     beta= 0.30
     Davidson diagonalization with overlap
     ethr =  1.00E-02,  avg # of iterations =  2.0

     total cpu time spent up to now is        2.3 secs

     total energy              =    -361.42086496 Ry
     estimated scf accuracy    <       0.67704011 Ry

     iteration #  2     ecut=    50.00 Ry     beta= 0.30
     Davidson diagonalization with overlap
     ethr =  1.88E-03,  avg # of iterations =  2.0

     total cpu time spent up to now is        3.2 secs

     total energy              =    -361.48192329 Ry
     estimated scf accuracy    <       0.11919164 Ry

     iteration #  3     ecut=    50.00 Ry     beta= 0.30
     Davidson diagonalization with overlap
     ethr =  3.31E-04,  avg # of iterations =  6.2

     total cpu time spent up to now is        4.7 secs

     total energy              =    -361.54149498 Ry
     estimated scf accuracy    <       0.07442178 Ry

     iteration #  4     ecut=    50.00 Ry     beta= 0.30
     Davidson diagonalization with overlap
     ethr =  2.07E-04,  avg # of iterations =  3.2

     total cpu time spent up to now is        5.7 secs

     total energy              =    -361.57172104 Ry
     estimated scf accuracy    <       0.00595986 Ry

     iteration #  5     ecut=    50.00 Ry     beta= 0.30
     Davidson diagonalization with overlap
     ethr =  1.66E-05,  avg # of iterations = 11.2

     total cpu time spent up to now is        8.3 secs

     total energy              =    -361.64072784 Ry
     estimated scf accuracy    <       0.36119826 Ry

     iteration #  6     ecut=    50.00 Ry     beta= 0.30
     Davidson diagonalization with overlap
     ethr =  1.66E-05,  avg # of iterations =  2.1

     total cpu time spent up to now is        9.1 secs

     total energy              =    -361.80876807 Ry
     estimated scf accuracy    <       0.31232772 Ry

     iteration #  7     ecut=    50.00 Ry     beta= 0.30
     Davidson diagonalization with overlap
     ethr =  1.66E-05,  avg # of iterations =  9.1

     total cpu time spent up to now is       11.2 secs

     total energy              =    -361.30680346 Ry
     estimated scf accuracy    <       0.96302883 Ry

     iteration #  8     ecut=    50.00 Ry     beta= 0.30
     Davidson diagonalization with overlap
     ethr =  1.66E-05,  avg # of iterations = 12.7

     total cpu time spent up to now is       14.2 secs

     total energy              =    -361.58361831 Ry
     estimated scf accuracy    <       0.05427142 Ry

     iteration #  9     ecut=    50.00 Ry     beta= 0.30
     Davidson diagonalization with overlap
     ethr =  1.66E-05,  avg # of iterations =  1.4

     total cpu time spent up to now is       14.9 secs

     total energy              =    -361.57433798 Ry
     estimated scf accuracy    <       0.06783464 Ry

     iteration # 10     ecut=    50.00 Ry     beta= 0.30
     Davidson diagonalization with overlap
     ethr =  1.66E-05,  avg # of iterations =  2.0

     total cpu time spent up to now is       15.7 secs

     total energy              =    -361.55883984 Ry
     estimated scf accuracy    <       0.05147648 Ry

     iteration # 11     ecut=    50.00 Ry     beta= 0.30
     Davidson diagonalization with overlap
     ethr =  1.66E-05,  avg # of iterations =  6.1

     total cpu time spent up to now is       17.2 secs

     total energy              =    -361.56079686 Ry
     estimated scf accuracy    <       0.00665565 Ry

     iteration # 12     ecut=    50.00 Ry     beta= 0.30
     Davidson diagonalization with overlap
     ethr =  1.66E-05,  avg # of iterations =  3.1

     total cpu time spent up to now is       18.1 secs

     total energy              =    -361.56156927 Ry
     estimated scf accuracy    <       0.00076576 Ry

     iteration # 13     ecut=    50.00 Ry     beta= 0.30
     Davidson diagonalization with overlap
     ethr =  2.13E-06,  avg # of iterations =  6.1

     total cpu time spent up to now is       19.6 secs

     total energy              =    -361.56251110 Ry
     estimated scf accuracy    <       0.00021042 Ry

     iteration # 14     ecut=    50.00 Ry     beta= 0.30
     Davidson diagonalization with overlap
     ethr =  5.84E-07,  avg # of iterations =  4.2

     total cpu time spent up to now is       20.6 secs

     total energy              =    -361.56246218 Ry
     estimated scf accuracy    <       0.00054240 Ry

     iteration # 15     ecut=    50.00 Ry     beta= 0.30
     Davidson diagonalization with overlap
     ethr =  5.84E-07,  avg # of iterations =  1.1

     total cpu time spent up to now is       21.3 secs

     total energy              =    -361.56242586 Ry
     estimated scf accuracy    <       0.00039479 Ry

     iteration # 16     ecut=    50.00 Ry     beta= 0.30
     Davidson diagonalization with overlap
     ethr =  5.84E-07,  avg # of iterations =  1.0

     total cpu time spent up to now is       22.1 secs

     total energy              =    -361.56237386 Ry
     estimated scf accuracy    <       0.00029099 Ry

     iteration # 17     ecut=    50.00 Ry     beta= 0.30
     Davidson diagonalization with overlap
     ethr =  5.84E-07,  avg # of iterations =  1.2

     total cpu time spent up to now is       22.8 secs

     total energy              =    -361.56237070 Ry
     estimated scf accuracy    <       0.00016094 Ry

     iteration # 18     ecut=    50.00 Ry     beta= 0.30
     Davidson diagonalization with overlap
     ethr =  4.47E-07,  avg # of iterations =  1.7

     total cpu time spent up to now is       23.6 secs

     total energy              =    -361.56237999 Ry
     estimated scf accuracy    <       0.00009979 Ry

     iteration # 19     ecut=    50.00 Ry     beta= 0.30
     Davidson diagonalization with overlap
     ethr =  2.77E-07,  avg # of iterations =  1.1

     total cpu time spent up to now is       24.3 secs

     total energy              =    -361.56237447 Ry
     estimated scf accuracy    <       0.00008741 Ry

     iteration # 20     ecut=    50.00 Ry     beta= 0.30
     Davidson diagonalization with overlap
     ethr =  2.43E-07,  avg # of iterations =  1.2

     total cpu time spent up to now is       25.1 secs

     total energy              =    -361.56236169 Ry
     estimated scf accuracy    <       0.00006007 Ry

     iteration # 21     ecut=    50.00 Ry     beta= 0.30
     Davidson diagonalization with overlap
     ethr =  1.67E-07,  avg # of iterations =  2.0

     total cpu time spent up to now is       25.9 secs

     total energy              =    -361.56237446 Ry
     estimated scf accuracy    <       0.00001855 Ry

     iteration # 22     ecut=    50.00 Ry     beta= 0.30
     Davidson diagonalization with overlap
     ethr =  5.15E-08,  avg # of iterations =  1.6

     total cpu time spent up to now is       26.7 secs

     total energy              =    -361.56235224 Ry
     estimated scf accuracy    <       0.00002803 Ry

     iteration # 23     ecut=    50.00 Ry     beta= 0.30
     Davidson diagonalization with overlap
     ethr =  5.15E-08,  avg # of iterations =  8.1

     total cpu time spent up to now is       28.6 secs

     total energy              =    -361.56236868 Ry
     estimated scf accuracy    <       0.00007942 Ry

     iteration # 24     ecut=    50.00 Ry     beta= 0.30
     Davidson diagonalization with overlap
     ethr =  5.15E-08,  avg # of iterations =  2.2

     total cpu time spent up to now is       29.4 secs

     total energy              =    -361.56237304 Ry
     estimated scf accuracy    <       0.00003606 Ry

     iteration # 25     ecut=    50.00 Ry     beta= 0.30
     Davidson diagonalization with overlap
     ethr =  5.15E-08,  avg # of iterations =  1.6

     total cpu time spent up to now is       30.2 secs

     total energy              =    -361.56237175 Ry
     estimated scf accuracy    <       0.00003122 Ry

     iteration # 26     ecut=    50.00 Ry     beta= 0.30
     Davidson diagonalization with overlap
     ethr =  5.15E-08,  avg # of iterations =  2.0

     total cpu time spent up to now is       31.0 secs

     total energy              =    -361.56237034 Ry
     estimated scf accuracy    <       0.00002090 Ry

     iteration # 27     ecut=    50.00 Ry     beta= 0.30
     Davidson diagonalization with overlap
     ethr =  5.15E-08,  avg # of iterations =  1.3

     total cpu time spent up to now is       31.7 secs

     total energy              =    -361.56237014 Ry
     estimated scf accuracy    <       0.00001339 Ry

     iteration # 28     ecut=    50.00 Ry     beta= 0.30
     Davidson diagonalization with overlap
     ethr =  3.72E-08,  avg # of iterations =  1.0

     total cpu time spent up to now is       32.5 secs

     total energy              =    -361.56237285 Ry
     estimated scf accuracy    <       0.00001041 Ry

     iteration # 29     ecut=    50.00 Ry     beta= 0.30
     Davidson diagonalization with overlap
     ethr =  2.89E-08,  avg # of iterations =  1.0

     total cpu time spent up to now is       33.2 secs

     total energy              =    -361.56236990 Ry
     estimated scf accuracy    <       0.00001428 Ry

     iteration # 30     ecut=    50.00 Ry     beta= 0.30
     Davidson diagonalization with overlap
     ethr =  2.89E-08,  avg # of iterations =  1.1

     total cpu time spent up to now is       33.9 secs

     total energy              =    -361.56236706 Ry
     estimated scf accuracy    <       0.00000820 Ry

     iteration # 31     ecut=    50.00 Ry     beta= 0.30
     Davidson diagonalization with overlap
     ethr =  2.28E-08,  avg # of iterations =  3.9

     total cpu time spent up to now is       35.0 secs

     total energy              =    -361.56236868 Ry
     estimated scf accuracy    <       0.00000028 Ry

     iteration # 32     ecut=    50.00 Ry     beta= 0.30
     Davidson diagonalization with overlap
     ethr =  7.71E-10,  avg # of iterations =  8.4

     total cpu time spent up to now is       36.9 secs

     total energy              =    -361.56236970 Ry
     estimated scf accuracy    <       0.00000098 Ry

     iteration # 33     ecut=    50.00 Ry     beta= 0.30
     Davidson diagonalization with overlap
     ethr =  7.71E-10,  avg # of iterations =  1.2

     total cpu time spent up to now is       37.6 secs

     total energy              =    -361.56236943 Ry
     estimated scf accuracy    <       0.00000124 Ry

     iteration # 34     ecut=    50.00 Ry     beta= 0.30
     Davidson diagonalization with overlap
     ethr =  7.71E-10,  avg # of iterations =  2.0

     total cpu time spent up to now is       38.4 secs

     total energy              =    -361.56236918 Ry
     estimated scf accuracy    <       0.00000077 Ry

     iteration # 35     ecut=    50.00 Ry     beta= 0.30
     Davidson diagonalization with overlap
     ethr =  7.71E-10,  avg # of iterations =  5.0

     total cpu time spent up to now is       39.7 secs

     total energy              =    -361.56236927 Ry
     estimated scf accuracy    <       0.00000005 Ry

     iteration # 36     ecut=    50.00 Ry     beta= 0.30
     Davidson diagonalization with overlap
     ethr =  1.45E-10,  avg # of iterations =  5.6

     total cpu time spent up to now is       41.0 secs

     End of self-consistent calculation

          k = 0.0000 0.0000 0.0000 (  1665 PWs)   bands (ev):

    -9.6505  -8.5349   3.0248   3.2894   3.2894   3.3275   3.5785   3.5785
     4.9340   4.9340   5.2913   5.2913   5.5979   8.6594   8.6594   9.8287
     9.8287   9.8335

          k = 0.0000 0.0000 0.1098 (  1646 PWs)   bands (ev):

    -9.5799  -8.6135   2.9044   3.2281   3.2955   3.2955   3.5437   3.5437
     4.9714   4.9714   5.2834   5.2834   5.9695   8.7392   8.7392   9.3250
     9.7534   9.7534

          k = 0.0000 0.0000 0.2197 (  1640 PWs)   bands (ev):

    -9.3838  -8.8256   2.7630   3.0005   3.3207   3.3207   3.4616   3.4616
     5.0639   5.0639   5.2471   5.2471   6.7970   8.5562   8.9573   8.9573
     9.5445   9.5445

          k = 0.0000 0.0000-0.3295 (  1664 PWs)   bands (ev):

    -9.1088  -9.1088   2.8006   2.8006   3.3773   3.3773   3.3773   3.3773
     5.1685   5.1685   5.1685   5.1685   7.7119   7.7119   9.2532   9.2532
     9.2532   9.2532

          k = 0.0000 0.1925 0.0000 (  1633 PWs)   bands (ev):

    -9.4633  -8.4738   3.0266   3.2532   3.3809   3.4273   3.6110   3.7229
     4.8516   4.9366   5.3021   5.3159   5.6515   7.7359   8.2320   8.7430
     9.5936   9.6178

          k = 0.0000 0.1925 0.1098 (  1643 PWs)   bands (ev):

    -9.3989  -8.5412   2.9430   3.0585   3.3906   3.4172   3.5894   3.6838
     4.9075   4.9712   5.3012   5.3246   6.0203   7.8307   8.3298   8.5542
     9.5299   9.5488

          k = 0.0000 0.1925 0.2197 (  1642 PWs)   bands (ev):

    -9.2211  -8.7251   2.7422   2.8384   3.4035   3.4259   3.5172   3.5921
     5.0340   5.0591   5.2515   5.2795   6.8382   8.0263   8.2625   8.5935
     9.2375   9.2862

          k = 0.0000 0.1925-0.3295 (  1652 PWs)   bands (ev):

    -8.9747  -8.9747   2.6996   2.6996   3.4411   3.4411   3.4953   3.4953
     5.1643   5.1643   5.1728   5.1728   7.5855   7.5855   8.6855   8.6855
     8.9448   8.9448

          k = 0.0000 0.3849 0.0000 (  1630 PWs)   bands (ev):

    -9.0321  -8.3865   2.7671   3.2209   3.5244   3.6254   4.0655   4.0913
     4.8146   5.0527   5.2407   5.3509   5.8254   6.3696   7.3430   7.4454
     8.9207   9.1424

          k = 0.0000 0.3849 0.1098 (  1629 PWs)   bands (ev):

    -8.9858  -8.4256   2.6997   3.0164   3.5488   3.6042   3.9222   4.0337
     4.8899   5.0718   5.3263   5.3820   5.9914   6.5752   7.3650   7.4851
     9.0012   9.0339

          k = 0.0000 0.3849 0.2197 (  1636 PWs)   bands (ev):

    -8.8608  -8.5360   2.5616   2.6822   3.5932   3.6225   3.7523   3.8962
     5.0518   5.1233   5.2666   5.3562   6.3316   6.8249   7.6324   7.8480
     8.7323   8.9403

          k = 0.0000 0.3849-0.3295 (  1630 PWs)   bands (ev):

    -8.6948  -8.6948   2.5173   2.5173   3.6412   3.6412   3.7440   3.7440
     5.1935   5.1935   5.2223   5.2223   6.6204   6.6204   8.3042   8.3042
     8.4248   8.4248

          k = 0.0000-0.5774 0.0000 (  1638 PWs)   bands (ev):

    -8.7463  -8.4010   2.8435   2.9751   3.5694   3.7763   4.0854   4.3453
     4.9900   5.1999   5.3664   5.4343   5.8822   6.0074   6.6220   6.8190
     8.4186   8.8749

          k = 0.0000-0.5774 0.1098 (  1634 PWs)   bands (ev):

    -8.7173  -8.4174   2.7489   2.8229   3.6038   3.7456   4.0127   4.2658
     5.0900   5.2046   5.3332   5.4352   5.8853   5.9252   7.0024   7.0128
     8.5555   8.7570

          k = 0.0000-0.5774 0.2197 (  1646 PWs)   bands (ev):

    -8.6417  -8.4676   2.5551   2.5607   3.7060   3.7355   3.8818   4.0776
     5.2189   5.2460   5.2806   5.4175   5.8711   5.8835   7.4390   7.7774
     8.4283   8.7041

          k = 0.0000-0.5774-0.3295 (  1640 PWs)   bands (ev):

    -8.5483  -8.5483   2.4525   2.4525   3.7823   3.7823   3.8717   3.8717
     5.2432   5.2432   5.3579   5.3579   5.8716   5.8716   7.9566   7.9566
     8.4508   8.4508

          k = 0.1667 0.2887 0.0000 (  1629 PWs)   bands (ev):

    -9.1518  -8.4005   2.9109   3.1824   3.5410   3.5681   3.8993   3.9913
     4.7851   4.9646   5.2808   5.3403   5.8254   6.8644   7.1843   7.9010
     9.1122   9.1467

          k = 0.1667 0.2887 0.1098 (  1636 PWs)   bands (ev):

    -9.0997  -8.4479   2.8412   3.0242   3.5119   3.5249   3.7908   3.9403
     4.8572   5.0310   5.3201   5.3766   6.0990   7.0247   7.2748   7.8012
     8.9978   9.1946

          k = 0.1667 0.2887 0.2197 (  1633 PWs)   bands (ev):

    -8.9581  -8.5805   2.6865   2.7260   3.4852   3.5122   3.7025   3.8248
     5.0190   5.1064   5.2676   5.3407   6.6499   7.2839   7.6099   7.8517
     8.6889   9.0542

          k = 0.1667 0.2887-0.3295 (  1634 PWs)   bands (ev):

    -8.7671  -8.7671   2.6031   2.6031   3.4997   3.4997   3.7190   3.7190
     5.1678   5.1678   5.2209   5.2209   7.0233   7.0233   8.2091   8.2091
     8.5042   8.5042

          k = 0.1667 0.4811 0.0000 (  1636 PWs)   bands (ev):

    -8.7587  -8.3934   2.9572   3.2162   3.5184   3.7043   4.1880   4.3510
     4.9203   4.9692   5.3703   5.4246   5.6859   6.1795   6.5329   6.9387
     8.3456   8.5783

          k = 0.1667 0.4811 0.1098 (  1640 PWs)   bands (ev):

    -8.7285  -8.4113   2.8713   3.0612   3.4965   3.6762   4.0765   4.2321
     4.9317   5.1287   5.3540   5.5378   5.6764   6.3370   6.5535   7.1811
     8.3373   8.5974

          k = 0.1667 0.4811 0.2197 (  1637 PWs)   bands (ev):

    -8.6497  -8.4655   2.6900   2.7603   3.5203   3.6344   3.9572   4.0524
     5.0527   5.1716   5.3647   5.5223   5.8763   6.2948   6.9265   7.7755
     8.0652   8.7315

          k = 0.1667 0.4811-0.3295 (  1632 PWs)   bands (ev):

    -8.5514  -8.5514   2.6121   2.6121   3.5845   3.5845   3.9419   3.9419
     5.1420   5.1420   5.4294   5.4294   6.1091   6.1091   7.4543   7.4543
     8.5131   8.5131

          k = 0.3333 0.5774 0.0000 (  1653 PWs)   bands (ev):

    -8.5097  -8.5097   3.1648   3.4782   3.4782   3.8871   4.3639   4.3639
     4.8457   5.0329   5.0329   5.0870   5.5454   6.1667   6.1667   7.6459
     7.6459   7.9139

          k = 0.3333 0.5774 0.1098 (  1632 PWs)   bands (ev):

    -8.5024  -8.5024   3.1910   3.3060   3.3060   3.7896   4.2408   4.2408
     4.8697   5.0730   5.2596   5.2596   5.7273   6.1111   6.1111   7.7495
     7.8777   7.8777

          k = 0.3333 0.5774 0.2197 (  1629 PWs)   bands (ev):

    -8.4878  -8.4878   2.9963   2.9963   3.2713   3.5933   4.1408   4.1408
     4.9197   5.0341   5.5586   5.5586   5.9974   5.9974   6.1778   7.3172
     8.3275   8.3275

          k = 0.3333 0.5774-0.3295 (  1632 PWs)   bands (ev):

    -8.4805  -8.4805   2.8587   2.8587   3.4077   3.4077   4.1127   4.1127
     4.9786   4.9786   5.7101   5.7101   5.9087   5.9087   6.7491   6.7491
     8.5498   8.5498

     highest occupied level (ev):     9.8335

!    total energy              =    -361.56236930 Ry
     estimated scf accuracy    <          8.6E-09 Ry

     The total energy is the sum of the following terms:
     one-electron contribution =    -133.45816521 Ry
     hartree contribution      =     111.07762935 Ry
     xc contribution           =    -109.97529882 Ry
     ewald contribution        =    -229.20653461 Ry

     convergence has been achieved in  36 iterations

     Forces acting on atoms (cartesian axes, Ry/au):

     atom    1 type  1   force =     0.00000000    0.00000000   -0.05411655
     atom    2 type  1   force =    -0.00000000    0.00000000   -0.05411655
     atom    3 type  2   force =    -0.00000000   -0.00000000    0.05411655
     atom    4 type  2   force =     0.00000000    0.00000000    0.05411655
     The non-local contrib.  to forces
     atom    1 type  1   force =    -0.00000000    0.00000000   -0.20221146
     atom    2 type  1   force =     0.00000000   -0.00000000   -0.20221146
     atom    3 type  2   force =    -0.00000000   -0.00000000   -0.12877986
     atom    4 type  2   force =     0.00000000    0.00000000   -0.12877986
     The ionic contribution  to forces
     atom    1 type  1   force =    -0.00000000    0.00000000   -1.36943627
     atom    2 type  1   force =     0.00000000   -0.00000000   -1.36943627
     atom    3 type  2   force =    -0.00000000    0.00000000    1.36943627
     atom    4 type  2   force =     0.00000000   -0.00000000    1.36943627
     The local contribution  to forces
     atom    1 type  1   force =    -0.00000002    0.00000001    1.49945303
     atom    2 type  1   force =     0.00000006   -0.00000004    1.49945303
     atom    3 type  2   force =    -0.00000001    0.00000000   -1.18729572
     atom    4 type  2   force =     0.00000002   -0.00000001   -1.18729572
     The core correction contribution to forces
     atom    1 type  1   force =    -0.00000000    0.00000000    0.01808271
     atom    2 type  1   force =     0.00000001   -0.00000000    0.01808271
     atom    3 type  2   force =     0.00000000   -0.00000000    0.00078121
     atom    4 type  2   force =    -0.00000000    0.00000000    0.00078121
     The Hubbard contrib.    to forces
     atom    1 type  1   force =     0.00000000    0.00000000    0.00000000
     atom    2 type  1   force =     0.00000000    0.00000000    0.00000000
     atom    3 type  2   force =     0.00000000    0.00000000    0.00000000
     atom    4 type  2   force =     0.00000000    0.00000000    0.00000000
     The SCF correction term to forces
     atom    1 type  1   force =    -0.00000000    0.00000000   -0.00001418
     atom    2 type  1   force =     0.00000000   -0.00000000   -0.00001418
     atom    3 type  2   force =    -0.00000000    0.00000000   -0.00003496
     atom    4 type  2   force =     0.00000000   -0.00000000   -0.00003496

     Total force =     0.108233     Total SCF correction =     0.000053


     Computing stress (Cartesian axis) and pressure

          total   stress  (Ry/bohr**3)                   (kbar)     P=      382.35
   0.00199752   0.00000000   0.00000000          293.85        0.00        0.00
   0.00000000   0.00199752   0.00000000            0.00      293.85        0.00
   0.00000000   0.00000000   0.00380248            0.00        0.00      559.36


     Writing all to output data dir ./ZnO_ANN.save/

     init_run     :      1.66s CPU      1.13s WALL (       1 calls)
     electrons    :    103.78s CPU     39.55s WALL (       1 calls)
     forces       :      0.57s CPU      0.27s WALL (       1 calls)
     stress       :      2.06s CPU      1.10s WALL (       1 calls)

     Called by init_run:
     wfcinit      :      0.91s CPU      0.37s WALL (       1 calls)
     potinit      :      0.21s CPU      0.21s WALL (       1 calls)
     hinit0       :      0.45s CPU      0.46s WALL (       1 calls)

     Called by electrons:
     c_bands      :     84.32s CPU     31.74s WALL (      36 calls)
     sum_band     :     14.62s CPU      5.80s WALL (      36 calls)
     v_of_rho     :      1.13s CPU      0.50s WALL (      37 calls)
     newd         :      3.43s CPU      1.41s WALL (      37 calls)
     mix_rho      :      0.19s CPU      0.09s WALL (      36 calls)

     Called by c_bands:
     init_us_2    :      1.19s CPU      0.43s WALL (    2100 calls)
     init_us_2:cp :      1.17s CPU      0.43s WALL (    2100 calls)
     cegterg      :     81.48s CPU     30.66s WALL (    1008 calls)

     Called by *egterg:
     cdiaghg      :     13.05s CPU      4.32s WALL (    4560 calls)
     h_psi        :     57.48s CPU     23.46s WALL (    4588 calls)
     s_psi        :      1.21s CPU      0.37s WALL (    4588 calls)
     g_psi        :      0.36s CPU      0.10s WALL (    3552 calls)

     Called by h_psi:
     h_psi:calbec :      1.83s CPU      0.67s WALL (    4588 calls)
     vloc_psi     :     54.03s CPU     22.25s WALL (    4588 calls)
     add_vuspsi   :      1.19s CPU      0.40s WALL (    4588 calls)

     General routines
     calbec       :      2.38s CPU      0.87s WALL (    5736 calls)
     fft          :      0.92s CPU      0.53s WALL (     504 calls)
     ffts         :      0.15s CPU      0.11s WALL (      73 calls)
     fftw         :     55.40s CPU     22.89s WALL (  134180 calls)
     interpolate  :      0.16s CPU      0.13s WALL (      37 calls)

     Parallel routines

     PWSCF        :   1m48.61s CPU     42.51s WALL


   This run was terminated on:  16:16:17  13Jun2025            

=------------------------------------------------------------------------------=
   JOB DONE.
=------------------------------------------------------------------------------=
Note: The following floating-point exceptions are signalling: IEEE_INVALID_FLAG
