Authorization required, but no authorization protocol specified

Authorization required, but no authorization protocol specified

Authorization required, but no authorization protocol specified

Authorization required, but no authorization protocol specified

Authorization required, but no authorization protocol specified

Authorization required, but no authorization protocol specified

Authorization required, but no authorization protocol specified

Authorization required, but no authorization protocol specified

Authorization required, but no authorization protocol specified

Authorization required, but no authorization protocol specified


     Program PWSCF v.7.2 starts on 13Jun2025 at 15:22:19 

     This program is part of the open-source Quantum ESPRESSO suite
     for quantum simulation of materials; please cite
         "P. Giannozzi et al., J. Phys.:Condens. Matter 21 395502 (2009);
         "P. Giannozzi et al., J. Phys.:Condens. Matter 29 465901 (2017);
         "P. Giannozzi et al., J. Chem. Phys. 152 154105 (2020);
          URL http://www.quantum-espresso.org", 
     in publications or presentations arising from this work. More details at
     http://www.quantum-espresso.org/quote

     Parallel version (MPI), running on     8 processors

     MPI processes distributed on     1 nodes
     120736 MiB available memory on the printing compute node when the environment starts

     Reading input from /home/jvc/QEspresso7.2/ZnO_database_python/SCFs.in/scf-5.56-1.76.in

     Current dimensions of program PWSCF are:
     Max number of different atomic species (ntypx) = 10
     Max number of k-points (npk) =  40000
     Max angular momentum in pseudopotentials (lmaxx) =  4
     file Zn.upf: wavefunction(s)  3D renormalized

     R & G space division:  proc/nbgrp/npool/nimage =       8
     Subspace diagonalization in iterative solution of the eigenvalue problem:
     a serial algorithm will be used


     Parallelization info
     --------------------
     sticks:   dense  smooth     PW     G-vecs:    dense   smooth      PW
     Min         105      53     15                 4417     1565     265
     Max         106      55     16                 4426     1568     272
     Sum         847     433    127                35397    12537    2143

     Using Slab Decomposition



     bravais-lattice index     =            4
     lattice parameter (alat)  =       5.5609  a.u.
     unit-cell volume          =     262.0605 (a.u.)^3
     number of atoms/cell      =            4
     number of atomic types    =            2
     number of electrons       =        36.00
     number of Kohn-Sham states=           18
     kinetic-energy cutoff     =      50.0000  Ry
     charge density cutoff     =     400.0000  Ry
     scf convergence threshold =      1.0E-08
     mixing beta               =       0.3000
     number of iterations used =            8  plain     mixing
     Exchange-correlation= PBE
                           (   1   4   3   4   0   0   0)

     celldm(1)=   5.560939  celldm(2)=   0.000000  celldm(3)=   1.759651
     celldm(4)=   0.000000  celldm(5)=   0.000000  celldm(6)=   0.000000

     crystal axes: (cart. coord. in units of alat)
               a(1) = (   1.000000   0.000000   0.000000 )  
               a(2) = (  -0.500000   0.866025   0.000000 )  
               a(3) = (   0.000000   0.000000   1.759651 )  

     reciprocal axes: (cart. coord. in units 2 pi/alat)
               b(1) = (  1.000000  0.577350 -0.000000 )  
               b(2) = (  0.000000  1.154701  0.000000 )  
               b(3) = (  0.000000 -0.000000  0.568295 )  


     PseudoPot. # 1 for Zn read from file:
     /home/jvc/QEspresso7.2/ZnO_database/pseudos/Zn.upf
     MD5 check sum: 7f56cabf9682ed8c977c2f7d0c5985c5
     Pseudo is Ultrasoft + core correction, Zval = 12.0
     Generated using &quot;atomic&quot; code by A. Dal Corso  v.6.2.2
     Using radial grid of 1201 points,  6 beta functions with: 
                l(1) =   0
                l(2) =   0
                l(3) =   1
                l(4) =   1
                l(5) =   2
                l(6) =   2
     Q(r) pseudized with 0 coefficients 


     PseudoPot. # 2 for O  read from file:
     /home/jvc/QEspresso7.2/ZnO_database/pseudos/O.upf
     MD5 check sum: 91400c9766925bcf19f520983a725ff0
     Pseudo is Ultrasoft + core correction, Zval =  6.0
     Generated using &quot;atomic&quot; code by A. Dal Corso  v.6.3MaX
     Using radial grid of 1095 points,  4 beta functions with: 
                l(1) =   0
                l(2) =   0
                l(3) =   1
                l(4) =   1
     Q(r) pseudized with 0 coefficients 


     atomic species   valence    mass     pseudopotential
        Zn            12.00    63.38000     Zn( 1.00)
        O              6.00    15.99900     O ( 1.00)

     12 Sym. Ops. (no inversion) found ( 6 have fractional translation)



   Cartesian axes

     site n.     atom                  positions (alat units)
         1           Zn  tau(   1) = (   0.5000000   0.2886751   0.8809402  )
         2           Zn  tau(   2) = (  -0.0000000   0.5773503   0.0011149  )
         3           O   tau(   3) = (   0.5000000   0.2886751   1.5479231  )
         4           O   tau(   4) = (  -0.0000000   0.5773503   0.6680978  )

     number of k points=    28
                       cart. coord. in units 2pi/alat
        k(    1) = (   0.0000000   0.0000000   0.0000000), wk =   0.0092593
        k(    2) = (   0.0000000   0.0000000   0.0947158), wk =   0.0185185
        k(    3) = (   0.0000000   0.0000000   0.1894315), wk =   0.0185185
        k(    4) = (   0.0000000   0.0000000  -0.2841473), wk =   0.0092593
        k(    5) = (   0.0000000   0.1924501   0.0000000), wk =   0.0555556
        k(    6) = (   0.0000000   0.1924501   0.0947158), wk =   0.1111111
        k(    7) = (   0.0000000   0.1924501   0.1894315), wk =   0.1111111
        k(    8) = (   0.0000000   0.1924501  -0.2841473), wk =   0.0555556
        k(    9) = (   0.0000000   0.3849002   0.0000000), wk =   0.0555556
        k(   10) = (   0.0000000   0.3849002   0.0947158), wk =   0.1111111
        k(   11) = (   0.0000000   0.3849002   0.1894315), wk =   0.1111111
        k(   12) = (   0.0000000   0.3849002  -0.2841473), wk =   0.0555556
        k(   13) = (   0.0000000  -0.5773503   0.0000000), wk =   0.0277778
        k(   14) = (   0.0000000  -0.5773503   0.0947158), wk =   0.0555556
        k(   15) = (   0.0000000  -0.5773503   0.1894315), wk =   0.0555556
        k(   16) = (   0.0000000  -0.5773503  -0.2841473), wk =   0.0277778
        k(   17) = (   0.1666667   0.2886751   0.0000000), wk =   0.0555556
        k(   18) = (   0.1666667   0.2886751   0.0947158), wk =   0.1111111
        k(   19) = (   0.1666667   0.2886751   0.1894315), wk =   0.1111111
        k(   20) = (   0.1666667   0.2886751  -0.2841473), wk =   0.0555556
        k(   21) = (   0.1666667   0.4811252   0.0000000), wk =   0.1111111
        k(   22) = (   0.1666667   0.4811252   0.0947158), wk =   0.2222222
        k(   23) = (   0.1666667   0.4811252   0.1894315), wk =   0.2222222
        k(   24) = (   0.1666667   0.4811252  -0.2841473), wk =   0.1111111
        k(   25) = (   0.3333333   0.5773503   0.0000000), wk =   0.0185185
        k(   26) = (   0.3333333   0.5773503   0.0947158), wk =   0.0370370
        k(   27) = (   0.3333333   0.5773503   0.1894315), wk =   0.0370370
        k(   28) = (   0.3333333   0.5773503  -0.2841473), wk =   0.0185185

     Dense  grid:    35397 G-vectors     FFT dimensions: (  36,  36,  64)

     Smooth grid:    12537 G-vectors     FFT dimensions: (  25,  25,  48)

     Estimated max dynamical RAM per process >      21.16 MB

     Estimated total dynamical RAM >     169.27 MB

     Check: negative core charge=   -0.000001

     Initial potential from superposition of free atoms

     starting charge      35.9925, renormalised to      36.0000
     Starting wfcs are   26 randomized atomic wfcs

     total cpu time spent up to now is        1.3 secs

     Self-consistent Calculation

     iteration #  1     ecut=    50.00 Ry     beta= 0.30
     Davidson diagonalization with overlap
     ethr =  1.00E-02,  avg # of iterations =  2.0

     total cpu time spent up to now is        2.0 secs

     total energy              =    -361.38098635 Ry
     estimated scf accuracy    <       0.67655521 Ry

     iteration #  2     ecut=    50.00 Ry     beta= 0.30
     Davidson diagonalization with overlap
     ethr =  1.88E-03,  avg # of iterations =  2.0

     total cpu time spent up to now is        2.7 secs

     total energy              =    -361.42481558 Ry
     estimated scf accuracy    <       0.13207002 Ry

     iteration #  3     ecut=    50.00 Ry     beta= 0.30
     Davidson diagonalization with overlap
     ethr =  3.67E-04,  avg # of iterations =  6.1

     total cpu time spent up to now is        3.9 secs

     total energy              =    -361.50178101 Ry
     estimated scf accuracy    <       0.08686625 Ry

     iteration #  4     ecut=    50.00 Ry     beta= 0.30
     Davidson diagonalization with overlap
     ethr =  2.41E-04,  avg # of iterations =  2.0

     total cpu time spent up to now is        4.6 secs

     total energy              =    -361.50438848 Ry
     estimated scf accuracy    <       0.02084375 Ry

     iteration #  5     ecut=    50.00 Ry     beta= 0.30
     Davidson diagonalization with overlap
     ethr =  5.79E-05,  avg # of iterations =  9.5

     total cpu time spent up to now is        6.4 secs

     total energy              =    -361.56826251 Ry
     estimated scf accuracy    <       0.45459195 Ry

     iteration #  6     ecut=    50.00 Ry     beta= 0.30
     Davidson diagonalization with overlap
     ethr =  5.79E-05,  avg # of iterations =  4.6

     total cpu time spent up to now is        7.3 secs

     total energy              =    -361.48345918 Ry
     estimated scf accuracy    <       0.24690239 Ry

     iteration #  7     ecut=    50.00 Ry     beta= 0.30
     Davidson diagonalization with overlap
     ethr =  5.79E-05,  avg # of iterations =  7.1

     total cpu time spent up to now is        8.7 secs

     total energy              =    -361.50882473 Ry
     estimated scf accuracy    <       0.01118086 Ry

     iteration #  8     ecut=    50.00 Ry     beta= 0.30
     Davidson diagonalization with overlap
     ethr =  3.11E-05,  avg # of iterations =  6.2

     total cpu time spent up to now is        9.9 secs

     total energy              =    -361.51509533 Ry
     estimated scf accuracy    <       0.00642570 Ry

     iteration #  9     ecut=    50.00 Ry     beta= 0.30
     Davidson diagonalization with overlap
     ethr =  1.78E-05,  avg # of iterations =  1.3

     total cpu time spent up to now is       10.5 secs

     total energy              =    -361.51346415 Ry
     estimated scf accuracy    <       0.00381286 Ry

     iteration # 10     ecut=    50.00 Ry     beta= 0.30
     Davidson diagonalization with overlap
     ethr =  1.06E-05,  avg # of iterations =  3.8

     total cpu time spent up to now is       11.4 secs

     total energy              =    -361.51414049 Ry
     estimated scf accuracy    <       0.00016712 Ry

     iteration # 11     ecut=    50.00 Ry     beta= 0.30
     Davidson diagonalization with overlap
     ethr =  4.64E-07,  avg # of iterations =  7.1

     total cpu time spent up to now is       12.8 secs

     total energy              =    -361.51452426 Ry
     estimated scf accuracy    <       0.00032090 Ry

     iteration # 12     ecut=    50.00 Ry     beta= 0.30
     Davidson diagonalization with overlap
     ethr =  4.64E-07,  avg # of iterations =  1.8

     total cpu time spent up to now is       13.4 secs

     total energy              =    -361.51444976 Ry
     estimated scf accuracy    <       0.00015627 Ry

     iteration # 13     ecut=    50.00 Ry     beta= 0.30
     Davidson diagonalization with overlap
     ethr =  4.34E-07,  avg # of iterations =  4.8

     total cpu time spent up to now is       14.4 secs

     total energy              =    -361.51452051 Ry
     estimated scf accuracy    <       0.00001144 Ry

     iteration # 14     ecut=    50.00 Ry     beta= 0.30
     Davidson diagonalization with overlap
     ethr =  3.18E-08,  avg # of iterations =  4.9

     total cpu time spent up to now is       15.3 secs

     total energy              =    -361.51452682 Ry
     estimated scf accuracy    <       0.00002269 Ry

     iteration # 15     ecut=    50.00 Ry     beta= 0.30
     Davidson diagonalization with overlap
     ethr =  3.18E-08,  avg # of iterations =  1.0

     total cpu time spent up to now is       15.9 secs

     total energy              =    -361.51452001 Ry
     estimated scf accuracy    <       0.00002460 Ry

     iteration # 16     ecut=    50.00 Ry     beta= 0.30
     Davidson diagonalization with overlap
     ethr =  3.18E-08,  avg # of iterations =  2.0

     total cpu time spent up to now is       16.5 secs

     total energy              =    -361.51451843 Ry
     estimated scf accuracy    <       0.00001209 Ry

     iteration # 17     ecut=    50.00 Ry     beta= 0.30
     Davidson diagonalization with overlap
     ethr =  3.18E-08,  avg # of iterations =  2.0

     total cpu time spent up to now is       17.2 secs

     total energy              =    -361.51451812 Ry
     estimated scf accuracy    <       0.00000423 Ry

     iteration # 18     ecut=    50.00 Ry     beta= 0.30
     Davidson diagonalization with overlap
     ethr =  1.18E-08,  avg # of iterations =  4.2

     total cpu time spent up to now is       18.1 secs

     total energy              =    -361.51451891 Ry
     estimated scf accuracy    <       0.00000033 Ry

     iteration # 19     ecut=    50.00 Ry     beta= 0.30
     Davidson diagonalization with overlap
     ethr =  9.29E-10,  avg # of iterations =  6.3

     total cpu time spent up to now is       19.3 secs

     total energy              =    -361.51451926 Ry
     estimated scf accuracy    <       0.00000017 Ry

     iteration # 20     ecut=    50.00 Ry     beta= 0.30
     Davidson diagonalization with overlap
     ethr =  4.66E-10,  avg # of iterations =  6.4

     total cpu time spent up to now is       20.6 secs

     total energy              =    -361.51451934 Ry
     estimated scf accuracy    <       0.00000028 Ry

     iteration # 21     ecut=    50.00 Ry     beta= 0.30
     Davidson diagonalization with overlap
     ethr =  4.66E-10,  avg # of iterations =  1.8

     total cpu time spent up to now is       21.2 secs

     total energy              =    -361.51451929 Ry
     estimated scf accuracy    <       0.00000012 Ry

     iteration # 22     ecut=    50.00 Ry     beta= 0.30
     Davidson diagonalization with overlap
     ethr =  3.45E-10,  avg # of iterations =  3.8

     total cpu time spent up to now is       22.1 secs

     End of self-consistent calculation

          k = 0.0000 0.0000 0.0000 (  1583 PWs)   bands (ev):

    -9.2958  -8.4059   3.0531   3.6816   3.6816   3.7580   3.8870   3.8870
     5.6776   5.6776   5.9244   5.9244   6.3898  10.0608  10.0608  10.3917
    10.8730  10.8730

          k = 0.0000 0.0000 0.0947 (  1588 PWs)   bands (ev):

    -9.2409  -8.4708   3.0692   3.6861   3.6915   3.6915   3.8689   3.8689
     5.6973   5.6973   5.9119   5.9119   6.6158   9.8326  10.1147  10.1147
    10.8183  10.8183

          k = 0.0000 0.0000 0.1894 (  1564 PWs)   bands (ev):

    -9.0878  -8.6438   3.1436   3.5060   3.7214   3.7214   3.8234   3.8234
     5.7501   5.7501   5.8752   5.8752   7.2175   8.9418  10.2626  10.2626
    10.6690  10.6690

          k = 0.0000 0.0000-0.2841 (  1558 PWs)   bands (ev):

    -8.8708  -8.8708   3.2997   3.2997   3.7686   3.7686   3.7686   3.7686
     5.8163   5.8163   5.8163   5.8163   8.0382   8.0382  10.4655  10.4655
    10.4655  10.4655

          k = 0.0000 0.1925 0.0000 (  1567 PWs)   bands (ev):

    -9.0601  -8.2720   3.2853   3.5287   3.7690   3.8085   3.9344   4.0572
     5.5558   5.6678   5.9351   6.0277   6.3194   8.9256   9.6242   9.7050
    10.2166  10.5920

          k = 0.0000 0.1925 0.0947 (  1563 PWs)   bands (ev):

    -9.0105  -8.3282   3.2398   3.4411   3.8198   3.8215   3.9216   4.0361
     5.5918   5.6878   5.9198   5.9758   6.6029   8.9725   9.5040   9.6898
    10.1049  10.5277

          k = 0.0000 0.1925 0.1894 (  1556 PWs)   bands (ev):

    -8.8727  -8.4791   3.1776   3.3073   3.8573   3.8592   3.9015   3.9826
     5.6820   5.7408   5.8751   5.8940   7.2700   8.8182   9.2790   9.8279
     9.8685  10.3519

          k = 0.0000 0.1925-0.2841 (  1560 PWs)   bands (ev):

    -8.6792  -8.6792   3.2007   3.2007   3.8789   3.8789   3.9169   3.9169
     5.7921   5.7921   5.8097   5.8097   8.0890   8.0890   9.5118   9.5118
    10.1109  10.1109

          k = 0.0000 0.3849 0.0000 (  1559 PWs)   bands (ev):

    -8.5298  -8.0203   3.0236   3.5009   4.0224   4.2212   4.4143   4.4540
     5.4146   5.7802   5.9725   6.0663   6.4016   7.0521   8.2806   8.7004
     9.5522   9.9706

          k = 0.0000 0.3849 0.0947 (  1564 PWs)   bands (ev):

    -8.4956  -8.0541   2.9988   3.3675   4.0465   4.2196   4.3827   4.4191
     5.4802   5.7917   5.9570   6.0670   6.6219   7.1426   8.2161   8.7914
     9.5045   9.8889

          k = 0.0000 0.3849 0.1894 (  1568 PWs)   bands (ev):

    -8.4020  -8.1468   2.9603   3.1355   4.1152   4.2254   4.3186   4.3291
     5.6303   5.8234   5.9174   5.9627   7.0855   7.3675   8.2079   9.0337
     9.2354   9.6644

          k = 0.0000 0.3849-0.2841 (  1578 PWs)   bands (ev):

    -8.2742  -8.2742   2.9880   2.9880   4.2168   4.2168   4.2590   4.2590
     5.8034   5.8034   5.8685   5.8685   7.3620   7.3620   8.6784   8.6784
     9.3533   9.3533

          k = 0.0000-0.5774 0.0000 (  1564 PWs)   bands (ev):

    -8.1998  -7.9349   3.1616   3.1635   4.0963   4.5137   4.6444   4.6929
     5.6637   5.9394   6.0252   6.1473   6.2816   6.5277   7.3609   8.1628
     8.9859   9.6151

          k = 0.0000-0.5774 0.0947 (  1566 PWs)   bands (ev):

    -8.1802  -7.9505   3.0952   3.1075   4.1285   4.4926   4.6162   4.6425
     5.7439   5.9424   6.0137   6.1393   6.2971   6.4917   7.5885   8.2726
     9.0161   9.5244

          k = 0.0000-0.5774 0.1894 (  1568 PWs)   bands (ev):

    -8.1278  -7.9949   2.9759   2.9937   4.2210   4.4777   4.5148   4.5560
     5.8906   5.9517   5.9898   6.0988   6.3370   6.4342   8.1209   8.5581
     8.9783   9.2743

          k = 0.0000-0.5774-0.2841 (  1568 PWs)   bands (ev):

    -8.0594  -8.0594   2.9294   2.9294   4.3593   4.3593   4.5021   4.5021
     5.9674   5.9674   6.0151   6.0151   6.3841   6.3841   8.6694   8.6694
     8.9244   8.9244

          k = 0.1667 0.2887 0.0000 (  1562 PWs)   bands (ev):

    -8.6746  -8.0792   3.2323   3.5110   3.9389   4.0187   4.1880   4.3865
     5.4457   5.6894   5.9547   6.1534   6.3391   7.8008   8.3374   8.8324
     9.8337   9.9395

          k = 0.1667 0.2887 0.0947 (  1561 PWs)   bands (ev):

    -8.6355  -8.1197   3.1990   3.3946   3.9268   4.0035   4.2095   4.3638
     5.5006   5.7248   5.9390   6.0846   6.6463   7.8864   8.3292   8.8229
     9.7445   9.8527

          k = 0.1667 0.2887 0.1894 (  1575 PWs)   bands (ev):

    -8.5280  -8.2300   3.1307   3.2015   3.9372   3.9785   4.2266   4.3081
     5.6370   5.7815   5.8972   5.9623   7.2958   8.1607   8.1833   8.9141
     9.4252   9.6220

          k = 0.1667 0.2887-0.2841 (  1572 PWs)   bands (ev):

    -8.3797  -8.3797   3.1081   3.1081   3.9589   3.9589   4.2536   4.2536
     5.8007   5.8007   5.8448   5.8448   7.8544   7.8544   8.6741   8.6741
     9.3410   9.3410

          k = 0.1667 0.4811 0.0000 (  1558 PWs)   bands (ev):

    -8.2152  -7.9303   3.2833   3.5085   4.0504   4.3598   4.6445   4.6800
     5.5043   5.7000   6.0514   6.1761   6.4395   6.9126   7.2520   7.7638
     8.9359   9.2949

          k = 0.1667 0.4811 0.0947 (  1561 PWs)   bands (ev):

    -8.1943  -7.9474   3.2453   3.4291   4.0383   4.3054   4.6052   4.6489
     5.5508   5.8052   6.0476   6.2636   6.3558   6.9882   7.3564   7.8635
     8.9169   9.2411

          k = 0.1667 0.4811 0.1894 (  1561 PWs)   bands (ev):

    -8.1385  -7.9957   3.1722   3.2643   4.0503   4.2085   4.5612   4.5877
     5.6864   5.8686   6.0513   6.2066   6.5030   6.9283   7.7483   8.1502
     8.7696   9.1172

          k = 0.1667 0.4811-0.2841 (  1572 PWs)   bands (ev):

    -8.0653  -8.0653   3.1596   3.1596   4.1160   4.1160   4.5521   4.5521
     5.8199   5.8199   6.0942   6.0942   6.7432   6.7432   8.1559   8.1559
     8.8485   8.8485

          k = 0.3333 0.5774 0.0000 (  1566 PWs)   bands (ev):

    -7.9727  -7.9727   3.4830   4.0011   4.2216   4.2216   4.8977   4.8977
     5.4415   5.6084   5.6084   5.6449   6.5763   6.8769   6.8769   8.3143
     8.3189   8.3189

          k = 0.3333 0.5774 0.0947 (  1560 PWs)   bands (ev):

    -7.9702  -7.9702   3.5082   3.9506   4.0659   4.0659   4.8916   4.8916
     5.4624   5.6344   5.7872   5.7872   6.6861   6.8134   6.8134   8.1835
     8.4389   8.4389

          k = 0.3333 0.5774 0.1894 (  1563 PWs)   bands (ev):

    -7.9650  -7.9650   3.5813   3.8222   3.8222   3.8302   4.8840   4.8840
     5.5091   5.6045   6.1080   6.1080   6.6570   6.6570   6.9866   7.8424
     8.6790   8.6790

          k = 0.3333 0.5774-0.2841 (  1560 PWs)   bands (ev):

    -7.9624  -7.9624   3.6948   3.6948   3.7203   3.7203   4.8808   4.8808
     5.5603   5.5603   6.3296   6.3296   6.4995   6.4995   7.4049   7.4049
     8.8004   8.8004

     highest occupied level (ev):    10.8730

!    total energy              =    -361.51451933 Ry
     estimated scf accuracy    <          1.0E-10 Ry

     The total energy is the sum of the following terms:
     one-electron contribution =    -127.81717078 Ry
     hartree contribution      =     109.12273825 Ry
     xc contribution           =    -110.09245817 Ry
     ewald contribution        =    -232.72762864 Ry

     convergence has been achieved in  22 iterations

     Forces acting on atoms (cartesian axes, Ry/au):

     atom    1 type  1   force =     0.00000000    0.00000000    0.06781803
     atom    2 type  1   force =     0.00000000    0.00000000    0.06781803
     atom    3 type  2   force =     0.00000000    0.00000000   -0.06781803
     atom    4 type  2   force =     0.00000000    0.00000000   -0.06781803
     The non-local contrib.  to forces
     atom    1 type  1   force =     0.00000000    0.00000000    0.26161381
     atom    2 type  1   force =    -0.00000000    0.00000000    0.26161381
     atom    3 type  2   force =     0.00000000    0.00000000    0.19753826
     atom    4 type  2   force =     0.00000000   -0.00000000    0.19753826
     The ionic contribution  to forces
     atom    1 type  1   force =    -0.00000000    0.00000000    2.15411421
     atom    2 type  1   force =     0.00000000   -0.00000000    2.15411421
     atom    3 type  2   force =    -0.00000000    0.00000000   -2.15411421
     atom    4 type  2   force =     0.00000000   -0.00000000   -2.15411421
     The local contribution  to forces
     atom    1 type  1   force =    -0.00000002    0.00000001   -2.32519910
     atom    2 type  1   force =     0.00000006   -0.00000003   -2.32519910
     atom    3 type  2   force =    -0.00000000    0.00000000    1.89006326
     atom    4 type  2   force =     0.00000001   -0.00000001    1.89006326
     The core correction contribution to forces
     atom    1 type  1   force =    -0.00000000    0.00000000   -0.02270353
     atom    2 type  1   force =     0.00000001   -0.00000000   -0.02270353
     atom    3 type  2   force =     0.00000000   -0.00000000   -0.00130226
     atom    4 type  2   force =    -0.00000000    0.00000000   -0.00130226
     The Hubbard contrib.    to forces
     atom    1 type  1   force =     0.00000000    0.00000000    0.00000000
     atom    2 type  1   force =     0.00000000    0.00000000    0.00000000
     atom    3 type  2   force =     0.00000000    0.00000000    0.00000000
     atom    4 type  2   force =     0.00000000    0.00000000    0.00000000
     The SCF correction term to forces
     atom    1 type  1   force =    -0.00000000    0.00000000   -0.00000128
     atom    2 type  1   force =     0.00000000   -0.00000000   -0.00000128
     atom    3 type  2   force =    -0.00000000    0.00000000    0.00000298
     atom    4 type  2   force =     0.00000000   -0.00000000    0.00000298

     Total force =     0.135636     Total SCF correction =     0.000005


     Computing stress (Cartesian axis) and pressure

          total   stress  (Ry/bohr**3)                   (kbar)     P=      537.31
   0.00449292   0.00000000   0.00000000          660.93        0.00        0.00
   0.00000000   0.00449292   0.00000000            0.00      660.93        0.00
   0.00000000   0.00000000   0.00197188            0.00        0.00      290.07


     Writing all to output data dir ./ZnO_ANN.save/

     init_run     :      1.41s CPU      0.98s WALL (       1 calls)
     electrons    :     55.63s CPU     20.76s WALL (       1 calls)
     forces       :      0.58s CPU      0.25s WALL (       1 calls)
     stress       :      1.88s CPU      0.90s WALL (       1 calls)

     Called by init_run:
     wfcinit      :      0.73s CPU      0.29s WALL (       1 calls)
     potinit      :      0.18s CPU      0.18s WALL (       1 calls)
     hinit0       :      0.41s CPU      0.41s WALL (       1 calls)

     Called by electrons:
     c_bands      :     45.70s CPU     16.85s WALL (      22 calls)
     sum_band     :      7.16s CPU      2.78s WALL (      22 calls)
     v_of_rho     :      0.56s CPU      0.26s WALL (      23 calls)
     newd         :      2.06s CPU      0.84s WALL (      23 calls)
     mix_rho      :      0.10s CPU      0.05s WALL (      22 calls)

     Called by c_bands:
     init_us_2    :      0.74s CPU      0.26s WALL (    1316 calls)
     init_us_2:cp :      0.73s CPU      0.26s WALL (    1316 calls)
     cegterg      :     44.01s CPU     16.20s WALL (     616 calls)

     Called by *egterg:
     cdiaghg      :      8.80s CPU      2.99s WALL (    3150 calls)
     h_psi        :     28.00s CPU     11.30s WALL (    3178 calls)
     s_psi        :      0.80s CPU      0.25s WALL (    3178 calls)
     g_psi        :      0.24s CPU      0.06s WALL (    2534 calls)

     Called by h_psi:
     h_psi:calbec :      1.09s CPU      0.42s WALL (    3178 calls)
     vloc_psi     :     25.84s CPU     10.52s WALL (    3178 calls)
     add_vuspsi   :      0.80s CPU      0.27s WALL (    3178 calls)

     General routines
     calbec       :      1.43s CPU      0.54s WALL (    3934 calls)
     fft          :      0.54s CPU      0.33s WALL (     322 calls)
     ffts         :      0.11s CPU      0.09s WALL (      45 calls)
     fftw         :     25.38s CPU     10.37s WALL (   87160 calls)
     interpolate  :      0.12s CPU      0.10s WALL (      23 calls)

     Parallel routines

     PWSCF        :   1m 0.02s CPU     23.35s WALL


   This run was terminated on:  15:22:42  13Jun2025            

=------------------------------------------------------------------------------=
   JOB DONE.
=------------------------------------------------------------------------------=
Note: The following floating-point exceptions are signalling: IEEE_INVALID_FLAG
