Authorization required, but no authorization protocol specified

Authorization required, but no authorization protocol specified

Authorization required, but no authorization protocol specified

Authorization required, but no authorization protocol specified

Authorization required, but no authorization protocol specified

Authorization required, but no authorization protocol specified

Authorization required, but no authorization protocol specified

Authorization required, but no authorization protocol specified

Authorization required, but no authorization protocol specified

Authorization required, but no authorization protocol specified


     Program PWSCF v.7.2 starts on 13Jun2025 at 15:46:34 

     This program is part of the open-source Quantum ESPRESSO suite
     for quantum simulation of materials; please cite
         "P. Giannozzi et al., J. Phys.:Condens. Matter 21 395502 (2009);
         "P. Giannozzi et al., J. Phys.:Condens. Matter 29 465901 (2017);
         "P. Giannozzi et al., J. Chem. Phys. 152 154105 (2020);
          URL http://www.quantum-espresso.org", 
     in publications or presentations arising from this work. More details at
     http://www.quantum-espresso.org/quote

     Parallel version (MPI), running on     8 processors

     MPI processes distributed on     1 nodes
     120723 MiB available memory on the printing compute node when the environment starts

     Reading input from /home/jvc/QEspresso7.2/ZnO_database_python/SCFs.in/scf-5.75-1.65.in

     Current dimensions of program PWSCF are:
     Max number of different atomic species (ntypx) = 10
     Max number of k-points (npk) =  40000
     Max angular momentum in pseudopotentials (lmaxx) =  4
     file Zn.upf: wavefunction(s)  3D renormalized

     R & G space division:  proc/nbgrp/npool/nimage =       8
     Subspace diagonalization in iterative solution of the eigenvalue problem:
     a serial algorithm will be used


     Parallelization info
     --------------------
     sticks:   dense  smooth     PW     G-vecs:    dense   smooth      PW
     Min         114      56     17                 4576     1610     277
     Max         115      57     18                 4583     1615     282
     Sum         913     451    139                36625    12901    2237

     Using Slab Decomposition



     bravais-lattice index     =            4
     lattice parameter (alat)  =       5.7463  a.u.
     unit-cell volume          =     270.5805 (a.u.)^3
     number of atoms/cell      =            4
     number of atomic types    =            2
     number of electrons       =        36.00
     number of Kohn-Sham states=           18
     kinetic-energy cutoff     =      50.0000  Ry
     charge density cutoff     =     400.0000  Ry
     scf convergence threshold =      1.0E-08
     mixing beta               =       0.3000
     number of iterations used =            8  plain     mixing
     Exchange-correlation= PBE
                           (   1   4   3   4   0   0   0)

     celldm(1)=   5.746304  celldm(2)=   0.000000  celldm(3)=   1.646646
     celldm(4)=   0.000000  celldm(5)=   0.000000  celldm(6)=   0.000000

     crystal axes: (cart. coord. in units of alat)
               a(1) = (   1.000000   0.000000   0.000000 )  
               a(2) = (  -0.500000   0.866025   0.000000 )  
               a(3) = (   0.000000   0.000000   1.646646 )  

     reciprocal axes: (cart. coord. in units 2 pi/alat)
               b(1) = (  1.000000  0.577350 -0.000000 )  
               b(2) = (  0.000000  1.154701  0.000000 )  
               b(3) = (  0.000000 -0.000000  0.607295 )  


     PseudoPot. # 1 for Zn read from file:
     /home/jvc/QEspresso7.2/ZnO_database/pseudos/Zn.upf
     MD5 check sum: 7f56cabf9682ed8c977c2f7d0c5985c5
     Pseudo is Ultrasoft + core correction, Zval = 12.0
     Generated using &quot;atomic&quot; code by A. Dal Corso  v.6.2.2
     Using radial grid of 1201 points,  6 beta functions with: 
                l(1) =   0
                l(2) =   0
                l(3) =   1
                l(4) =   1
                l(5) =   2
                l(6) =   2
     Q(r) pseudized with 0 coefficients 


     PseudoPot. # 2 for O  read from file:
     /home/jvc/QEspresso7.2/ZnO_database/pseudos/O.upf
     MD5 check sum: 91400c9766925bcf19f520983a725ff0
     Pseudo is Ultrasoft + core correction, Zval =  6.0
     Generated using &quot;atomic&quot; code by A. Dal Corso  v.6.3MaX
     Using radial grid of 1095 points,  4 beta functions with: 
                l(1) =   0
                l(2) =   0
                l(3) =   1
                l(4) =   1
     Q(r) pseudized with 0 coefficients 


     atomic species   valence    mass     pseudopotential
        Zn            12.00    63.38000     Zn( 1.00)
        O              6.00    15.99900     O ( 1.00)

     12 Sym. Ops. (no inversion) found ( 6 have fractional translation)



   Cartesian axes

     site n.     atom                  positions (alat units)
         1           Zn  tau(   1) = (   0.5000000   0.2886751   0.8243661  )
         2           Zn  tau(   2) = (  -0.0000000   0.5773503   0.0010433  )
         3           O   tau(   3) = (   0.5000000   0.2886751   1.4485152  )
         4           O   tau(   4) = (  -0.0000000   0.5773503   0.6251925  )

     number of k points=    28
                       cart. coord. in units 2pi/alat
        k(    1) = (   0.0000000   0.0000000   0.0000000), wk =   0.0092593
        k(    2) = (   0.0000000   0.0000000   0.1012159), wk =   0.0185185
        k(    3) = (   0.0000000   0.0000000   0.2024317), wk =   0.0185185
        k(    4) = (   0.0000000   0.0000000  -0.3036476), wk =   0.0092593
        k(    5) = (   0.0000000   0.1924501   0.0000000), wk =   0.0555556
        k(    6) = (   0.0000000   0.1924501   0.1012159), wk =   0.1111111
        k(    7) = (   0.0000000   0.1924501   0.2024317), wk =   0.1111111
        k(    8) = (   0.0000000   0.1924501  -0.3036476), wk =   0.0555556
        k(    9) = (   0.0000000   0.3849002   0.0000000), wk =   0.0555556
        k(   10) = (   0.0000000   0.3849002   0.1012159), wk =   0.1111111
        k(   11) = (   0.0000000   0.3849002   0.2024317), wk =   0.1111111
        k(   12) = (   0.0000000   0.3849002  -0.3036476), wk =   0.0555556
        k(   13) = (   0.0000000  -0.5773503   0.0000000), wk =   0.0277778
        k(   14) = (   0.0000000  -0.5773503   0.1012159), wk =   0.0555556
        k(   15) = (   0.0000000  -0.5773503   0.2024317), wk =   0.0555556
        k(   16) = (   0.0000000  -0.5773503  -0.3036476), wk =   0.0277778
        k(   17) = (   0.1666667   0.2886751   0.0000000), wk =   0.0555556
        k(   18) = (   0.1666667   0.2886751   0.1012159), wk =   0.1111111
        k(   19) = (   0.1666667   0.2886751   0.2024317), wk =   0.1111111
        k(   20) = (   0.1666667   0.2886751  -0.3036476), wk =   0.0555556
        k(   21) = (   0.1666667   0.4811252   0.0000000), wk =   0.1111111
        k(   22) = (   0.1666667   0.4811252   0.1012159), wk =   0.2222222
        k(   23) = (   0.1666667   0.4811252   0.2024317), wk =   0.2222222
        k(   24) = (   0.1666667   0.4811252  -0.3036476), wk =   0.1111111
        k(   25) = (   0.3333333   0.5773503   0.0000000), wk =   0.0185185
        k(   26) = (   0.3333333   0.5773503   0.1012159), wk =   0.0370370
        k(   27) = (   0.3333333   0.5773503   0.2024317), wk =   0.0370370
        k(   28) = (   0.3333333   0.5773503  -0.3036476), wk =   0.0185185

     Dense  grid:    36625 G-vectors     FFT dimensions: (  40,  40,  64)

     Smooth grid:    12901 G-vectors     FFT dimensions: (  25,  25,  48)

     Estimated max dynamical RAM per process >      21.92 MB

     Estimated total dynamical RAM >     175.35 MB

     Check: negative core charge=   -0.000002

     Initial potential from superposition of free atoms

     starting charge      35.9925, renormalised to      36.0000
     Starting wfcs are   26 randomized atomic wfcs

     total cpu time spent up to now is        1.4 secs

     Self-consistent Calculation

     iteration #  1     ecut=    50.00 Ry     beta= 0.30
     Davidson diagonalization with overlap
     ethr =  1.00E-02,  avg # of iterations =  2.0

     total cpu time spent up to now is        2.0 secs

     total energy              =    -361.42409951 Ry
     estimated scf accuracy    <       0.67338038 Ry

     iteration #  2     ecut=    50.00 Ry     beta= 0.30
     Davidson diagonalization with overlap
     ethr =  1.87E-03,  avg # of iterations =  2.0

     total cpu time spent up to now is        2.8 secs

     total energy              =    -361.47241386 Ry
     estimated scf accuracy    <       0.12769106 Ry

     iteration #  3     ecut=    50.00 Ry     beta= 0.30
     Davidson diagonalization with overlap
     ethr =  3.55E-04,  avg # of iterations =  6.2

     total cpu time spent up to now is        4.1 secs

     total energy              =    -361.54727038 Ry
     estimated scf accuracy    <       0.09337477 Ry

     iteration #  4     ecut=    50.00 Ry     beta= 0.30
     Davidson diagonalization with overlap
     ethr =  2.59E-04,  avg # of iterations =  2.0

     total cpu time spent up to now is        4.7 secs

     total energy              =    -361.54862458 Ry
     estimated scf accuracy    <       0.02234592 Ry

     iteration #  5     ecut=    50.00 Ry     beta= 0.30
     Davidson diagonalization with overlap
     ethr =  6.21E-05,  avg # of iterations =  9.6

     total cpu time spent up to now is        6.6 secs

     total energy              =    -361.61418734 Ry
     estimated scf accuracy    <       0.48887591 Ry

     iteration #  6     ecut=    50.00 Ry     beta= 0.30
     Davidson diagonalization with overlap
     ethr =  6.21E-05,  avg # of iterations =  4.9

     total cpu time spent up to now is        7.6 secs

     total energy              =    -361.51494771 Ry
     estimated scf accuracy    <       0.25112123 Ry

     iteration #  7     ecut=    50.00 Ry     beta= 0.30
     Davidson diagonalization with overlap
     ethr =  6.21E-05,  avg # of iterations =  7.6

     total cpu time spent up to now is        9.1 secs

     total energy              =    -361.55981801 Ry
     estimated scf accuracy    <       0.00116153 Ry

     iteration #  8     ecut=    50.00 Ry     beta= 0.30
     Davidson diagonalization with overlap
     ethr =  3.23E-06,  avg # of iterations =  9.0

     total cpu time spent up to now is       10.9 secs

     total energy              =    -361.56094767 Ry
     estimated scf accuracy    <       0.00997896 Ry

     iteration #  9     ecut=    50.00 Ry     beta= 0.30
     Davidson diagonalization with overlap
     ethr =  3.23E-06,  avg # of iterations =  4.8

     total cpu time spent up to now is       11.9 secs

     total energy              =    -361.56005362 Ry
     estimated scf accuracy    <       0.00267545 Ry

     iteration # 10     ecut=    50.00 Ry     beta= 0.30
     Davidson diagonalization with overlap
     ethr =  3.23E-06,  avg # of iterations =  6.0

     total cpu time spent up to now is       13.2 secs

     total energy              =    -361.56090648 Ry
     estimated scf accuracy    <       0.00011760 Ry

     iteration # 11     ecut=    50.00 Ry     beta= 0.30
     Davidson diagonalization with overlap
     ethr =  3.27E-07,  avg # of iterations =  3.4

     total cpu time spent up to now is       13.9 secs

     total energy              =    -361.56091912 Ry
     estimated scf accuracy    <       0.00003615 Ry

     iteration # 12     ecut=    50.00 Ry     beta= 0.30
     Davidson diagonalization with overlap
     ethr =  1.00E-07,  avg # of iterations =  4.2

     total cpu time spent up to now is       14.8 secs

     total energy              =    -361.56093786 Ry
     estimated scf accuracy    <       0.00000460 Ry

     iteration # 13     ecut=    50.00 Ry     beta= 0.30
     Davidson diagonalization with overlap
     ethr =  1.28E-08,  avg # of iterations =  6.0

     total cpu time spent up to now is       16.0 secs

     total energy              =    -361.56092258 Ry
     estimated scf accuracy    <       0.00003615 Ry

     iteration # 14     ecut=    50.00 Ry     beta= 0.30
     Davidson diagonalization with overlap
     ethr =  1.28E-08,  avg # of iterations =  7.6

     total cpu time spent up to now is       17.5 secs

     total energy              =    -361.56093100 Ry
     estimated scf accuracy    <       0.00000035 Ry

     iteration # 15     ecut=    50.00 Ry     beta= 0.30
     Davidson diagonalization with overlap
     ethr =  9.61E-10,  avg # of iterations =  5.5

     total cpu time spent up to now is       18.6 secs

     total energy              =    -361.56093092 Ry
     estimated scf accuracy    <       0.00000128 Ry

     iteration # 16     ecut=    50.00 Ry     beta= 0.30
     Davidson diagonalization with overlap
     ethr =  9.61E-10,  avg # of iterations =  2.0

     total cpu time spent up to now is       19.2 secs

     total energy              =    -361.56093056 Ry
     estimated scf accuracy    <       0.00000077 Ry

     iteration # 17     ecut=    50.00 Ry     beta= 0.30
     Davidson diagonalization with overlap
     ethr =  9.61E-10,  avg # of iterations =  5.9

     total cpu time spent up to now is       20.4 secs

     total energy              =    -361.56093085 Ry
     estimated scf accuracy    <       0.00000002 Ry

     iteration # 18     ecut=    50.00 Ry     beta= 0.30
     Davidson diagonalization with overlap
     ethr =  6.52E-11,  avg # of iterations =  7.0

     total cpu time spent up to now is       21.8 secs

     total energy              =    -361.56093078 Ry
     estimated scf accuracy    <       0.00000024 Ry

     iteration # 19     ecut=    50.00 Ry     beta= 0.30
     Davidson diagonalization with overlap
     ethr =  6.52E-11,  avg # of iterations =  7.0

     total cpu time spent up to now is       23.2 secs

     End of self-consistent calculation

          k = 0.0000 0.0000 0.0000 (  1641 PWs)   bands (ev):

    -9.5298  -8.5548   2.9415   3.3909   3.3909   3.4633   3.6294   3.6294
     5.1863   5.1863   5.4783   5.4783   5.8555   9.2232   9.2232   9.9556
    10.1752  10.1752

          k = 0.0000 0.0000 0.1012 (  1617 PWs)   bands (ev):

    -9.4692  -8.6252   2.9089   3.3838   3.4004   3.4004   3.6062   3.6062
     5.2127   5.2127   5.4665   5.4665   6.1347   9.2871   9.2871   9.4261
    10.1120  10.1120

          k = 0.0000 0.0000 0.2024 (  1635 PWs)   bands (ev):

    -9.3004  -8.8136   2.8969   3.1921   3.4301   3.4301   3.5478   3.5478
     5.2788   5.2788   5.4270   5.4270   6.8296   8.5874   9.4617   9.4617
     9.9386   9.9386

          k = 0.0000 0.0000-0.3036 (  1594 PWs)   bands (ev):

    -9.0618  -9.0618   2.9983   2.9983   3.4823   3.4823   3.4823   3.4823
     5.3601   5.3601   5.3601   5.3601   7.7000   7.7000   9.7005   9.7005
     9.7005   9.7005

          k = 0.0000 0.1925 0.0000 (  1637 PWs)   bands (ev):

    -9.3215  -8.4572   3.0852   3.2984   3.5008   3.5177   3.6439   3.7869
     5.0862   5.1811   5.4940   5.5604   5.8217   8.1889   8.7945   9.0526
     9.7379   9.9263

          k = 0.0000 0.1925 0.1012 (  1632 PWs)   bands (ev):

    -9.2665  -8.5180   3.0177   3.1721   3.5132   3.5436   3.6418   3.7599
     5.1293   5.2061   5.4777   5.5256   6.1465   8.2580   8.8697   8.8724
     9.6424   9.8523

          k = 0.0000 0.1925 0.2024 (  1618 PWs)   bands (ev):

    -9.1142  -8.6820   2.8984   3.0083   3.5490   3.5520   3.6179   3.6930
     5.2324   5.2718   5.4292   5.4557   6.8843   8.2942   8.6010   9.0836
     9.3196   9.6490

          k = 0.0000 0.1925-0.3036 (  1620 PWs)   bands (ev):

    -8.9010  -8.9010   2.8927   2.8927   3.5755   3.5755   3.6156   3.6156
     5.3523   5.3523   5.3546   5.3546   7.6942   7.6942   8.8955   8.8955
     9.3682   9.3682

          k = 0.0000 0.3849 0.0000 (  1617 PWs)   bands (ev):

    -8.8485  -8.2870   2.8201   3.2818   3.6826   3.8340   4.1288   4.1701
     4.9854   5.2898   5.5246   5.5313   6.0053   6.5243   7.6950   7.8967
     9.0761   9.3745

          k = 0.0000 0.3849 0.1012 (  1610 PWs)   bands (ev):

    -8.8100  -8.3232   2.7779   3.1215   3.7076   3.8232   4.0569   4.1275
     5.0594   5.3041   5.5053   5.5964   6.1945   6.6581   7.6246   8.0067
     9.0800   9.2817

          k = 0.0000 0.3849 0.2024 (  1621 PWs)   bands (ev):

    -8.7050  -8.4234   2.7001   2.8517   3.7801   3.8223   3.9478   4.0199
     5.2151   5.3429   5.4569   5.5308   6.5742   6.9469   7.7059   8.2947
     8.8956   9.0256

          k = 0.0000 0.3849-0.3036 (  1616 PWs)   bands (ev):

    -8.5630  -8.5630   2.6990   2.6990   3.8640   3.8640   3.8917   3.8917
     5.3850   5.3850   5.3980   5.3980   6.8457   6.8457   8.3449   8.3449
     8.6677   8.6677

          k = 0.0000-0.5774 0.0000 (  1598 PWs)   bands (ev):

    -8.5462  -8.2501   2.9355   2.9868   3.7440   4.0543   4.2628   4.4178
     5.2009   5.4380   5.5532   5.6532   5.9238   6.1492   6.8107   7.3748
     8.5427   9.0625

          k = 0.0000-0.5774 0.1012 (  1608 PWs)   bands (ev):

    -8.5233  -8.2665   2.8636   2.8877   3.7778   4.0304   4.2183   4.3565
     5.2886   5.4416   5.5348   5.6521   5.9332   6.0845   7.1120   7.5104
     8.6135   8.9605

          k = 0.0000-0.5774 0.2024 (  1606 PWs)   bands (ev):

    -8.4627  -8.3139   2.7126   2.7187   3.8763   4.0200   4.1304   4.2052
     5.4396   5.4527   5.5006   5.6278   5.9529   6.0142   7.7510   7.8527
     8.6482   8.6780

          k = 0.0000-0.5774-0.3036 (  1624 PWs)   bands (ev):

    -8.3850  -8.3850   2.6405   2.6405   4.0279   4.0279   4.0563   4.0563
     5.4716   5.4716   5.5581   5.5581   5.9760   5.9760   8.2787   8.2787
     8.3584   8.3584

          k = 0.1667 0.2887 0.0000 (  1621 PWs)   bands (ev):

    -8.9785  -8.3237   2.9978   3.2660   3.6805   3.6913   3.9019   4.0850
     4.9993   5.2013   5.5121   5.5939   5.9502   7.1722   7.6380   8.1965
     9.3250   9.3434

          k = 0.1667 0.2887 0.1012 (  1623 PWs)   bands (ev):

    -8.9348  -8.3672   2.9495   3.1351   3.6520   3.6641   3.8910   4.0511
     5.0602   5.2487   5.4936   5.6070   6.2276   7.2819   7.6712   8.1513
     9.2453   9.2907

          k = 0.1667 0.2887 0.2024 (  1619 PWs)   bands (ev):

    -8.8149  -8.4866   2.8472   2.9042   3.6435   3.6468   3.8711   3.9703
     5.2053   5.3133   5.4463   5.5236   6.8467   7.5794   7.6690   8.2515
     8.9829   9.0302

          k = 0.1667 0.2887-0.3036 (  1618 PWs)   bands (ev):

    -8.6507  -8.6507   2.8004   2.8004   3.6475   3.6475   3.8937   3.8937
     5.3613   5.3613   5.3954   5.3954   7.2952   7.2952   8.3144   8.3144
     8.6801   8.6801

          k = 0.1667 0.4811 0.0000 (  1615 PWs)   bands (ev):

    -8.5599  -8.2439   3.0525   3.2918   3.6896   3.9388   4.3176   4.4041
     5.0821   5.2120   5.5675   5.6646   5.9301   6.4896   6.6892   7.1726
     8.4691   8.7569

          k = 0.1667 0.4811 0.1012 (  1604 PWs)   bands (ev):

    -8.5358  -8.2617   2.9953   3.1818   3.6781   3.9002   4.2491   4.3340
     5.1207   5.3361   5.5603   5.7694   5.8704   6.5547   6.8088   7.3200
     8.4525   8.7312

          k = 0.1667 0.4811 0.2024 (  1609 PWs)   bands (ev):

    -8.4718  -8.3131   2.8785   2.9623   3.6979   3.8373   4.1712   4.2187
     5.2496   5.3920   5.5671   5.7364   6.0343   6.4620   7.2199   7.7535
     8.2416   8.7114

          k = 0.1667 0.4811-0.3036 (  1610 PWs)   bands (ev):

    -8.3893  -8.3893   2.8395   2.8395   3.7657   3.7657   4.1545   4.1545
     5.3584   5.3584   5.6245   5.6245   6.2725   6.2725   7.6715   7.6715
     8.4491   8.4491

          k = 0.3333 0.5774 0.0000 (  1608 PWs)   bands (ev):

    -8.3196  -8.3196   3.2466   3.7715   3.7715   3.8592   4.5304   4.5304
     5.0272   5.1778   5.1778   5.2424   5.9322   6.3775   6.3775   7.8123
     7.8123   7.9277

          k = 0.3333 0.5774 0.1012 (  1620 PWs)   bands (ev):

    -8.3156  -8.3156   3.2730   3.6110   3.6110   3.7906   4.4692   4.4692
     5.0501   5.2303   5.3845   5.3845   6.0682   6.3173   6.3173   7.7826
     7.9748   7.9748

          k = 0.3333 0.5774 0.2024 (  1617 PWs)   bands (ev):

    -8.3076  -8.3076   3.3433   3.3433   3.3515   3.6378   4.4196   4.4196
     5.0983   5.1979   5.7056   5.7056   6.1759   6.1759   6.4281   7.4028
     8.2979   8.2979

          k = 0.3333 0.5774-0.3036 (  1614 PWs)   bands (ev):

    -8.3035  -8.3035   3.2282   3.2282   3.4781   3.4781   4.4054   4.4054
     5.1511   5.1511   5.9231   5.9231   6.0227   6.0227   6.9102   6.9102
     8.4605   8.4605

     highest occupied level (ev):    10.1752

!    total energy              =    -361.56093080 Ry
     estimated scf accuracy    <          8.4E-09 Ry

     The total energy is the sum of the following terms:
     one-electron contribution =    -131.15789040 Ry
     hartree contribution      =     110.18041070 Ry
     xc contribution           =    -110.00092392 Ry
     ewald contribution        =    -230.58252717 Ry

     convergence has been achieved in  19 iterations

     Forces acting on atoms (cartesian axes, Ry/au):

     atom    1 type  1   force =     0.00000000   -0.00000000    0.01621782
     atom    2 type  1   force =     0.00000000    0.00000000    0.01621782
     atom    3 type  2   force =     0.00000000    0.00000000   -0.01621782
     atom    4 type  2   force =     0.00000000    0.00000000   -0.01621782
     The non-local contrib.  to forces
     atom    1 type  1   force =     0.00000000    0.00000000    0.05593535
     atom    2 type  1   force =    -0.00000000   -0.00000000    0.05593535
     atom    3 type  2   force =    -0.00000000    0.00000000    0.04675892
     atom    4 type  2   force =    -0.00000000   -0.00000000    0.04675892
     The ionic contribution  to forces
     atom    1 type  1   force =    -0.00000000    0.00000000    0.53768668
     atom    2 type  1   force =     0.00000000   -0.00000000    0.53768668
     atom    3 type  2   force =    -0.00000000    0.00000000   -0.53768668
     atom    4 type  2   force =     0.00000000   -0.00000000   -0.53768668
     The local contribution  to forces
     atom    1 type  1   force =    -0.00000002    0.00000001   -0.57282307
     atom    2 type  1   force =     0.00000006   -0.00000003   -0.57282307
     atom    3 type  2   force =    -0.00000001    0.00000000    0.47502905
     atom    4 type  2   force =     0.00000002   -0.00000001    0.47502904
     The core correction contribution to forces
     atom    1 type  1   force =    -0.00000000    0.00000000   -0.00458683
     atom    2 type  1   force =     0.00000001   -0.00000000   -0.00458683
     atom    3 type  2   force =     0.00000000   -0.00000000   -0.00031953
     atom    4 type  2   force =    -0.00000000    0.00000000   -0.00031953
     The Hubbard contrib.    to forces
     atom    1 type  1   force =     0.00000000    0.00000000    0.00000000
     atom    2 type  1   force =     0.00000000    0.00000000    0.00000000
     atom    3 type  2   force =     0.00000000    0.00000000    0.00000000
     atom    4 type  2   force =     0.00000000    0.00000000    0.00000000
     The SCF correction term to forces
     atom    1 type  1   force =     0.00000000   -0.00000000    0.00000919
     atom    2 type  1   force =    -0.00000000    0.00000000    0.00000919
     atom    3 type  2   force =     0.00000000   -0.00000000    0.00000392
     atom    4 type  2   force =    -0.00000000    0.00000000    0.00000392

     Total force =     0.032436     Total SCF correction =     0.000014


     Computing stress (Cartesian axis) and pressure

          total   stress  (Ry/bohr**3)                   (kbar)     P=      411.23
   0.00298894   0.00000000  -0.00000000          439.69        0.00       -0.00
   0.00000000   0.00298894  -0.00000000            0.00      439.69       -0.00
   0.00000000   0.00000000   0.00240864            0.00        0.00      354.32


     Writing all to output data dir ./ZnO_ANN.save/

     init_run     :      1.48s CPU      1.04s WALL (       1 calls)
     electrons    :     58.94s CPU     21.83s WALL (       1 calls)
     forces       :      0.57s CPU      0.27s WALL (       1 calls)
     stress       :      1.96s CPU      0.98s WALL (       1 calls)

     Called by init_run:
     wfcinit      :      0.74s CPU      0.30s WALL (       1 calls)
     potinit      :      0.19s CPU      0.19s WALL (       1 calls)
     hinit0       :      0.45s CPU      0.46s WALL (       1 calls)

     Called by electrons:
     c_bands      :     49.93s CPU     18.30s WALL (      19 calls)
     sum_band     :      6.41s CPU      2.50s WALL (      19 calls)
     v_of_rho     :      0.61s CPU      0.27s WALL (      20 calls)
     newd         :      1.85s CPU      0.74s WALL (      20 calls)
     mix_rho      :      0.11s CPU      0.04s WALL (      19 calls)

     Called by c_bands:
     init_us_2    :      0.70s CPU      0.24s WALL (    1148 calls)
     init_us_2:cp :      0.68s CPU      0.23s WALL (    1148 calls)
     cegterg      :     48.38s CPU     17.73s WALL (     532 calls)

     Called by *egterg:
     cdiaghg      :      9.82s CPU      3.32s WALL (    3403 calls)
     h_psi        :     30.35s CPU     12.22s WALL (    3431 calls)
     s_psi        :      0.83s CPU      0.27s WALL (    3431 calls)
     g_psi        :      0.28s CPU      0.07s WALL (    2871 calls)

     Called by h_psi:
     h_psi:calbec :      1.28s CPU      0.49s WALL (    3431 calls)
     vloc_psi     :     27.92s CPU     11.34s WALL (    3431 calls)
     add_vuspsi   :      0.82s CPU      0.29s WALL (    3431 calls)

     General routines
     calbec       :      1.59s CPU      0.60s WALL (    4103 calls)
     fft          :      0.56s CPU      0.36s WALL (     283 calls)
     ffts         :      0.10s CPU      0.09s WALL (      39 calls)
     fftw         :     26.59s CPU     10.82s WALL (   88886 calls)
     interpolate  :      0.12s CPU      0.09s WALL (      20 calls)

     Parallel routines

     PWSCF        :   1m 3.50s CPU     24.58s WALL


   This run was terminated on:  15:46:59  13Jun2025            

=------------------------------------------------------------------------------=
   JOB DONE.
=------------------------------------------------------------------------------=
Note: The following floating-point exceptions are signalling: IEEE_INVALID_FLAG
