Authorization required, but no authorization protocol specified

Authorization required, but no authorization protocol specified

Authorization required, but no authorization protocol specified

Authorization required, but no authorization protocol specified

Authorization required, but no authorization protocol specified

Authorization required, but no authorization protocol specified

Authorization required, but no authorization protocol specified

Authorization required, but no authorization protocol specified

Authorization required, but no authorization protocol specified

Authorization required, but no authorization protocol specified


     Program PWSCF v.7.2 starts on 13Jun2025 at 18:19: 3 

     This program is part of the open-source Quantum ESPRESSO suite
     for quantum simulation of materials; please cite
         "P. Giannozzi et al., J. Phys.:Condens. Matter 21 395502 (2009);
         "P. Giannozzi et al., J. Phys.:Condens. Matter 29 465901 (2017);
         "P. Giannozzi et al., J. Chem. Phys. 152 154105 (2020);
          URL http://www.quantum-espresso.org", 
     in publications or presentations arising from this work. More details at
     http://www.quantum-espresso.org/quote

     Parallel version (MPI), running on     8 processors

     MPI processes distributed on     1 nodes
     120701 MiB available memory on the printing compute node when the environment starts

     Reading input from /home/jvc/QEspresso7.2/ZnO_database_python/SCFs.in/scf-6.43-1.63.in

     Current dimensions of program PWSCF are:
     Max number of different atomic species (ntypx) = 10
     Max number of k-points (npk) =  40000
     Max angular momentum in pseudopotentials (lmaxx) =  4
     file Zn.upf: wavefunction(s)  3D renormalized

     R & G space division:  proc/nbgrp/npool/nimage =       8
     Subspace diagonalization in iterative solution of the eigenvalue problem:
     a serial algorithm will be used


     Parallelization info
     --------------------
     sticks:   dense  smooth     PW     G-vecs:    dense   smooth      PW
     Min         143      71     20                 6327     2237     368
     Max         145      73     21                 6328     2240     377
     Sum        1147     571    163                50617    17909    2971

     Using Slab Decomposition



     bravais-lattice index     =            4
     lattice parameter (alat)  =       6.4260  a.u.
     unit-cell volume          =     374.6872 (a.u.)^3
     number of atoms/cell      =            4
     number of atomic types    =            2
     number of electrons       =        36.00
     number of Kohn-Sham states=           18
     kinetic-energy cutoff     =      50.0000  Ry
     charge density cutoff     =     400.0000  Ry
     scf convergence threshold =      1.0E-08
     mixing beta               =       0.3000
     number of iterations used =            8  plain     mixing
     Exchange-correlation= PBE
                           (   1   4   3   4   0   0   0)

     celldm(1)=   6.425974  celldm(2)=   0.000000  celldm(3)=   1.630502
     celldm(4)=   0.000000  celldm(5)=   0.000000  celldm(6)=   0.000000

     crystal axes: (cart. coord. in units of alat)
               a(1) = (   1.000000   0.000000   0.000000 )  
               a(2) = (  -0.500000   0.866025   0.000000 )  
               a(3) = (   0.000000   0.000000   1.630502 )  

     reciprocal axes: (cart. coord. in units 2 pi/alat)
               b(1) = (  1.000000  0.577350 -0.000000 )  
               b(2) = (  0.000000  1.154701  0.000000 )  
               b(3) = (  0.000000 -0.000000  0.613308 )  


     PseudoPot. # 1 for Zn read from file:
     /home/jvc/QEspresso7.2/ZnO_database/pseudos/Zn.upf
     MD5 check sum: 7f56cabf9682ed8c977c2f7d0c5985c5
     Pseudo is Ultrasoft + core correction, Zval = 12.0
     Generated using &quot;atomic&quot; code by A. Dal Corso  v.6.2.2
     Using radial grid of 1201 points,  6 beta functions with: 
                l(1) =   0
                l(2) =   0
                l(3) =   1
                l(4) =   1
                l(5) =   2
                l(6) =   2
     Q(r) pseudized with 0 coefficients 


     PseudoPot. # 2 for O  read from file:
     /home/jvc/QEspresso7.2/ZnO_database/pseudos/O.upf
     MD5 check sum: 91400c9766925bcf19f520983a725ff0
     Pseudo is Ultrasoft + core correction, Zval =  6.0
     Generated using &quot;atomic&quot; code by A. Dal Corso  v.6.3MaX
     Using radial grid of 1095 points,  4 beta functions with: 
                l(1) =   0
                l(2) =   0
                l(3) =   1
                l(4) =   1
     Q(r) pseudized with 0 coefficients 


     atomic species   valence    mass     pseudopotential
        Zn            12.00    63.38000     Zn( 1.00)
        O              6.00    15.99900     O ( 1.00)

     12 Sym. Ops. (no inversion) found ( 6 have fractional translation)



   Cartesian axes

     site n.     atom                  positions (alat units)
         1           Zn  tau(   1) = (   0.5000000   0.2886751   0.8162840  )
         2           Zn  tau(   2) = (  -0.0000000   0.5773503   0.0010331  )
         3           O   tau(   3) = (   0.5000000   0.2886751   1.4343141  )
         4           O   tau(   4) = (  -0.0000000   0.5773503   0.6190631  )

     number of k points=    28
                       cart. coord. in units 2pi/alat
        k(    1) = (   0.0000000   0.0000000   0.0000000), wk =   0.0092593
        k(    2) = (   0.0000000   0.0000000   0.1022180), wk =   0.0185185
        k(    3) = (   0.0000000   0.0000000   0.2044360), wk =   0.0185185
        k(    4) = (   0.0000000   0.0000000  -0.3066540), wk =   0.0092593
        k(    5) = (   0.0000000   0.1924501   0.0000000), wk =   0.0555556
        k(    6) = (   0.0000000   0.1924501   0.1022180), wk =   0.1111111
        k(    7) = (   0.0000000   0.1924501   0.2044360), wk =   0.1111111
        k(    8) = (   0.0000000   0.1924501  -0.3066540), wk =   0.0555556
        k(    9) = (   0.0000000   0.3849002   0.0000000), wk =   0.0555556
        k(   10) = (   0.0000000   0.3849002   0.1022180), wk =   0.1111111
        k(   11) = (   0.0000000   0.3849002   0.2044360), wk =   0.1111111
        k(   12) = (   0.0000000   0.3849002  -0.3066540), wk =   0.0555556
        k(   13) = (   0.0000000  -0.5773503   0.0000000), wk =   0.0277778
        k(   14) = (   0.0000000  -0.5773503   0.1022180), wk =   0.0555556
        k(   15) = (   0.0000000  -0.5773503   0.2044360), wk =   0.0555556
        k(   16) = (   0.0000000  -0.5773503  -0.3066540), wk =   0.0277778
        k(   17) = (   0.1666667   0.2886751   0.0000000), wk =   0.0555556
        k(   18) = (   0.1666667   0.2886751   0.1022180), wk =   0.1111111
        k(   19) = (   0.1666667   0.2886751   0.2044360), wk =   0.1111111
        k(   20) = (   0.1666667   0.2886751  -0.3066540), wk =   0.0555556
        k(   21) = (   0.1666667   0.4811252   0.0000000), wk =   0.1111111
        k(   22) = (   0.1666667   0.4811252   0.1022180), wk =   0.2222222
        k(   23) = (   0.1666667   0.4811252   0.2044360), wk =   0.2222222
        k(   24) = (   0.1666667   0.4811252  -0.3066540), wk =   0.1111111
        k(   25) = (   0.3333333   0.5773503   0.0000000), wk =   0.0185185
        k(   26) = (   0.3333333   0.5773503   0.1022180), wk =   0.0370370
        k(   27) = (   0.3333333   0.5773503   0.2044360), wk =   0.0370370
        k(   28) = (   0.3333333   0.5773503  -0.3066540), wk =   0.0185185

     Dense  grid:    50617 G-vectors     FFT dimensions: (  45,  45,  72)

     Smooth grid:    17909 G-vectors     FFT dimensions: (  30,  30,  48)

     Estimated max dynamical RAM per process >      29.10 MB

     Estimated total dynamical RAM >     232.83 MB

     Check: negative core charge=   -0.000002

     Initial potential from superposition of free atoms

     starting charge      35.9925, renormalised to      36.0000
     Starting wfcs are   26 randomized atomic wfcs

     total cpu time spent up to now is        1.6 secs

     Self-consistent Calculation

     iteration #  1     ecut=    50.00 Ry     beta= 0.30
     Davidson diagonalization with overlap
     ethr =  1.00E-02,  avg # of iterations =  1.5

     total cpu time spent up to now is        2.5 secs

     total energy              =    -361.44163740 Ry
     estimated scf accuracy    <       0.74733932 Ry

     iteration #  2     ecut=    50.00 Ry     beta= 0.30
     Davidson diagonalization with overlap
     ethr =  2.08E-03,  avg # of iterations =  2.1

     total cpu time spent up to now is        3.6 secs

     total energy              =    -361.55876776 Ry
     estimated scf accuracy    <       0.08353202 Ry

     iteration #  3     ecut=    50.00 Ry     beta= 0.30
     Davidson diagonalization with overlap
     ethr =  2.32E-04,  avg # of iterations =  6.2

     total cpu time spent up to now is        5.2 secs

     total energy              =    -361.57716361 Ry
     estimated scf accuracy    <       0.08307564 Ry

     iteration #  4     ecut=    50.00 Ry     beta= 0.30
     Davidson diagonalization with overlap
     ethr =  2.31E-04,  avg # of iterations =  9.4

     total cpu time spent up to now is        7.4 secs

     total energy              =    -361.64941548 Ry
     estimated scf accuracy    <       0.46577489 Ry

     iteration #  5     ecut=    50.00 Ry     beta= 0.30
     Davidson diagonalization with overlap
     ethr =  2.31E-04,  avg # of iterations =  2.0

     total cpu time spent up to now is        8.3 secs

     total energy              =    -361.80572314 Ry
     estimated scf accuracy    <       0.29687461 Ry

     iteration #  6     ecut=    50.00 Ry     beta= 0.30
     Davidson diagonalization with overlap
     ethr =  2.31E-04,  avg # of iterations =  2.6

     total cpu time spent up to now is        9.3 secs

     total energy              =    -361.34312601 Ry
     estimated scf accuracy    <       0.59510360 Ry

     iteration #  7     ecut=    50.00 Ry     beta= 0.30
     Davidson diagonalization with overlap
     ethr =  2.31E-04,  avg # of iterations = 10.9

     total cpu time spent up to now is       11.6 secs

     total energy              =    -361.64873613 Ry
     estimated scf accuracy    <       1.25181430 Ry

     iteration #  8     ecut=    50.00 Ry     beta= 0.30
     Davidson diagonalization with overlap
     ethr =  2.31E-04,  avg # of iterations =  5.1

     total cpu time spent up to now is       12.9 secs

     total energy              =    -361.71492574 Ry
     estimated scf accuracy    <       0.40001836 Ry

     iteration #  9     ecut=    50.00 Ry     beta= 0.30
     Davidson diagonalization with overlap
     ethr =  2.31E-04,  avg # of iterations =  1.1

     total cpu time spent up to now is       13.7 secs

     total energy              =    -361.72435505 Ry
     estimated scf accuracy    <       0.43305503 Ry

     iteration # 10     ecut=    50.00 Ry     beta= 0.30
     Davidson diagonalization with overlap
     ethr =  2.31E-04,  avg # of iterations =  1.0

     total cpu time spent up to now is       14.6 secs

     total energy              =    -361.59146304 Ry
     estimated scf accuracy    <       0.45504948 Ry

     iteration # 11     ecut=    50.00 Ry     beta= 0.30
     Davidson diagonalization with overlap
     ethr =  2.31E-04,  avg # of iterations =  4.9

     total cpu time spent up to now is       15.9 secs

     total energy              =    -361.64149624 Ry
     estimated scf accuracy    <       0.07483007 Ry

     iteration # 12     ecut=    50.00 Ry     beta= 0.30
     Davidson diagonalization with overlap
     ethr =  2.08E-04,  avg # of iterations =  1.1

     total cpu time spent up to now is       16.7 secs

     total energy              =    -361.63752179 Ry
     estimated scf accuracy    <       0.10347370 Ry

     iteration # 13     ecut=    50.00 Ry     beta= 0.30
     Davidson diagonalization with overlap
     ethr =  2.08E-04,  avg # of iterations =  1.4

     total cpu time spent up to now is       17.6 secs

     total energy              =    -361.65701170 Ry
     estimated scf accuracy    <       0.09068432 Ry

     iteration # 14     ecut=    50.00 Ry     beta= 0.30
     Davidson diagonalization with overlap
     ethr =  2.08E-04,  avg # of iterations =  1.0

     total cpu time spent up to now is       18.4 secs

     total energy              =    -361.61394857 Ry
     estimated scf accuracy    <       0.13039871 Ry

     iteration # 15     ecut=    50.00 Ry     beta= 0.30
     Davidson diagonalization with overlap
     ethr =  2.08E-04,  avg # of iterations =  2.0

     total cpu time spent up to now is       19.3 secs

     total energy              =    -361.61726007 Ry
     estimated scf accuracy    <       0.05603677 Ry

     iteration # 16     ecut=    50.00 Ry     beta= 0.30
     Davidson diagonalization with overlap
     ethr =  1.56E-04,  avg # of iterations =  1.9

     total cpu time spent up to now is       20.2 secs

     total energy              =    -361.63483240 Ry
     estimated scf accuracy    <       0.03698780 Ry

     iteration # 17     ecut=    50.00 Ry     beta= 0.30
     Davidson diagonalization with overlap
     ethr =  1.03E-04,  avg # of iterations =  1.0

     total cpu time spent up to now is       21.0 secs

     total energy              =    -361.61611282 Ry
     estimated scf accuracy    <       0.06388112 Ry

     iteration # 18     ecut=    50.00 Ry     beta= 0.30
     Davidson diagonalization with overlap
     ethr =  1.03E-04,  avg # of iterations =  1.8

     total cpu time spent up to now is       21.9 secs

     total energy              =    -361.61564931 Ry
     estimated scf accuracy    <       0.02752878 Ry

     iteration # 19     ecut=    50.00 Ry     beta= 0.30
     Davidson diagonalization with overlap
     ethr =  7.65E-05,  avg # of iterations =  2.1

     total cpu time spent up to now is       22.8 secs

     total energy              =    -361.61174541 Ry
     estimated scf accuracy    <       0.01686602 Ry

     iteration # 20     ecut=    50.00 Ry     beta= 0.30
     Davidson diagonalization with overlap
     ethr =  4.69E-05,  avg # of iterations =  4.8

     total cpu time spent up to now is       24.1 secs

     total energy              =    -361.61839485 Ry
     estimated scf accuracy    <       0.00012982 Ry

     iteration # 21     ecut=    50.00 Ry     beta= 0.30
     Davidson diagonalization with overlap
     c_bands:  1 eigenvalues not converged
     ethr =  3.61E-07,  avg # of iterations = 11.3

     total cpu time spent up to now is       26.6 secs

     total energy              =    -361.61922525 Ry
     estimated scf accuracy    <       0.00394781 Ry

     iteration # 22     ecut=    50.00 Ry     beta= 0.30
     Davidson diagonalization with overlap
     ethr =  3.61E-07,  avg # of iterations =  1.2

     total cpu time spent up to now is       27.5 secs

     total energy              =    -361.61898004 Ry
     estimated scf accuracy    <       0.00368072 Ry

     iteration # 23     ecut=    50.00 Ry     beta= 0.30
     Davidson diagonalization with overlap
     ethr =  3.61E-07,  avg # of iterations =  2.2

     total cpu time spent up to now is       28.4 secs

     total energy              =    -361.61940127 Ry
     estimated scf accuracy    <       0.00299269 Ry

     iteration # 24     ecut=    50.00 Ry     beta= 0.30
     Davidson diagonalization with overlap
     ethr =  3.61E-07,  avg # of iterations =  2.0

     total cpu time spent up to now is       29.3 secs

     total energy              =    -361.61876502 Ry
     estimated scf accuracy    <       0.00373047 Ry

     iteration # 25     ecut=    50.00 Ry     beta= 0.30
     Davidson diagonalization with overlap
     ethr =  3.61E-07,  avg # of iterations =  4.3

     total cpu time spent up to now is       30.6 secs

     total energy              =    -361.61828008 Ry
     estimated scf accuracy    <       0.00199949 Ry

     iteration # 26     ecut=    50.00 Ry     beta= 0.30
     Davidson diagonalization with overlap
     ethr =  3.61E-07,  avg # of iterations =  7.1

     total cpu time spent up to now is       32.3 secs

     total energy              =    -361.61953181 Ry
     estimated scf accuracy    <       0.00027398 Ry

     iteration # 27     ecut=    50.00 Ry     beta= 0.30
     Davidson diagonalization with overlap
     ethr =  3.61E-07,  avg # of iterations = 11.0

     total cpu time spent up to now is       35.0 secs

     total energy              =    -361.62373417 Ry
     estimated scf accuracy    <       0.00921330 Ry

     iteration # 28     ecut=    50.00 Ry     beta= 0.30
     Davidson diagonalization with overlap
     ethr =  3.61E-07,  avg # of iterations = 10.1

     total cpu time spent up to now is       37.4 secs

     total energy              =    -361.61415372 Ry
     estimated scf accuracy    <       0.02493299 Ry

     iteration # 29     ecut=    50.00 Ry     beta= 0.30
     Davidson diagonalization with overlap
     c_bands:  1 eigenvalues not converged
     c_bands:  1 eigenvalues not converged
     ethr =  3.61E-07,  avg # of iterations = 13.4

     total cpu time spent up to now is       40.6 secs

     total energy              =    -361.61839826 Ry
     estimated scf accuracy    <       0.00000788 Ry

     iteration # 30     ecut=    50.00 Ry     beta= 0.30
     Davidson diagonalization with overlap
     ethr =  2.19E-08,  avg # of iterations =  9.1

     total cpu time spent up to now is       42.7 secs

     total energy              =    -361.61835549 Ry
     estimated scf accuracy    <       0.00009416 Ry

     iteration # 31     ecut=    50.00 Ry     beta= 0.30
     Davidson diagonalization with overlap
     c_bands:  1 eigenvalues not converged
     ethr =  2.19E-08,  avg # of iterations = 14.0

     total cpu time spent up to now is       46.0 secs

     total energy              =    -361.61811313 Ry
     estimated scf accuracy    <       0.00136097 Ry

     iteration # 32     ecut=    50.00 Ry     beta= 0.30
     Davidson diagonalization with overlap
     ethr =  2.19E-08,  avg # of iterations = 13.2

     total cpu time spent up to now is       49.2 secs

     total energy              =    -361.61838996 Ry
     estimated scf accuracy    <       0.00001564 Ry

     iteration # 33     ecut=    50.00 Ry     beta= 0.30
     Davidson diagonalization with overlap
     ethr =  2.19E-08,  avg # of iterations =  4.6

     total cpu time spent up to now is       50.5 secs

     total energy              =    -361.61839478 Ry
     estimated scf accuracy    <       0.00000081 Ry

     iteration # 34     ecut=    50.00 Ry     beta= 0.30
     Davidson diagonalization with overlap
     ethr =  2.25E-09,  avg # of iterations =  5.1

     total cpu time spent up to now is       51.7 secs

     total energy              =    -361.61839424 Ry
     estimated scf accuracy    <       0.00000202 Ry

     iteration # 35     ecut=    50.00 Ry     beta= 0.30
     Davidson diagonalization with overlap
     ethr =  2.25E-09,  avg # of iterations =  3.8

     total cpu time spent up to now is       52.8 secs

     total energy              =    -361.61839422 Ry
     estimated scf accuracy    <       0.00000041 Ry

     iteration # 36     ecut=    50.00 Ry     beta= 0.30
     Davidson diagonalization with overlap
     ethr =  1.14E-09,  avg # of iterations =  5.6

     total cpu time spent up to now is       54.2 secs

     total energy              =    -361.61839447 Ry
     estimated scf accuracy    <       0.00000007 Ry

     iteration # 37     ecut=    50.00 Ry     beta= 0.30
     Davidson diagonalization with overlap
     ethr =  2.07E-10,  avg # of iterations =  2.6

     total cpu time spent up to now is       55.1 secs

     total energy              =    -361.61839446 Ry
     estimated scf accuracy    <       0.00000004 Ry

     iteration # 38     ecut=    50.00 Ry     beta= 0.30
     Davidson diagonalization with overlap
     ethr =  1.18E-10,  avg # of iterations =  2.0

     total cpu time spent up to now is       56.1 secs

     total energy              =    -361.61839446 Ry
     estimated scf accuracy    <       0.00000001 Ry

     iteration # 39     ecut=    50.00 Ry     beta= 0.30
     Davidson diagonalization with overlap
     ethr =  3.65E-11,  avg # of iterations =  5.0

     total cpu time spent up to now is       57.4 secs

     End of self-consistent calculation

          k = 0.0000 0.0000 0.0000 (  2249 PWs)   bands (ev):

   -11.8351 -11.3358   0.0466   0.0466   0.0775   0.1875   0.1875   0.5175
     0.8303   0.8303   0.9714   0.9714   1.2710   4.5558   4.5558   5.0952
     5.1634   5.1634

          k = 0.0000 0.0000 0.1022 (  2237 PWs)   bands (ev):

   -11.8029 -11.3705   0.0521   0.0521   0.0539   0.1739   0.1739   0.3206
     0.8433   0.8433   0.9655   0.9655   1.6192   4.5069   4.5974   4.5974
     5.1236   5.1236

          k = 0.0000 0.0000 0.2044 (  2244 PWs)   bands (ev):

   -11.7141 -11.4645   0.0076   0.0699   0.0699   0.0969   0.1397   0.1397
     0.8753   0.8753   0.9466   0.9466   2.2702   3.7463   4.7104   4.7104
     5.0143   5.0143

          k = 0.0000 0.0000-0.3067 (  2232 PWs)   bands (ev):

   -11.5906 -11.5906   0.0008   0.0008   0.1009   0.1009   0.1009   0.1009
     0.9144   0.9144   0.9144   0.9144   2.9978   2.9978   4.8633   4.8633
     4.8633   4.8633

          k = 0.0000 0.1925 0.0000 (  2219 PWs)   bands (ev):

   -11.7282 -11.2879  -0.0246   0.1099   0.1312   0.2122   0.2816   0.5890
     0.7915   0.8305   0.9790   1.1086   1.3255   3.7037   4.0686   4.2750
     4.9496   5.0082

          k = 0.0000 0.1925 0.1022 (  2229 PWs)   bands (ev):

   -11.6994 -11.3180  -0.0392   0.1155   0.1177   0.1905   0.2658   0.4170
     0.8124   0.8423   0.9711   1.0200   1.7221   3.7018   3.9738   4.3254
     4.8739   4.9602

          k = 0.0000 0.1925 0.2044 (  2246 PWs)   bands (ev):

   -11.6202 -11.4000  -0.0680   0.0311   0.1414   0.1645   0.2264   0.2504
     0.8604   0.8733   0.9480   0.9688   2.3358   3.4234   4.0586   4.4622
     4.6466   4.8284

          k = 0.0000 0.1925-0.3067 (  2250 PWs)   bands (ev):

   -11.5108 -11.5108  -0.0590  -0.0590   0.1802   0.1802   0.1872   0.1872
     0.9126   0.9126   0.9171   0.9171   2.9297   2.9297   4.3354   4.3354
     4.6465   4.6465

          k = 0.0000 0.3849 0.0000 (  2226 PWs)   bands (ev):

   -11.4910 -11.2065  -0.0717   0.1612   0.2093   0.4137   0.5001   0.6529
     0.7969   0.8845   0.9930   1.1623   1.7283   2.3720   3.0653   3.7091
     4.5048   4.6749

          k = 0.0000 0.3849 0.1022 (  2238 PWs)   bands (ev):

   -11.4715 -11.2250  -0.0892   0.1174   0.2252   0.3975   0.4766   0.5606
     0.8114   0.8907   0.9839   1.1008   1.8777   2.4780   3.0906   3.7777
     4.5101   4.6126

          k = 0.0000 0.3849 0.2044 (  2234 PWs)   bands (ev):

   -11.4184 -11.2760  -0.1169   0.0013   0.2711   0.3715   0.4157   0.4332
     0.8736   0.9084   0.9612   1.0252   2.0879   2.4705   3.4478   3.9610
     4.3871   4.4413

          k = 0.0000 0.3849-0.3067 (  2234 PWs)   bands (ev):

   -11.3467 -11.3467  -0.0975  -0.0975   0.3397   0.3397   0.3775   0.3775
     0.9337   0.9337   0.9502   0.9502   2.2910   2.2910   3.9969   3.9969
     4.2041   4.2041

          k = 0.0000-0.5774 0.0000 (  2224 PWs)   bands (ev):

   -11.3433 -11.1900  -0.0269   0.2350   0.2405   0.5351   0.6250   0.6705
     0.8919   0.9517   1.0054   1.0626   1.6170   2.0641   2.7967   3.4084
     4.1072   4.4972

          k = 0.0000-0.5774 0.1022 (  2238 PWs)   bands (ev):

   -11.3320 -11.1992  -0.0501   0.1559   0.2617   0.5304   0.5945   0.6390
     0.9288   0.9533   0.9968   1.0620   1.5921   1.9871   3.0387   3.4882
     4.1828   4.4281

          k = 0.0000-0.5774 0.2044 (  2222 PWs)   bands (ev):

   -11.3017 -11.2250  -0.0911   0.0075   0.3227   0.5146   0.5277   0.5839
     0.9583   0.9807   0.9918   1.0566   1.6015   1.8306   3.5507   3.6986
     4.2356   4.2378

          k = 0.0000-0.5774-0.3067 (  2252 PWs)   bands (ev):

   -11.2623 -11.2623  -0.0865  -0.0865   0.4133   0.4133   0.5433   0.5433
     0.9669   0.9669   1.0359   1.0359   1.6876   1.6876   3.9729   3.9729
     4.0220   4.0220

          k = 0.1667 0.2887 0.0000 (  2231 PWs)   bands (ev):

   -11.5552 -11.2236  -0.0035   0.1018   0.2211   0.2874   0.4559   0.6750
     0.7565   0.8494   0.9880   1.1633   1.6301   3.0238   3.0283   3.7562
     4.6200   4.6673

          k = 0.1667 0.2887 0.1022 (  2225 PWs)   bands (ev):

   -11.5329 -11.2456  -0.0250   0.0922   0.2164   0.2715   0.4358   0.5254
     0.7869   0.8705   0.9795   1.0904   1.8991   2.9775   3.1582   3.7766
     4.5541   4.6506

          k = 0.1667 0.2887 0.2044 (  2232 PWs)   bands (ev):

   -11.4718 -11.3058  -0.0637   0.0261   0.2192   0.2489   0.3649   0.3860
     0.8572   0.8968   0.9578   1.0165   2.2821   2.8171   3.5513   3.8972
     4.3774   4.4880

          k = 0.1667 0.2887-0.3067 (  2240 PWs)   bands (ev):

   -11.3886 -11.3886  -0.0562  -0.0562   0.2377   0.2377   0.3392   0.3392
     0.9203   0.9203   0.9468   0.9468   2.5808   2.5808   4.0202   4.0202
     4.1852   4.1852

          k = 0.1667 0.4811 0.0000 (  2241 PWs)   bands (ev):

   -11.3481 -11.1874   0.0366   0.2256   0.3475   0.4851   0.6277   0.6660
     0.8260   0.8814   1.0202   1.1770   1.7072   2.2014   2.7883   3.0784
     4.0983   4.2282

          k = 0.1667 0.4811 0.1022 (  2241 PWs)   bands (ev):

   -11.3363 -11.1971   0.0289   0.2030   0.3009   0.4756   0.5921   0.6064
     0.8334   0.9163   1.0197   1.1625   1.7108   2.1788   2.9017   3.2469
     4.0712   4.2437

          k = 0.1667 0.4811 0.2044 (  2236 PWs)   bands (ev):

   -11.3048 -11.2243   0.0039   0.1020   0.2907   0.4488   0.5078   0.5278
     0.8880   0.9352   1.0309   1.1198   1.7799   2.0596   3.1743   3.6519
     3.8768   4.2913

          k = 0.1667 0.4811-0.3067 (  2236 PWs)   bands (ev):

   -11.2635 -11.2635   0.0121   0.0121   0.3638   0.3638   0.4914   0.4914
     0.9266   0.9266   1.0677   1.0677   1.9086   1.9086   3.5051   3.5051
     4.1182   4.1182

          k = 0.3333 0.5774 0.0000 (  2253 PWs)   bands (ev):

   -11.2275 -11.2275   0.0517   0.3840   0.3840   0.6735   0.7797   0.7797
     0.8118   0.8732   1.0334   1.0334   1.9412   1.9412   2.0334   3.5840
     3.5840   3.7369

          k = 0.3333 0.5774 0.1022 (  2232 PWs)   bands (ev):

   -11.2262 -11.2262   0.0776   0.3337   0.3337   0.5983   0.7301   0.7301
     0.8145   0.8690   1.0916   1.0916   1.8937   1.8937   2.1723   3.6262
     3.7374   3.7374

          k = 0.3333 0.5774 0.2044 (  2241 PWs)   bands (ev):

   -11.2235 -11.2235   0.1536   0.2293   0.2293   0.4378   0.6787   0.6787
     0.8252   0.8574   1.1671   1.1671   1.8185   1.8185   2.5094   3.3287
     4.0249   4.0249

          k = 0.3333 0.5774-0.3067 (  2250 PWs)   bands (ev):

   -11.2222 -11.2222   0.1780   0.1780   0.2774   0.2774   0.6631   0.6631
     0.8410   0.8410   1.1964   1.1964   1.7874   1.7874   2.9262   2.9262
     4.1629   4.1629

     highest occupied level (ev):     5.1634

!    total energy              =    -361.61839447 Ry
     estimated scf accuracy    <          8.5E-10 Ry

     The total energy is the sum of the following terms:
     one-electron contribution =    -168.90239663 Ry
     hartree contribution      =     123.46161795 Ry
     xc contribution           =    -109.30343877 Ry
     ewald contribution        =    -206.87417702 Ry

     convergence has been achieved in  39 iterations

     Forces acting on atoms (cartesian axes, Ry/au):

     atom    1 type  1   force =     0.00000000    0.00000000    0.00070417
     atom    2 type  1   force =     0.00000000   -0.00000000    0.00070417
     atom    3 type  2   force =     0.00000000    0.00000000   -0.00070417
     atom    4 type  2   force =     0.00000000    0.00000000   -0.00070417
     The non-local contrib.  to forces
     atom    1 type  1   force =    -0.00000000    0.00000000    0.02184323
     atom    2 type  1   force =     0.00000000    0.00000000    0.02184323
     atom    3 type  2   force =    -0.00000000    0.00000000    0.03185382
     atom    4 type  2   force =     0.00000000   -0.00000000    0.03185382
     The ionic contribution  to forces
     atom    1 type  1   force =    -0.00000000    0.00000000    0.24604523
     atom    2 type  1   force =     0.00000000   -0.00000000    0.24604523
     atom    3 type  2   force =    -0.00000000    0.00000000   -0.24604523
     atom    4 type  2   force =     0.00000000   -0.00000000   -0.24604523
     The local contribution  to forces
     atom    1 type  1   force =    -0.00000002    0.00000001   -0.26579933
     atom    2 type  1   force =     0.00000007   -0.00000004   -0.26579932
     atom    3 type  2   force =    -0.00000001    0.00000000    0.21377896
     atom    4 type  2   force =     0.00000002   -0.00000001    0.21377895
     The core correction contribution to forces
     atom    1 type  1   force =    -0.00000000    0.00000000   -0.00138469
     atom    2 type  1   force =     0.00000001   -0.00000001   -0.00138469
     atom    3 type  2   force =     0.00000000   -0.00000000   -0.00028928
     atom    4 type  2   force =    -0.00000000    0.00000000   -0.00028928
     The Hubbard contrib.    to forces
     atom    1 type  1   force =     0.00000000    0.00000000    0.00000000
     atom    2 type  1   force =     0.00000000    0.00000000    0.00000000
     atom    3 type  2   force =     0.00000000    0.00000000    0.00000000
     atom    4 type  2   force =     0.00000000    0.00000000    0.00000000
     The SCF correction term to forces
     atom    1 type  1   force =     0.00000000    0.00000000    0.00000063
     atom    2 type  1   force =     0.00000000   -0.00000000    0.00000063
     atom    3 type  2   force =     0.00000000   -0.00000000   -0.00000153
     atom    4 type  2   force =    -0.00000000    0.00000000   -0.00000153

     Total force =     0.001408     Total SCF correction =     0.000002


     Computing stress (Cartesian axis) and pressure

          total   stress  (Ry/bohr**3)                   (kbar)     P=     -129.08
  -0.00085212  -0.00000000   0.00000000         -125.35       -0.00        0.00
  -0.00000000  -0.00085212   0.00000000           -0.00     -125.35        0.00
   0.00000000   0.00000000  -0.00092818            0.00        0.00     -136.54


     Writing all to output data dir ./ZnO_ANN.save/

     init_run     :      1.94s CPU      1.32s WALL (       1 calls)
     electrons    :    150.68s CPU     55.79s WALL (       1 calls)
     forces       :      0.75s CPU      0.35s WALL (       1 calls)
     stress       :      2.64s CPU      1.31s WALL (       1 calls)

     Called by init_run:
     wfcinit      :      1.03s CPU      0.40s WALL (       1 calls)
     potinit      :      0.28s CPU      0.28s WALL (       1 calls)
     hinit0       :      0.48s CPU      0.49s WALL (       1 calls)

     Called by electrons:
     c_bands      :    124.05s CPU     45.46s WALL (      39 calls)
     sum_band     :     19.41s CPU      7.41s WALL (      39 calls)
     v_of_rho     :      1.72s CPU      0.76s WALL (      40 calls)
     newd         :      5.09s CPU      2.04s WALL (      40 calls)
     mix_rho      :      0.30s CPU      0.13s WALL (      39 calls)

     Called by c_bands:
     init_us_2    :      1.88s CPU      0.65s WALL (    2268 calls)
     init_us_2:cp :      1.84s CPU      0.64s WALL (    2268 calls)
     cegterg      :    120.04s CPU     43.87s WALL (    1092 calls)

     Called by *egterg:
     cdiaghg      :     19.30s CPU      6.31s WALL (    6453 calls)
     h_psi        :     80.70s CPU     32.58s WALL (    6481 calls)
     s_psi        :      1.94s CPU      0.56s WALL (    6481 calls)
     g_psi        :      0.70s CPU      0.18s WALL (    5361 calls)

     Called by h_psi:
     h_psi:calbec :      2.97s CPU      1.04s WALL (    6481 calls)
     vloc_psi     :     75.03s CPU     30.69s WALL (    6481 calls)
     add_vuspsi   :      1.93s CPU      0.62s WALL (    6481 calls)

     General routines
     calbec       :      3.76s CPU      1.29s WALL (    7713 calls)
     fft          :      1.18s CPU      0.63s WALL (     543 calls)
     ffts         :      0.19s CPU      0.15s WALL (      79 calls)
     fftw         :     73.22s CPU     30.05s WALL (  167536 calls)
     interpolate  :      0.23s CPU      0.18s WALL (      40 calls)

     Parallel routines

     PWSCF        :   2m36.55s CPU     59.25s WALL


   This run was terminated on:  18:20: 2  13Jun2025            

=------------------------------------------------------------------------------=
   JOB DONE.
=------------------------------------------------------------------------------=
Note: The following floating-point exceptions are signalling: IEEE_INVALID_FLAG
