
     Program PWSCF v.7.2 starts on 24Jun2025 at 16:51: 4 

     This program is part of the open-source Quantum ESPRESSO suite
     for quantum simulation of materials; please cite
         "P. Giannozzi et al., J. Phys.:Condens. Matter 21 395502 (2009);
         "P. Giannozzi et al., J. Phys.:Condens. Matter 29 465901 (2017);
         "P. Giannozzi et al., J. Chem. Phys. 152 154105 (2020);
          URL http://www.quantum-espresso.org", 
     in publications or presentations arising from this work. More details at
     http://www.quantum-espresso.org/quote

     Parallel version (MPI), running on     8 processors

     MPI processes distributed on     1 nodes
     90995 MiB available memory on the printing compute node when the environment starts

     Reading input from /home/jvc/QEspresso7.2/ZnO_DataBase/scf_025_NOSYM.in/scf-6.18-1.49-0.25-5.in

     Current dimensions of program PWSCF are:
     Max number of different atomic species (ntypx) = 10
     Max number of k-points (npk) =  40000
     Max angular momentum in pseudopotentials (lmaxx) =  4
     file Zn.upf: wavefunction(s)  3D renormalized

     R & G space division:  proc/nbgrp/npool/nimage =       8
     Subspace diagonalization in iterative solution of the eigenvalue problem:
     a serial algorithm will be used


     Parallelization info
     --------------------
     sticks:   dense  smooth     PW     G-vecs:    dense   smooth      PW
     Min         130      64     20                 5518     1944     332
     Max         131      66     21                 5522     1946     337
     Sum        1045     517    163                44163    15561    2671

     Using Slab Decomposition



     bravais-lattice index     =            0
     lattice parameter (alat)  =       6.1788  a.u.
     unit-cell volume          =     326.8643 (a.u.)^3
     number of atoms/cell      =            4
     number of atomic types    =            2
     number of electrons       =        36.00
     number of Kohn-Sham states=           18
     kinetic-energy cutoff     =      50.0000  Ry
     charge density cutoff     =     400.0000  Ry
     scf convergence threshold =      1.0E-08
     mixing beta               =       0.3000
     number of iterations used =            8  plain     mixing
     Exchange-correlation= PBE
                           (   1   4   3   4   0   0   0)

     celldm(1)=   6.178821  celldm(2)=   0.000000  celldm(3)=   0.000000
     celldm(4)=   0.000000  celldm(5)=   0.000000  celldm(6)=   0.000000

     crystal axes: (cart. coord. in units of alat)
               a(1) = (   1.000000   0.000000   0.000000 )  
               a(2) = (  -0.500000   0.866025   0.000000 )  
               a(3) = (   0.000000   0.000000   1.600000 )  

     reciprocal axes: (cart. coord. in units 2 pi/alat)
               b(1) = (  1.000000  0.577350 -0.000000 )  
               b(2) = (  0.000000  1.154701  0.000000 )  
               b(3) = (  0.000000 -0.000000  0.625000 )  


     PseudoPot. # 1 for Zn read from file:
     ./pseudos/Zn.upf
     MD5 check sum: 7f56cabf9682ed8c977c2f7d0c5985c5
     Pseudo is Ultrasoft + core correction, Zval = 12.0
     Generated using &quot;atomic&quot; code by A. Dal Corso  v.6.2.2
     Using radial grid of 1201 points,  6 beta functions with: 
                l(1) =   0
                l(2) =   0
                l(3) =   1
                l(4) =   1
                l(5) =   2
                l(6) =   2
     Q(r) pseudized with 0 coefficients 


     PseudoPot. # 2 for O  read from file:
     ./pseudos/O.upf
     MD5 check sum: 91400c9766925bcf19f520983a725ff0
     Pseudo is Ultrasoft + core correction, Zval =  6.0
     Generated using &quot;atomic&quot; code by A. Dal Corso  v.6.3MaX
     Using radial grid of 1095 points,  4 beta functions with: 
                l(1) =   0
                l(2) =   0
                l(3) =   1
                l(4) =   1
     Q(r) pseudized with 0 coefficients 


     atomic species   valence    mass     pseudopotential
        Zn            12.00    63.38000     Zn( 1.00)
        O              6.00    15.99900     O ( 1.00)

     No symmetry found



   Cartesian axes

     site n.     atom                  positions (alat units)
         1           Zn  tau(   1) = (   0.5816769   0.1308385   0.9868454  )
         2           Zn  tau(   2) = (  -0.0909889   0.6828736  -0.1741892  )
         3           O   tau(   3) = (   0.6292880   0.0786088   1.0881840  )
         4           O   tau(   4) = (  -0.1166319   0.4533841   0.3464985  )

     number of k points=   112

     Number of k-points >= 100: set verbosity='high' to print them.

     Dense  grid:    44163 G-vectors     FFT dimensions: (  40,  40,  64)

     Smooth grid:    15561 G-vectors     FFT dimensions: (  27,  27,  45)

     Estimated max dynamical RAM per process >      30.35 MB

     Estimated total dynamical RAM >     242.82 MB

     Check: negative core charge=   -0.000002

     Initial potential from superposition of free atoms

     starting charge      35.9925, renormalised to      36.0000
     Starting wfcs are   26 randomized atomic wfcs

     total cpu time spent up to now is        4.0 secs

     Self-consistent Calculation

     iteration #  1     ecut=    50.00 Ry     beta= 0.30
     Davidson diagonalization with overlap
     ethr =  1.00E-02,  avg # of iterations =  5.0

     total cpu time spent up to now is       13.3 secs

     total energy              =    -303.96938111 Ry
     estimated scf accuracy    <       3.32329759 Ry

     iteration #  2     ecut=    50.00 Ry     beta= 0.30
     Davidson diagonalization with overlap
     ethr =  9.23E-03,  avg # of iterations =  2.0

     total cpu time spent up to now is       18.5 secs

     total energy              =    -303.67983403 Ry
     estimated scf accuracy    <       0.80132016 Ry

     iteration #  3     ecut=    50.00 Ry     beta= 0.30
     Davidson diagonalization with overlap
     ethr =  2.23E-03,  avg # of iterations =  9.7

     total cpu time spent up to now is       28.9 secs

     total energy              =    -304.52621018 Ry
     estimated scf accuracy    <       4.72144954 Ry

     iteration #  4     ecut=    50.00 Ry     beta= 0.30
     Davidson diagonalization with overlap
     ethr =  2.23E-03,  avg # of iterations =  1.0

     total cpu time spent up to now is       33.5 secs

     total energy              =    -304.47950722 Ry
     estimated scf accuracy    <       4.46065857 Ry

     iteration #  5     ecut=    50.00 Ry     beta= 0.30
     Davidson diagonalization with overlap
     ethr =  2.23E-03,  avg # of iterations =  1.0

     total cpu time spent up to now is       38.2 secs

     total energy              =    -304.54883723 Ry
     estimated scf accuracy    <       4.24926563 Ry

     iteration #  6     ecut=    50.00 Ry     beta= 0.30
     Davidson diagonalization with overlap
     ethr =  2.23E-03,  avg # of iterations =  1.0

     total cpu time spent up to now is       42.8 secs

     total energy              =    -300.94244257 Ry
     estimated scf accuracy    <       4.30778711 Ry

     iteration #  7     ecut=    50.00 Ry     beta= 0.30
     Davidson diagonalization with overlap
     ethr =  2.23E-03,  avg # of iterations =  9.2

     total cpu time spent up to now is       56.8 secs

     total energy              =    -306.81067273 Ry
     estimated scf accuracy    <      12.82365724 Ry

     iteration #  8     ecut=    50.00 Ry     beta= 0.30
     Davidson diagonalization with overlap
     ethr =  2.23E-03,  avg # of iterations =  2.1

     total cpu time spent up to now is       62.8 secs

     total energy              =    -306.55556681 Ry
     estimated scf accuracy    <       8.84736975 Ry

     iteration #  9     ecut=    50.00 Ry     beta= 0.30
     Davidson diagonalization with overlap
     ethr =  2.23E-03,  avg # of iterations =  1.8

     total cpu time spent up to now is       67.8 secs

     total energy              =    -303.98130136 Ry
     estimated scf accuracy    <       7.88790515 Ry

     iteration # 10     ecut=    50.00 Ry     beta= 0.30
     Davidson diagonalization with overlap
     ethr =  2.23E-03,  avg # of iterations =  4.5

     total cpu time spent up to now is       76.4 secs

     total energy              =    -304.42017706 Ry
     estimated scf accuracy    <       1.70999444 Ry

     iteration # 11     ecut=    50.00 Ry     beta= 0.30
     Davidson diagonalization with overlap
     ethr =  2.23E-03,  avg # of iterations =  1.0

     total cpu time spent up to now is       81.1 secs

     total energy              =    -303.74783189 Ry
     estimated scf accuracy    <       1.45129607 Ry

     iteration # 12     ecut=    50.00 Ry     beta= 0.30
     Davidson diagonalization with overlap
     ethr =  2.23E-03,  avg # of iterations =  6.6

     total cpu time spent up to now is       88.8 secs

     total energy              =    -304.09000601 Ry
     estimated scf accuracy    <       0.16972857 Ry

     iteration # 13     ecut=    50.00 Ry     beta= 0.30
     Davidson diagonalization with overlap
     ethr =  4.71E-04,  avg # of iterations =  1.9

     total cpu time spent up to now is       93.9 secs

     total energy              =    -304.09826270 Ry
     estimated scf accuracy    <       0.09725365 Ry

     iteration # 14     ecut=    50.00 Ry     beta= 0.30
     Davidson diagonalization with overlap
     ethr =  2.70E-04,  avg # of iterations =  5.4

     total cpu time spent up to now is      100.1 secs

     total energy              =    -304.10942888 Ry
     estimated scf accuracy    <       0.03972450 Ry

     iteration # 15     ecut=    50.00 Ry     beta= 0.30
     Davidson diagonalization with overlap
     ethr =  1.10E-04,  avg # of iterations =  4.0

     total cpu time spent up to now is      105.9 secs

     total energy              =    -304.10376609 Ry
     estimated scf accuracy    <       0.02738315 Ry

     iteration # 16     ecut=    50.00 Ry     beta= 0.30
     Davidson diagonalization with overlap
     ethr =  7.61E-05,  avg # of iterations =  6.9

     total cpu time spent up to now is      113.5 secs

     total energy              =    -304.13605790 Ry
     estimated scf accuracy    <       0.05206578 Ry

     iteration # 17     ecut=    50.00 Ry     beta= 0.30
     Davidson diagonalization with overlap
     ethr =  7.61E-05,  avg # of iterations =  6.4

     total cpu time spent up to now is      121.0 secs

     total energy              =    -304.13731706 Ry
     estimated scf accuracy    <       0.21222146 Ry

     iteration # 18     ecut=    50.00 Ry     beta= 0.30
     Davidson diagonalization with overlap
     ethr =  7.61E-05,  avg # of iterations =  1.0

     total cpu time spent up to now is      125.7 secs

     total energy              =    -304.10457453 Ry
     estimated scf accuracy    <       0.19320602 Ry

     iteration # 19     ecut=    50.00 Ry     beta= 0.30
     Davidson diagonalization with overlap
     ethr =  7.61E-05,  avg # of iterations =  4.2

     total cpu time spent up to now is      131.9 secs

     total energy              =    -304.10601399 Ry
     estimated scf accuracy    <       0.06051020 Ry

     iteration # 20     ecut=    50.00 Ry     beta= 0.30
     Davidson diagonalization with overlap
     ethr =  7.61E-05,  avg # of iterations =  1.9

     total cpu time spent up to now is      137.0 secs

     total energy              =    -304.10230656 Ry
     estimated scf accuracy    <       0.04332700 Ry

     iteration # 21     ecut=    50.00 Ry     beta= 0.30
     Davidson diagonalization with overlap
     ethr =  7.61E-05,  avg # of iterations =  2.7

     total cpu time spent up to now is      142.4 secs

     total energy              =    -304.09957502 Ry
     estimated scf accuracy    <       0.02347724 Ry

     iteration # 22     ecut=    50.00 Ry     beta= 0.30
     Davidson diagonalization with overlap
     ethr =  6.52E-05,  avg # of iterations =  6.4

     total cpu time spent up to now is      149.1 secs

     total energy              =    -304.10415402 Ry
     estimated scf accuracy    <       0.00024488 Ry

     iteration # 23     ecut=    50.00 Ry     beta= 0.30
     Davidson diagonalization with overlap
     ethr =  6.80E-07,  avg # of iterations = 11.6

     total cpu time spent up to now is      160.4 secs

     total energy              =    -304.10491979 Ry
     estimated scf accuracy    <       0.00641423 Ry

     iteration # 24     ecut=    50.00 Ry     beta= 0.30
     Davidson diagonalization with overlap
     ethr =  6.80E-07,  avg # of iterations =  6.7

     total cpu time spent up to now is      168.2 secs

     total energy              =    -304.10491543 Ry
     estimated scf accuracy    <       0.00184858 Ry

     iteration # 25     ecut=    50.00 Ry     beta= 0.30
     Davidson diagonalization with overlap
     ethr =  6.80E-07,  avg # of iterations =  1.9

     total cpu time spent up to now is      173.2 secs

     total energy              =    -304.10440315 Ry
     estimated scf accuracy    <       0.00143824 Ry

     iteration # 26     ecut=    50.00 Ry     beta= 0.30
     Davidson diagonalization with overlap
     ethr =  6.80E-07,  avg # of iterations =  8.4

     total cpu time spent up to now is      181.8 secs

     total energy              =    -304.10477040 Ry
     estimated scf accuracy    <       0.00031171 Ry

     iteration # 27     ecut=    50.00 Ry     beta= 0.30
     Davidson diagonalization with overlap
     ethr =  6.80E-07,  avg # of iterations =  6.0

     total cpu time spent up to now is      188.4 secs

     total energy              =    -304.10481481 Ry
     estimated scf accuracy    <       0.00000254 Ry

     iteration # 28     ecut=    50.00 Ry     beta= 0.30
     Davidson diagonalization with overlap
     ethr =  7.06E-09,  avg # of iterations = 10.8

     total cpu time spent up to now is      199.2 secs

     total energy              =    -304.10481634 Ry
     estimated scf accuracy    <       0.00004234 Ry

     iteration # 29     ecut=    50.00 Ry     beta= 0.30
     Davidson diagonalization with overlap
     ethr =  7.06E-09,  avg # of iterations =  7.5

     total cpu time spent up to now is      207.6 secs

     total energy              =    -304.10482067 Ry
     estimated scf accuracy    <       0.00000077 Ry

     iteration # 30     ecut=    50.00 Ry     beta= 0.30
     Davidson diagonalization with overlap
     ethr =  2.13E-09,  avg # of iterations =  6.9

     total cpu time spent up to now is      214.9 secs

     total energy              =    -304.10482097 Ry
     estimated scf accuracy    <       0.00000026 Ry

     iteration # 31     ecut=    50.00 Ry     beta= 0.30
     Davidson diagonalization with overlap
     ethr =  7.32E-10,  avg # of iterations =  1.8

     total cpu time spent up to now is      219.6 secs

     total energy              =    -304.10482096 Ry
     estimated scf accuracy    <       0.00000028 Ry

     iteration # 32     ecut=    50.00 Ry     beta= 0.30
     Davidson diagonalization with overlap
     ethr =  7.32E-10,  avg # of iterations =  1.0

     total cpu time spent up to now is      224.2 secs

     total energy              =    -304.10482090 Ry
     estimated scf accuracy    <       0.00000024 Ry

     iteration # 33     ecut=    50.00 Ry     beta= 0.30
     Davidson diagonalization with overlap
     ethr =  6.74E-10,  avg # of iterations =  2.1

     total cpu time spent up to now is      229.4 secs

     total energy              =    -304.10482091 Ry
     estimated scf accuracy    <       0.00000005 Ry

     iteration # 34     ecut=    50.00 Ry     beta= 0.30
     Davidson diagonalization with overlap
     ethr =  1.51E-10,  avg # of iterations =  7.1

     total cpu time spent up to now is      236.1 secs

     End of self-consistent calculation

     Number of k-points >= 100: set verbosity='high' to print the bands.

     highest occupied level (ev):     9.7482

!    total energy              =    -304.10482092 Ry
     estimated scf accuracy    <          7.5E-09 Ry

     The total energy is the sum of the following terms:
     one-electron contribution =    -313.64851109 Ry
     hartree contribution      =     186.11716738 Ry
     xc contribution           =    -115.19692026 Ry
     ewald contribution        =     -61.37655695 Ry

     convergence has been achieved in  34 iterations

     Forces acting on atoms (cartesian axes, Ry/au):

     atom    1 type  1   force =   -66.79995873   73.72894196 -143.05480443
     atom    2 type  1   force =    -0.33067844   -0.50945307    0.92962514
     atom    3 type  2   force =    67.13245998  -73.23131705  142.22523514
     atom    4 type  2   force =    -0.00182281    0.01182816   -0.10005585
     The non-local contrib.  to forces
     atom    1 type  1   force =    14.75968203  -16.53183213   32.39884253
     atom    2 type  1   force =     0.03752966    0.39121893   -1.21819014
     atom    3 type  2   force =    -1.90524575    1.55209325   -3.13692158
     atom    4 type  2   force =    -0.00208340    0.38240825   -0.96643850
     The ionic contribution  to forces
     atom    1 type  1   force =   -91.86412287  108.19931459 -221.42032680
     atom    2 type  1   force =    -6.58174224   -7.42251383   26.38073495
     atom    3 type  2   force =    98.28706758  -98.79046302  190.00004609
     atom    4 type  2   force =     0.15879753   -1.98633774    5.03954576
     The local contribution  to forces
     atom    1 type  1   force =     9.46421372  -16.99737457   44.14193631
     atom    2 type  1   force =     6.17233088    6.48653350  -24.19722992
     atom    3 type  2   force =   -29.06387127   23.80164411  -44.24298438
     atom    4 type  2   force =    -0.15858319    1.61928320   -4.18251079
     The core correction contribution to forces
     atom    1 type  1   force =     0.84029748   -0.94115719    1.82466283
     atom    2 type  1   force =     0.04119517    0.03531089   -0.03569650
     atom    3 type  2   force =    -0.18549582    0.20542693   -0.39497038
     atom    4 type  2   force =     0.00003989   -0.00352810    0.00944082
     The Hubbard contrib.    to forces
     atom    1 type  1   force =     0.00000000    0.00000000    0.00000000
     atom    2 type  1   force =     0.00000000    0.00000000    0.00000000
     atom    3 type  2   force =     0.00000000    0.00000000    0.00000000
     atom    4 type  2   force =     0.00000000    0.00000000    0.00000000
     The SCF correction term to forces
     atom    1 type  1   force =    -0.00004365   -0.00000922    0.00008023
     atom    2 type  1   force =    -0.00000647   -0.00000305    0.00000628
     atom    3 type  2   force =    -0.00000931   -0.00001881    0.00006492
     atom    4 type  2   force =    -0.00000819    0.00000206   -0.00009361

     Total force =   245.889654     Total SCF correction =     0.000148

     Writing all to output data dir ./ZnO_ANN.save/

     init_run     :      3.49s CPU      3.58s WALL (       1 calls)
     electrons    :    227.70s CPU    232.05s WALL (       1 calls)
     forces       :      1.14s CPU      1.15s WALL (       1 calls)

     Called by init_run:
     wfcinit      :      2.56s CPU      2.61s WALL (       1 calls)
     potinit      :      0.26s CPU      0.27s WALL (       1 calls)
     hinit0       :      0.57s CPU      0.58s WALL (       1 calls)

     Called by electrons:
     c_bands      :    200.59s CPU    204.29s WALL (      34 calls)
     sum_band     :     24.62s CPU     25.21s WALL (      34 calls)
     v_of_rho     :      0.48s CPU      0.52s WALL (      35 calls)
     newd         :      1.94s CPU      1.97s WALL (      35 calls)
     mix_rho      :      0.09s CPU      0.10s WALL (      34 calls)

     Called by c_bands:
     init_us_2    :      1.78s CPU      1.81s WALL (    7840 calls)
     init_us_2:cp :      1.75s CPU      1.78s WALL (    7840 calls)
     cegterg      :    195.01s CPU    198.62s WALL (    3808 calls)

     Called by *egterg:
     cdiaghg      :     23.52s CPU     23.72s WALL (   21425 calls)
     h_psi        :    116.85s CPU    119.58s WALL (   21537 calls)
     s_psi        :     14.81s CPU     14.94s WALL (   21537 calls)
     g_psi        :      0.36s CPU      0.37s WALL (   17617 calls)

     Called by h_psi:
     h_psi:calbec :     15.27s CPU     15.77s WALL (   21537 calls)
     vloc_psi     :     86.30s CPU     88.39s WALL (   21537 calls)
     add_vuspsi   :     14.87s CPU     15.01s WALL (   21537 calls)

     General routines
     calbec       :     21.09s CPU     21.73s WALL (   25793 calls)
     fft          :      0.58s CPU      0.63s WALL (     464 calls)
     ffts         :      0.08s CPU      0.09s WALL (      69 calls)
     fftw         :     90.86s CPU     93.09s WALL (  453708 calls)
     interpolate  :      0.10s CPU      0.10s WALL (      35 calls)

     Parallel routines

     PWSCF        :   3m53.08s CPU   3m57.70s WALL


   This run was terminated on:  16:55: 2  24Jun2025            

=------------------------------------------------------------------------------=
   JOB DONE.
=------------------------------------------------------------------------------=
Note: The following floating-point exceptions are signalling: IEEE_INVALID_FLAG
