
     Program PWSCF v.7.2 starts on 24Jun2025 at 15:59: 5 

     This program is part of the open-source Quantum ESPRESSO suite
     for quantum simulation of materials; please cite
         "P. Giannozzi et al., J. Phys.:Condens. Matter 21 395502 (2009);
         "P. Giannozzi et al., J. Phys.:Condens. Matter 29 465901 (2017);
         "P. Giannozzi et al., J. Chem. Phys. 152 154105 (2020);
          URL http://www.quantum-espresso.org", 
     in publications or presentations arising from this work. More details at
     http://www.quantum-espresso.org/quote

     Parallel version (MPI), running on     8 processors

     MPI processes distributed on     1 nodes
     91144 MiB available memory on the printing compute node when the environment starts

     Reading input from /home/jvc/QEspresso7.2/ZnO_DataBase/scf_025_NOSYM.in/scf-5.93-1.68-0.25-1.in

     Current dimensions of program PWSCF are:
     Max number of different atomic species (ntypx) = 10
     Max number of k-points (npk) =  40000
     Max angular momentum in pseudopotentials (lmaxx) =  4
     file Zn.upf: wavefunction(s)  3D renormalized

     R & G space division:  proc/nbgrp/npool/nimage =       8
     Subspace diagonalization in iterative solution of the eigenvalue problem:
     a serial algorithm will be used


     Parallelization info
     --------------------
     sticks:   dense  smooth     PW     G-vecs:    dense   smooth      PW
     Min         119      62     18                 4887     1734     288
     Max         120      63     19                 4898     1737     293
     Sum         955     499    151                39127    13885    2333

     Using Slab Decomposition



     bravais-lattice index     =            0
     lattice parameter (alat)  =       5.9317  a.u.
     unit-cell volume          =     289.1886 (a.u.)^3
     number of atoms/cell      =            4
     number of atomic types    =            2
     number of electrons       =        36.00
     number of Kohn-Sham states=           18
     kinetic-energy cutoff     =      50.0000  Ry
     charge density cutoff     =     400.0000  Ry
     scf convergence threshold =      1.0E-08
     mixing beta               =       0.3000
     number of iterations used =            8  plain     mixing
     Exchange-correlation= PBE
                           (   1   4   3   4   0   0   0)

     celldm(1)=   5.931669  celldm(2)=   0.000000  celldm(3)=   0.000000
     celldm(4)=   0.000000  celldm(5)=   0.000000  celldm(6)=   0.000000

     crystal axes: (cart. coord. in units of alat)
               a(1) = (   1.000000   0.000000   0.000000 )  
               a(2) = (  -0.500000   0.866025   0.000000 )  
               a(3) = (   0.000000   0.000000   1.600000 )  

     reciprocal axes: (cart. coord. in units 2 pi/alat)
               b(1) = (  1.000000  0.577350 -0.000000 )  
               b(2) = (  0.000000  1.154701  0.000000 )  
               b(3) = (  0.000000 -0.000000  0.625000 )  


     PseudoPot. # 1 for Zn read from file:
     ./pseudos/Zn.upf
     MD5 check sum: 7f56cabf9682ed8c977c2f7d0c5985c5
     Pseudo is Ultrasoft + core correction, Zval = 12.0
     Generated using &quot;atomic&quot; code by A. Dal Corso  v.6.2.2
     Using radial grid of 1201 points,  6 beta functions with: 
                l(1) =   0
                l(2) =   0
                l(3) =   1
                l(4) =   1
                l(5) =   2
                l(6) =   2
     Q(r) pseudized with 0 coefficients 


     PseudoPot. # 2 for O  read from file:
     ./pseudos/O.upf
     MD5 check sum: 91400c9766925bcf19f520983a725ff0
     Pseudo is Ultrasoft + core correction, Zval =  6.0
     Generated using &quot;atomic&quot; code by A. Dal Corso  v.6.3MaX
     Using radial grid of 1095 points,  4 beta functions with: 
                l(1) =   0
                l(2) =   0
                l(3) =   1
                l(4) =   1
     Q(r) pseudized with 0 coefficients 


     atomic species   valence    mass     pseudopotential
        Zn            12.00    63.38000     Zn( 1.00)
        O              6.00    15.99900     O ( 1.00)

     No symmetry found



   Cartesian axes

     site n.     atom                  positions (alat units)
         1           Zn  tau(   1) = (   0.3967961   0.4686734   0.5114889  )
         2           Zn  tau(   2) = (   0.0208589   0.4631026   0.0208302  )
         3           O   tau(   3) = (   0.2018451   0.4499422   1.0409405  )
         4           O   tau(   4) = (   0.0616826   0.7339882   0.8621177  )

     number of k points=   112

     Number of k-points >= 100: set verbosity='high' to print them.

     Dense  grid:    39127 G-vectors     FFT dimensions: (  40,  40,  64)

     Smooth grid:    13885 G-vectors     FFT dimensions: (  27,  27,  45)

     Estimated max dynamical RAM per process >      27.34 MB

     Estimated total dynamical RAM >     218.72 MB

     Check: negative core charge=   -0.000002

     Initial potential from superposition of free atoms

     starting charge      35.9925, renormalised to      36.0000
     Starting wfcs are   26 randomized atomic wfcs

     total cpu time spent up to now is        3.9 secs

     Self-consistent Calculation

     iteration #  1     ecut=    50.00 Ry     beta= 0.30
     Davidson diagonalization with overlap
     ethr =  1.00E-02,  avg # of iterations =  2.0

     total cpu time spent up to now is        9.0 secs

     total energy              =    -360.60216292 Ry
     estimated scf accuracy    <       0.57562541 Ry

     iteration #  2     ecut=    50.00 Ry     beta= 0.30
     Davidson diagonalization with overlap
     ethr =  1.60E-03,  avg # of iterations =  5.6

     total cpu time spent up to now is       16.1 secs

     total energy              =    -360.79066277 Ry
     estimated scf accuracy    <       0.09005587 Ry

     iteration #  3     ecut=    50.00 Ry     beta= 0.30
     Davidson diagonalization with overlap
     ethr =  2.50E-04,  avg # of iterations =  4.3

     total cpu time spent up to now is       22.6 secs

     total energy              =    -360.80346400 Ry
     estimated scf accuracy    <       0.02491487 Ry

     iteration #  4     ecut=    50.00 Ry     beta= 0.30
     Davidson diagonalization with overlap
     ethr =  6.92E-05,  avg # of iterations =  7.0

     total cpu time spent up to now is       30.8 secs

     total energy              =    -360.80938789 Ry
     estimated scf accuracy    <       0.02205178 Ry

     iteration #  5     ecut=    50.00 Ry     beta= 0.30
     Davidson diagonalization with overlap
     ethr =  6.13E-05,  avg # of iterations =  5.0

     total cpu time spent up to now is       36.7 secs

     total energy              =    -360.81354563 Ry
     estimated scf accuracy    <       0.00079814 Ry

     iteration #  6     ecut=    50.00 Ry     beta= 0.30
     Davidson diagonalization with overlap
     ethr =  2.22E-06,  avg # of iterations = 10.1

     total cpu time spent up to now is       48.3 secs

     total energy              =    -360.81363109 Ry
     estimated scf accuracy    <       0.00318410 Ry

     iteration #  7     ecut=    50.00 Ry     beta= 0.30
     Davidson diagonalization with overlap
     ethr =  2.22E-06,  avg # of iterations = 10.7

     total cpu time spent up to now is       58.3 secs

     total energy              =    -360.81420956 Ry
     estimated scf accuracy    <       0.00152838 Ry

     iteration #  8     ecut=    50.00 Ry     beta= 0.30
     Davidson diagonalization with overlap
     ethr =  2.22E-06,  avg # of iterations =  7.1

     total cpu time spent up to now is       65.1 secs

     total energy              =    -360.81452287 Ry
     estimated scf accuracy    <       0.00032065 Ry

     iteration #  9     ecut=    50.00 Ry     beta= 0.30
     Davidson diagonalization with overlap
     ethr =  8.91E-07,  avg # of iterations =  6.5

     total cpu time spent up to now is       71.3 secs

     total energy              =    -360.81460351 Ry
     estimated scf accuracy    <       0.00003310 Ry

     iteration # 10     ecut=    50.00 Ry     beta= 0.30
     Davidson diagonalization with overlap
     ethr =  9.20E-08,  avg # of iterations =  6.3

     total cpu time spent up to now is       78.3 secs

     total energy              =    -360.81461954 Ry
     estimated scf accuracy    <       0.00000105 Ry

     iteration # 11     ecut=    50.00 Ry     beta= 0.30
     Davidson diagonalization with overlap
     c_bands:  1 eigenvalues not converged
     c_bands:  1 eigenvalues not converged
     c_bands:  1 eigenvalues not converged
     ethr =  2.92E-09,  avg # of iterations = 10.6

     total cpu time spent up to now is       89.4 secs

     total energy              =    -360.81461990 Ry
     estimated scf accuracy    <       0.00000896 Ry

     iteration # 12     ecut=    50.00 Ry     beta= 0.30
     Davidson diagonalization with overlap
     ethr =  2.92E-09,  avg # of iterations =  5.8

     total cpu time spent up to now is       95.2 secs

     total energy              =    -360.81461905 Ry
     estimated scf accuracy    <       0.00000327 Ry

     iteration # 13     ecut=    50.00 Ry     beta= 0.30
     Davidson diagonalization with overlap
     ethr =  2.92E-09,  avg # of iterations =  7.0

     total cpu time spent up to now is      102.5 secs

     total energy              =    -360.81461977 Ry
     estimated scf accuracy    <       0.00000012 Ry

     iteration # 14     ecut=    50.00 Ry     beta= 0.30
     Davidson diagonalization with overlap
     ethr =  3.41E-10,  avg # of iterations =  4.1

     total cpu time spent up to now is      108.2 secs

     total energy              =    -360.81461974 Ry
     estimated scf accuracy    <       0.00000011 Ry

     iteration # 15     ecut=    50.00 Ry     beta= 0.30
     Davidson diagonalization with overlap
     ethr =  3.08E-10,  avg # of iterations =  6.9

     total cpu time spent up to now is      114.8 secs

     total energy              =    -360.81461978 Ry
     estimated scf accuracy    <       0.00000004 Ry

     iteration # 16     ecut=    50.00 Ry     beta= 0.30
     Davidson diagonalization with overlap
     ethr =  1.24E-10,  avg # of iterations =  1.7

     total cpu time spent up to now is      119.3 secs

     total energy              =    -360.81461978 Ry
     estimated scf accuracy    <       0.00000003 Ry

     iteration # 17     ecut=    50.00 Ry     beta= 0.30
     Davidson diagonalization with overlap
     ethr =  8.61E-11,  avg # of iterations =  6.1

     total cpu time spent up to now is      125.2 secs

     End of self-consistent calculation

     Number of k-points >= 100: set verbosity='high' to print the bands.

     highest occupied level (ev):    10.9558

!    total energy              =    -360.81461978 Ry
     estimated scf accuracy    <          8.1E-10 Ry

     The total energy is the sum of the following terms:
     one-electron contribution =    -155.41390579 Ry
     hartree contribution      =     119.65567351 Ry
     xc contribution           =    -109.91508647 Ry
     ewald contribution        =    -215.14130103 Ry

     convergence has been achieved in  17 iterations

     Forces acting on atoms (cartesian axes, Ry/au):

     atom    1 type  1   force =     0.32244140   -0.05353256   -0.06364563
     atom    2 type  1   force =    -0.15846917   -0.02235956   -0.17736320
     atom    3 type  2   force =     0.24489376   -0.58353826    0.55563790
     atom    4 type  2   force =    -0.40886600    0.65943039   -0.31462907
     The non-local contrib.  to forces
     atom    1 type  1   force =     0.08672770   -0.08849592    0.25260073
     atom    2 type  1   force =    -0.16588703    0.12237599   -0.16067048
     atom    3 type  2   force =    -1.06842495    2.07768573   -0.93036091
     atom    4 type  2   force =     1.22179672   -2.29754460    0.68625161
     The ionic contribution  to forces
     atom    1 type  1   force =     9.18722643   -1.67718772   -3.43720458
     atom    2 type  1   force =    -5.54963740   -0.61381585   -9.97220754
     atom    3 type  2   force =     3.63366140   -9.25451603   11.15303856
     atom    4 type  2   force =    -7.27125043   11.54551960    2.25637356
     The local contribution  to forces
     atom    1 type  1   force =    -8.90574030    1.69226182    3.10272137
     atom    2 type  1   force =     5.53253995    0.47318041    9.94813609
     atom    3 type  2   force =    -2.32888282    6.60868212   -9.67210970
     atom    4 type  2   force =     5.64911266   -8.60553605   -3.25193772
     The core correction contribution to forces
     atom    1 type  1   force =    -0.04578507    0.01988721    0.01837611
     atom    2 type  1   force =     0.02453070   -0.00411048    0.00731478
     atom    3 type  2   force =     0.00855209   -0.01540773    0.00501815
     atom    4 type  2   force =    -0.00853185    0.01701041   -0.00533152
     The Hubbard contrib.    to forces
     atom    1 type  1   force =     0.00000000    0.00000000    0.00000000
     atom    2 type  1   force =     0.00000000    0.00000000    0.00000000
     atom    3 type  2   force =     0.00000000    0.00000000    0.00000000
     atom    4 type  2   force =     0.00000000    0.00000000    0.00000000
     The SCF correction term to forces
     atom    1 type  1   force =     0.00001440    0.00000414   -0.00014950
     atom    2 type  1   force =    -0.00001363    0.00001245    0.00005369
     atom    3 type  2   force =    -0.00001020    0.00001974    0.00004155
     atom    4 type  2   force =     0.00000866   -0.00001687    0.00000474

     Total force =     1.256260     Total SCF correction =     0.000169

     Writing all to output data dir ./ZnO_ANN.save/

     init_run     :      3.35s CPU      3.42s WALL (       1 calls)
     electrons    :    119.37s CPU    121.37s WALL (       1 calls)
     forces       :      1.03s CPU      1.04s WALL (       1 calls)

     Called by init_run:
     wfcinit      :      2.42s CPU      2.47s WALL (       1 calls)
     potinit      :      0.25s CPU      0.26s WALL (       1 calls)
     hinit0       :      0.59s CPU      0.60s WALL (       1 calls)

     Called by electrons:
     c_bands      :    106.66s CPU    108.38s WALL (      17 calls)
     sum_band     :     11.55s CPU     11.80s WALL (      17 calls)
     v_of_rho     :      0.25s CPU      0.26s WALL (      18 calls)
     newd         :      0.91s CPU      0.93s WALL (      18 calls)
     mix_rho      :      0.04s CPU      0.04s WALL (      17 calls)

     Called by c_bands:
     init_us_2    :      0.73s CPU      0.74s WALL (    4032 calls)
     init_us_2:cp :      0.71s CPU      0.73s WALL (    4032 calls)
     cegterg      :    104.21s CPU    105.88s WALL (    1904 calls)

     Called by *egterg:
     cdiaghg      :     14.25s CPU     14.37s WALL (   13875 calls)
     h_psi        :     60.83s CPU     62.06s WALL (   13987 calls)
     s_psi        :      5.87s CPU      5.93s WALL (   13987 calls)
     g_psi        :      0.19s CPU      0.19s WALL (   11971 calls)

     Called by h_psi:
     h_psi:calbec :      7.77s CPU      8.00s WALL (   13987 calls)
     vloc_psi     :     46.94s CPU     47.89s WALL (   13987 calls)
     add_vuspsi   :      5.91s CPU      5.97s WALL (   13987 calls)

     General routines
     calbec       :     10.67s CPU     10.97s WALL (   16339 calls)
     fft          :      0.45s CPU      0.47s WALL (     243 calls)
     ffts         :      0.07s CPU      0.08s WALL (      35 calls)
     fftw         :     49.32s CPU     50.33s WALL (  251796 calls)
     interpolate  :      0.08s CPU      0.08s WALL (      18 calls)

     Parallel routines

     PWSCF        :   2m 4.45s CPU   2m 6.68s WALL


   This run was terminated on:  16: 1:12  24Jun2025            

=------------------------------------------------------------------------------=
   JOB DONE.
=------------------------------------------------------------------------------=
Note: The following floating-point exceptions are signalling: IEEE_INVALID_FLAG
