
     Program PWSCF v.7.2 starts on 24Jun2025 at 20:41:44 

     This program is part of the open-source Quantum ESPRESSO suite
     for quantum simulation of materials; please cite
         "P. Giannozzi et al., J. Phys.:Condens. Matter 21 395502 (2009);
         "P. Giannozzi et al., J. Phys.:Condens. Matter 29 465901 (2017);
         "P. Giannozzi et al., J. Chem. Phys. 152 154105 (2020);
          URL http://www.quantum-espresso.org", 
     in publications or presentations arising from this work. More details at
     http://www.quantum-espresso.org/quote

     Parallel version (MPI), running on     8 processors

     MPI processes distributed on     1 nodes
     90687 MiB available memory on the printing compute node when the environment starts

     Reading input from /home/jvc/QEspresso7.2/ZnO_DataBase/scf_025_NOSYM.in/scf-6.80-1.55-0.25-2.in

     Current dimensions of program PWSCF are:
     Max number of different atomic species (ntypx) = 10
     Max number of k-points (npk) =  40000
     Max angular momentum in pseudopotentials (lmaxx) =  4
     file Zn.upf: wavefunction(s)  3D renormalized

     R & G space division:  proc/nbgrp/npool/nimage =       8
     Subspace diagonalization in iterative solution of the eigenvalue problem:
     a serial algorithm will be used


     Parallelization info
     --------------------
     sticks:   dense  smooth     PW     G-vecs:    dense   smooth      PW
     Min         160      81     24                 7354     2595     429
     Max         162      82     26                 7355     2598     432
     Sum        1285     649    199                58833    20773    3441

     Using Slab Decomposition



     bravais-lattice index     =            0
     lattice parameter (alat)  =       6.7967  a.u.
     unit-cell volume          =     435.0564 (a.u.)^3
     number of atoms/cell      =            4
     number of atomic types    =            2
     number of electrons       =        36.00
     number of Kohn-Sham states=           18
     kinetic-energy cutoff     =      50.0000  Ry
     charge density cutoff     =     400.0000  Ry
     scf convergence threshold =      1.0E-08
     mixing beta               =       0.3000
     number of iterations used =            8  plain     mixing
     Exchange-correlation= PBE
                           (   1   4   3   4   0   0   0)

     celldm(1)=   6.796704  celldm(2)=   0.000000  celldm(3)=   0.000000
     celldm(4)=   0.000000  celldm(5)=   0.000000  celldm(6)=   0.000000

     crystal axes: (cart. coord. in units of alat)
               a(1) = (   1.000000   0.000000   0.000000 )  
               a(2) = (  -0.500000   0.866025   0.000000 )  
               a(3) = (   0.000000   0.000000   1.600000 )  

     reciprocal axes: (cart. coord. in units 2 pi/alat)
               b(1) = (  1.000000  0.577350 -0.000000 )  
               b(2) = (  0.000000  1.154701  0.000000 )  
               b(3) = (  0.000000 -0.000000  0.625000 )  


     PseudoPot. # 1 for Zn read from file:
     ./pseudos/Zn.upf
     MD5 check sum: 7f56cabf9682ed8c977c2f7d0c5985c5
     Pseudo is Ultrasoft + core correction, Zval = 12.0
     Generated using &quot;atomic&quot; code by A. Dal Corso  v.6.2.2
     Using radial grid of 1201 points,  6 beta functions with: 
                l(1) =   0
                l(2) =   0
                l(3) =   1
                l(4) =   1
                l(5) =   2
                l(6) =   2
     Q(r) pseudized with 0 coefficients 


     PseudoPot. # 2 for O  read from file:
     ./pseudos/O.upf
     MD5 check sum: 91400c9766925bcf19f520983a725ff0
     Pseudo is Ultrasoft + core correction, Zval =  6.0
     Generated using &quot;atomic&quot; code by A. Dal Corso  v.6.3MaX
     Using radial grid of 1095 points,  4 beta functions with: 
                l(1) =   0
                l(2) =   0
                l(3) =   1
                l(4) =   1
     Q(r) pseudized with 0 coefficients 


     atomic species   valence    mass     pseudopotential
        Zn            12.00    63.38000     Zn( 1.00)
        O              6.00    15.99900     O ( 1.00)

     No symmetry found



   Cartesian axes

     site n.     atom                  positions (alat units)
         1           Zn  tau(   1) = (   0.6989281   0.2310215   0.8558878  )
         2           Zn  tau(   2) = (  -0.1758105   0.6516417   0.2670662  )
         3           O   tau(   3) = (   0.8298271   0.1422303   1.3933505  )
         4           O   tau(   4) = (   0.2286347   0.5399505   0.5386374  )

     number of k points=   112

     Number of k-points >= 100: set verbosity='high' to print them.

     Dense  grid:    58833 G-vectors     FFT dimensions: (  45,  45,  72)

     Smooth grid:    20773 G-vectors     FFT dimensions: (  32,  32,  50)

     Estimated max dynamical RAM per process >      39.41 MB

     Estimated total dynamical RAM >     315.24 MB

     Check: negative core charge=   -0.000002

     Initial potential from superposition of free atoms

     starting charge      35.9925, renormalised to      36.0000
     Starting wfcs are   26 randomized atomic wfcs

     total cpu time spent up to now is        4.8 secs

     Self-consistent Calculation

     iteration #  1     ecut=    50.00 Ry     beta= 0.30
     Davidson diagonalization with overlap
     ethr =  1.00E-02,  avg # of iterations =  1.7

     total cpu time spent up to now is       10.7 secs

     total energy              =    -361.06014275 Ry
     estimated scf accuracy    <       1.12314765 Ry

     iteration #  2     ecut=    50.00 Ry     beta= 0.30
     Davidson diagonalization with overlap
     ethr =  3.12E-03,  avg # of iterations =  5.2

     total cpu time spent up to now is       18.5 secs

     total energy              =    -361.29753870 Ry
     estimated scf accuracy    <       0.08258146 Ry

     iteration #  3     ecut=    50.00 Ry     beta= 0.30
     Davidson diagonalization with overlap
     ethr =  2.29E-04,  avg # of iterations =  5.8

     total cpu time spent up to now is       29.0 secs

     total energy              =    -361.34221261 Ry
     estimated scf accuracy    <       0.07118234 Ry

     iteration #  4     ecut=    50.00 Ry     beta= 0.30
     Davidson diagonalization with overlap
     ethr =  1.98E-04,  avg # of iterations =  3.4

     total cpu time spent up to now is       35.5 secs

     total energy              =    -361.34029433 Ry
     estimated scf accuracy    <       0.01656664 Ry

     iteration #  5     ecut=    50.00 Ry     beta= 0.30
     Davidson diagonalization with overlap
     c_bands:  1 eigenvalues not converged
     c_bands:  1 eigenvalues not converged
     ethr =  4.60E-05,  avg # of iterations =  8.2

     total cpu time spent up to now is       48.8 secs

     total energy              =    -361.33568018 Ry
     estimated scf accuracy    <       0.09015253 Ry

     iteration #  6     ecut=    50.00 Ry     beta= 0.30
     Davidson diagonalization with overlap
     ethr =  4.60E-05,  avg # of iterations =  6.0

     total cpu time spent up to now is       59.5 secs

     total energy              =    -361.35404448 Ry
     estimated scf accuracy    <       0.00339301 Ry

     iteration #  7     ecut=    50.00 Ry     beta= 0.30
     Davidson diagonalization with overlap
     ethr =  9.43E-06,  avg # of iterations =  7.2

     total cpu time spent up to now is       69.5 secs

     total energy              =    -361.35548783 Ry
     estimated scf accuracy    <       0.00281417 Ry

     iteration #  8     ecut=    50.00 Ry     beta= 0.30
     Davidson diagonalization with overlap
     ethr =  7.82E-06,  avg # of iterations =  6.6

     total cpu time spent up to now is       78.3 secs

     total energy              =    -361.35412091 Ry
     estimated scf accuracy    <       0.00483445 Ry

     iteration #  9     ecut=    50.00 Ry     beta= 0.30
     Davidson diagonalization with overlap
     ethr =  7.82E-06,  avg # of iterations =  5.9

     total cpu time spent up to now is       87.8 secs

     total energy              =    -361.35522063 Ry
     estimated scf accuracy    <       0.00091600 Ry

     iteration # 10     ecut=    50.00 Ry     beta= 0.30
     Davidson diagonalization with overlap
     ethr =  2.54E-06,  avg # of iterations =  6.2

     total cpu time spent up to now is       96.1 secs

     total energy              =    -361.35546624 Ry
     estimated scf accuracy    <       0.00008904 Ry

     iteration # 11     ecut=    50.00 Ry     beta= 0.30
     Davidson diagonalization with overlap
     c_bands:  1 eigenvalues not converged
     c_bands:  1 eigenvalues not converged
     c_bands:  1 eigenvalues not converged
     ethr =  2.47E-07,  avg # of iterations =  6.3

     total cpu time spent up to now is      104.5 secs

     total energy              =    -361.35548402 Ry
     estimated scf accuracy    <       0.00007300 Ry

     iteration # 12     ecut=    50.00 Ry     beta= 0.30
     Davidson diagonalization with overlap
     ethr =  2.03E-07,  avg # of iterations =  5.0

     total cpu time spent up to now is      112.0 secs

     total energy              =    -361.35565488 Ry
     estimated scf accuracy    <       0.00009294 Ry

     iteration # 13     ecut=    50.00 Ry     beta= 0.30
     Davidson diagonalization with overlap
     ethr =  2.03E-07,  avg # of iterations =  1.1

     total cpu time spent up to now is      117.4 secs

     total energy              =    -361.35565931 Ry
     estimated scf accuracy    <       0.00009675 Ry

     iteration # 14     ecut=    50.00 Ry     beta= 0.30
     Davidson diagonalization with overlap
     ethr =  2.03E-07,  avg # of iterations =  1.4

     total cpu time spent up to now is      122.9 secs

     total energy              =    -361.35565950 Ry
     estimated scf accuracy    <       0.00010648 Ry

     iteration # 15     ecut=    50.00 Ry     beta= 0.30
     Davidson diagonalization with overlap
     ethr =  2.03E-07,  avg # of iterations =  1.0

     total cpu time spent up to now is      128.2 secs

     total energy              =    -361.35566253 Ry
     estimated scf accuracy    <       0.00010436 Ry

     iteration # 16     ecut=    50.00 Ry     beta= 0.30
     Davidson diagonalization with overlap
     ethr =  2.03E-07,  avg # of iterations =  1.0

     total cpu time spent up to now is      133.6 secs

     total energy              =    -361.35569562 Ry
     estimated scf accuracy    <       0.00011130 Ry

     iteration # 17     ecut=    50.00 Ry     beta= 0.30
     Davidson diagonalization with overlap
     ethr =  2.03E-07,  avg # of iterations =  7.1

     total cpu time spent up to now is      142.6 secs

     total energy              =    -361.35560550 Ry
     estimated scf accuracy    <       0.00050871 Ry

     iteration # 18     ecut=    50.00 Ry     beta= 0.30
     Davidson diagonalization with overlap
     ethr =  2.03E-07,  avg # of iterations =  6.6

     total cpu time spent up to now is      152.4 secs

     total energy              =    -361.35565913 Ry
     estimated scf accuracy    <       0.00011328 Ry

     iteration # 19     ecut=    50.00 Ry     beta= 0.30
     Davidson diagonalization with overlap
     ethr =  2.03E-07,  avg # of iterations =  1.5

     total cpu time spent up to now is      158.0 secs

     total energy              =    -361.35565718 Ry
     estimated scf accuracy    <       0.00011220 Ry

     iteration # 20     ecut=    50.00 Ry     beta= 0.30
     Davidson diagonalization with overlap
     ethr =  2.03E-07,  avg # of iterations =  1.2

     total cpu time spent up to now is      163.6 secs

     total energy              =    -361.35560936 Ry
     estimated scf accuracy    <       0.00010231 Ry

     iteration # 21     ecut=    50.00 Ry     beta= 0.30
     Davidson diagonalization with overlap
     ethr =  2.03E-07,  avg # of iterations =  7.6

     total cpu time spent up to now is      174.7 secs

     total energy              =    -361.35562162 Ry
     estimated scf accuracy    <       0.00016829 Ry

     iteration # 22     ecut=    50.00 Ry     beta= 0.30
     Davidson diagonalization with overlap
     ethr =  2.03E-07,  avg # of iterations =  5.3

     total cpu time spent up to now is      184.9 secs

     total energy              =    -361.35563736 Ry
     estimated scf accuracy    <       0.00017985 Ry

     iteration # 23     ecut=    50.00 Ry     beta= 0.30
     Davidson diagonalization with overlap
     ethr =  2.03E-07,  avg # of iterations =  2.0

     total cpu time spent up to now is      191.0 secs

     total energy              =    -361.35561792 Ry
     estimated scf accuracy    <       0.00009814 Ry

     iteration # 24     ecut=    50.00 Ry     beta= 0.30
     Davidson diagonalization with overlap
     ethr =  2.03E-07,  avg # of iterations =  6.9

     total cpu time spent up to now is      199.8 secs

     total energy              =    -361.35564393 Ry
     estimated scf accuracy    <       0.00001132 Ry

     iteration # 25     ecut=    50.00 Ry     beta= 0.30
     Davidson diagonalization with overlap
     ethr =  3.14E-08,  avg # of iterations =  3.2

     total cpu time spent up to now is      206.5 secs

     total energy              =    -361.35564397 Ry
     estimated scf accuracy    <       0.00000652 Ry

     iteration # 26     ecut=    50.00 Ry     beta= 0.30
     Davidson diagonalization with overlap
     ethr =  1.81E-08,  avg # of iterations =  5.2

     total cpu time spent up to now is      213.9 secs

     total energy              =    -361.35564580 Ry
     estimated scf accuracy    <       0.00000037 Ry

     iteration # 27     ecut=    50.00 Ry     beta= 0.30
     Davidson diagonalization with overlap
     c_bands:  1 eigenvalues not converged
     c_bands:  1 eigenvalues not converged
     c_bands:  2 eigenvalues not converged
     c_bands:  2 eigenvalues not converged
     c_bands:  1 eigenvalues not converged
     c_bands:  2 eigenvalues not converged
     ethr =  1.02E-09,  avg # of iterations =  8.2

     total cpu time spent up to now is      225.2 secs

     total energy              =    -361.35564616 Ry
     estimated scf accuracy    <       0.00000348 Ry

     iteration # 28     ecut=    50.00 Ry     beta= 0.30
     Davidson diagonalization with overlap
     c_bands:  1 eigenvalues not converged
     ethr =  1.02E-09,  avg # of iterations =  1.6

     total cpu time spent up to now is      230.9 secs

     total energy              =    -361.35564621 Ry
     estimated scf accuracy    <       0.00000311 Ry

     iteration # 29     ecut=    50.00 Ry     beta= 0.30
     Davidson diagonalization with overlap
     ethr =  1.02E-09,  avg # of iterations =  1.0

     total cpu time spent up to now is      236.2 secs

     total energy              =    -361.35564624 Ry
     estimated scf accuracy    <       0.00000315 Ry

     iteration # 30     ecut=    50.00 Ry     beta= 0.30
     Davidson diagonalization with overlap
     ethr =  1.02E-09,  avg # of iterations =  1.1

     total cpu time spent up to now is      241.5 secs

     total energy              =    -361.35564601 Ry
     estimated scf accuracy    <       0.00000319 Ry

     iteration # 31     ecut=    50.00 Ry     beta= 0.30
     Davidson diagonalization with overlap
     ethr =  1.02E-09,  avg # of iterations =  1.9

     total cpu time spent up to now is      247.5 secs

     total energy              =    -361.35564536 Ry
     estimated scf accuracy    <       0.00000263 Ry

     iteration # 32     ecut=    50.00 Ry     beta= 0.30
     Davidson diagonalization with overlap
     c_bands:  2 eigenvalues not converged
     c_bands:  1 eigenvalues not converged
     ethr =  1.02E-09,  avg # of iterations =  6.9

     total cpu time spent up to now is      258.0 secs

     total energy              =    -361.35564579 Ry
     estimated scf accuracy    <       0.00000056 Ry

     iteration # 33     ecut=    50.00 Ry     beta= 0.30
     Davidson diagonalization with overlap
     ethr =  1.02E-09,  avg # of iterations =  2.0

     total cpu time spent up to now is      263.7 secs

     total energy              =    -361.35564581 Ry
     estimated scf accuracy    <       0.00000043 Ry

     iteration # 34     ecut=    50.00 Ry     beta= 0.30
     Davidson diagonalization with overlap
     ethr =  1.02E-09,  avg # of iterations =  2.8

     total cpu time spent up to now is      269.6 secs

     total energy              =    -361.35564593 Ry
     estimated scf accuracy    <       0.00000042 Ry

     iteration # 35     ecut=    50.00 Ry     beta= 0.30
     Davidson diagonalization with overlap
     ethr =  1.02E-09,  avg # of iterations =  6.5

     total cpu time spent up to now is      276.9 secs

     total energy              =    -361.35564589 Ry
     estimated scf accuracy    <       0.00000112 Ry

     iteration # 36     ecut=    50.00 Ry     beta= 0.30
     Davidson diagonalization with overlap
     ethr =  1.02E-09,  avg # of iterations =  1.1

     total cpu time spent up to now is      282.0 secs

     total energy              =    -361.35564603 Ry
     estimated scf accuracy    <       0.00000089 Ry

     iteration # 37     ecut=    50.00 Ry     beta= 0.30
     Davidson diagonalization with overlap
     ethr =  1.02E-09,  avg # of iterations =  1.2

     total cpu time spent up to now is      287.2 secs

     total energy              =    -361.35564580 Ry
     estimated scf accuracy    <       0.00000114 Ry

     iteration # 38     ecut=    50.00 Ry     beta= 0.30
     Davidson diagonalization with overlap
     ethr =  1.02E-09,  avg # of iterations =  1.2

     total cpu time spent up to now is      292.4 secs

     total energy              =    -361.35564574 Ry
     estimated scf accuracy    <       0.00000073 Ry

     iteration # 39     ecut=    50.00 Ry     beta= 0.30
     Davidson diagonalization with overlap
     ethr =  1.02E-09,  avg # of iterations =  1.8

     total cpu time spent up to now is      298.1 secs

     total energy              =    -361.35564569 Ry
     estimated scf accuracy    <       0.00000050 Ry

     iteration # 40     ecut=    50.00 Ry     beta= 0.30
     Davidson diagonalization with overlap
     ethr =  1.02E-09,  avg # of iterations =  1.9

     total cpu time spent up to now is      303.9 secs

     total energy              =    -361.35564559 Ry
     estimated scf accuracy    <       0.00000032 Ry

     iteration # 41     ecut=    50.00 Ry     beta= 0.30
     Davidson diagonalization with overlap
     ethr =  8.94E-10,  avg # of iterations =  5.6

     total cpu time spent up to now is      313.3 secs

     total energy              =    -361.35564576 Ry
     estimated scf accuracy    <       0.00000014 Ry

     iteration # 42     ecut=    50.00 Ry     beta= 0.30
     Davidson diagonalization with overlap
     ethr =  3.95E-10,  avg # of iterations =  1.4

     total cpu time spent up to now is      318.8 secs

     total energy              =    -361.35564576 Ry
     estimated scf accuracy    <       0.00000009 Ry

     iteration # 43     ecut=    50.00 Ry     beta= 0.30
     Davidson diagonalization with overlap
     ethr =  2.54E-10,  avg # of iterations =  1.4

     total cpu time spent up to now is      324.3 secs

     total energy              =    -361.35564576 Ry
     estimated scf accuracy    <       0.00000009 Ry

     iteration # 44     ecut=    50.00 Ry     beta= 0.30
     Davidson diagonalization with overlap
     ethr =  2.49E-10,  avg # of iterations =  1.5

     total cpu time spent up to now is      329.8 secs

     total energy              =    -361.35564576 Ry
     estimated scf accuracy    <       0.00000008 Ry

     iteration # 45     ecut=    50.00 Ry     beta= 0.30
     Davidson diagonalization with overlap
     ethr =  2.15E-10,  avg # of iterations =  1.2

     total cpu time spent up to now is      335.2 secs

     total energy              =    -361.35564576 Ry
     estimated scf accuracy    <       0.00000006 Ry

     iteration # 46     ecut=    50.00 Ry     beta= 0.30
     Davidson diagonalization with overlap
     ethr =  1.79E-10,  avg # of iterations =  1.3

     total cpu time spent up to now is      340.6 secs

     total energy              =    -361.35564577 Ry
     estimated scf accuracy    <       0.00000007 Ry

     iteration # 47     ecut=    50.00 Ry     beta= 0.30
     Davidson diagonalization with overlap
     ethr =  1.79E-10,  avg # of iterations =  1.2

     total cpu time spent up to now is      346.0 secs

     total energy              =    -361.35564573 Ry
     estimated scf accuracy    <       0.00000009 Ry

     iteration # 48     ecut=    50.00 Ry     beta= 0.30
     Davidson diagonalization with overlap
     ethr =  1.79E-10,  avg # of iterations =  4.6

     total cpu time spent up to now is      353.6 secs

     total energy              =    -361.35564574 Ry
     estimated scf accuracy    <       0.00000002 Ry

     iteration # 49     ecut=    50.00 Ry     beta= 0.30
     Davidson diagonalization with overlap
     ethr =  5.09E-11,  avg # of iterations =  6.3

     total cpu time spent up to now is      363.1 secs

     total energy              =    -361.35564575 Ry
     estimated scf accuracy    <       0.00000002 Ry

     iteration # 50     ecut=    50.00 Ry     beta= 0.30
     Davidson diagonalization with overlap
     ethr =  4.61E-11,  avg # of iterations =  1.2

     total cpu time spent up to now is      368.4 secs

     End of self-consistent calculation

     Number of k-points >= 100: set verbosity='high' to print the bands.

     highest occupied level (ev):     4.3941

!    total energy              =    -361.35564574 Ry
     estimated scf accuracy    <          7.4E-09 Ry

     The total energy is the sum of the following terms:
     one-electron contribution =    -196.02674743 Ry
     hartree contribution      =     134.16149512 Ry
     xc contribution           =    -108.96515189 Ry
     ewald contribution        =    -190.52524155 Ry

     convergence has been achieved in  50 iterations

     Forces acting on atoms (cartesian axes, Ry/au):

     atom    1 type  1   force =     0.00879522   -0.02522361    0.08341155
     atom    2 type  1   force =    -0.06770141    0.00551936   -0.15324256
     atom    3 type  2   force =    -0.01681455    0.02536390   -0.00349397
     atom    4 type  2   force =     0.07572074   -0.00565965    0.07332497
     The non-local contrib.  to forces
     atom    1 type  1   force =    -0.15378280    0.17068527   -0.60189113
     atom    2 type  1   force =    -0.47748477    0.29189422   -0.06348060
     atom    3 type  2   force =    -0.21101258    0.30938675   -0.45171344
     atom    4 type  2   force =    -0.34777988    0.22380382   -0.08060977
     The ionic contribution  to forces
     atom    1 type  1   force =    -0.94371251    0.13237191   10.07387725
     atom    2 type  1   force =    -3.90617204    3.03401961  -13.34153540
     atom    3 type  2   force =     1.19477034   -1.28281860    1.18623207
     atom    4 type  2   force =     3.65511420   -1.88357293    2.08142607
     The local contribution  to forces
     atom    1 type  1   force =     1.09987066   -0.32013343   -9.40917296
     atom    2 type  1   force =     4.28088354   -3.30193089   13.23029773
     atom    3 type  2   force =    -1.00261391    1.00192656   -0.74237530
     atom    4 type  2   force =    -3.23413279    1.65598291   -1.92766000
     The core correction contribution to forces
     atom    1 type  1   force =     0.00642912   -0.00814881    0.02066038
     atom    2 type  1   force =     0.03502067   -0.01844823    0.02141239
     atom    3 type  2   force =     0.00204351   -0.00312347    0.00432944
     atom    4 type  2   force =     0.00251308   -0.00186712    0.00018583
     The Hubbard contrib.    to forces
     atom    1 type  1   force =     0.00000000    0.00000000    0.00000000
     atom    2 type  1   force =     0.00000000    0.00000000    0.00000000
     atom    3 type  2   force =     0.00000000    0.00000000    0.00000000
     atom    4 type  2   force =     0.00000000    0.00000000    0.00000000
     The SCF correction term to forces
     atom    1 type  1   force =    -0.00000585    0.00000203   -0.00006276
     atom    2 type  1   force =     0.00005459   -0.00001477    0.00006256
     atom    3 type  2   force =     0.00000149   -0.00000676    0.00003248
     atom    4 type  2   force =     0.00000951   -0.00000576   -0.00001793

     Total force =     0.218744     Total SCF correction =     0.000112

     Writing all to output data dir ./ZnO_ANN.save/

     init_run     :      4.30s CPU      4.38s WALL (       1 calls)
     electrons    :    357.72s CPU    363.61s WALL (       1 calls)
     forces       :      1.46s CPU      1.49s WALL (       1 calls)

     Called by init_run:
     wfcinit      :      3.01s CPU      3.05s WALL (       1 calls)
     potinit      :      0.41s CPU      0.42s WALL (       1 calls)
     hinit0       :      0.77s CPU      0.79s WALL (       1 calls)

     Called by electrons:
     c_bands      :    311.05s CPU    316.02s WALL (      50 calls)
     sum_band     :     41.69s CPU     42.50s WALL (      50 calls)
     v_of_rho     :      1.03s CPU      1.09s WALL (      51 calls)
     newd         :      3.74s CPU      3.78s WALL (      51 calls)
     mix_rho      :      0.18s CPU      0.20s WALL (      50 calls)

     Called by c_bands:
     init_us_2    :      3.34s CPU      3.39s WALL (   11424 calls)
     init_us_2:cp :      3.30s CPU      3.35s WALL (   11424 calls)
     cegterg      :    300.46s CPU    305.28s WALL (    5600 calls)

     Called by *egterg:
     cdiaghg      :     28.03s CPU     28.23s WALL (   26154 calls)
     h_psi        :    175.58s CPU    179.31s WALL (   26266 calls)
     s_psi        :     24.47s CPU     24.63s WALL (   26266 calls)
     g_psi        :      0.63s CPU      0.63s WALL (   20554 calls)

     Called by h_psi:
     h_psi:calbec :     27.27s CPU     28.02s WALL (   26266 calls)
     vloc_psi     :    123.14s CPU    125.96s WALL (   26266 calls)
     add_vuspsi   :     24.55s CPU     24.72s WALL (   26266 calls)

     General routines
     calbec       :     38.02s CPU     39.03s WALL (   32314 calls)
     fft          :      1.07s CPU      1.16s WALL (     672 calls)
     ffts         :      0.14s CPU      0.15s WALL (     101 calls)
     fftw         :    126.53s CPU    129.38s WALL (  633714 calls)
     interpolate  :      0.18s CPU      0.19s WALL (      51 calls)

     Parallel routines

     PWSCF        :   6m 4.24s CPU   6m10.58s WALL


   This run was terminated on:  20:47:55  24Jun2025            

=------------------------------------------------------------------------------=
   JOB DONE.
=------------------------------------------------------------------------------=
Note: The following floating-point exceptions are signalling: IEEE_INVALID_FLAG
