
     Program PWSCF v.7.2 starts on 24Jun2025 at 20:12: 3 

     This program is part of the open-source Quantum ESPRESSO suite
     for quantum simulation of materials; please cite
         "P. Giannozzi et al., J. Phys.:Condens. Matter 21 395502 (2009);
         "P. Giannozzi et al., J. Phys.:Condens. Matter 29 465901 (2017);
         "P. Giannozzi et al., J. Chem. Phys. 152 154105 (2020);
          URL http://www.quantum-espresso.org", 
     in publications or presentations arising from this work. More details at
     http://www.quantum-espresso.org/quote

     Parallel version (MPI), running on     8 processors

     MPI processes distributed on     1 nodes
     90736 MiB available memory on the printing compute node when the environment starts

     Reading input from /home/jvc/QEspresso7.2/ZnO_DataBase/scf_025_NOSYM.in/scf-6.67-1.68-0.25-2.in

     Current dimensions of program PWSCF are:
     Max number of different atomic species (ntypx) = 10
     Max number of k-points (npk) =  40000
     Max angular momentum in pseudopotentials (lmaxx) =  4
     file Zn.upf: wavefunction(s)  3D renormalized

     R & G space division:  proc/nbgrp/npool/nimage =       8
     Subspace diagonalization in iterative solution of the eigenvalue problem:
     a serial algorithm will be used


     Parallelization info
     --------------------
     sticks:   dense  smooth     PW     G-vecs:    dense   smooth      PW
     Min         154      75     23                 6952     2457     407
     Max         155      78     24                 6957     2461     412
     Sum        1237     613    187                55639    19669    3273

     Using Slab Decomposition



     bravais-lattice index     =            0
     lattice parameter (alat)  =       6.6731  a.u.
     unit-cell volume          =     411.7549 (a.u.)^3
     number of atoms/cell      =            4
     number of atomic types    =            2
     number of electrons       =        36.00
     number of Kohn-Sham states=           18
     kinetic-energy cutoff     =      50.0000  Ry
     charge density cutoff     =     400.0000  Ry
     scf convergence threshold =      1.0E-08
     mixing beta               =       0.3000
     number of iterations used =            8  plain     mixing
     Exchange-correlation= PBE
                           (   1   4   3   4   0   0   0)

     celldm(1)=   6.673127  celldm(2)=   0.000000  celldm(3)=   0.000000
     celldm(4)=   0.000000  celldm(5)=   0.000000  celldm(6)=   0.000000

     crystal axes: (cart. coord. in units of alat)
               a(1) = (   1.000000   0.000000   0.000000 )  
               a(2) = (  -0.500000   0.866025   0.000000 )  
               a(3) = (   0.000000   0.000000   1.600000 )  

     reciprocal axes: (cart. coord. in units 2 pi/alat)
               b(1) = (  1.000000  0.577350 -0.000000 )  
               b(2) = (  0.000000  1.154701  0.000000 )  
               b(3) = (  0.000000 -0.000000  0.625000 )  


     PseudoPot. # 1 for Zn read from file:
     ./pseudos/Zn.upf
     MD5 check sum: 7f56cabf9682ed8c977c2f7d0c5985c5
     Pseudo is Ultrasoft + core correction, Zval = 12.0
     Generated using &quot;atomic&quot; code by A. Dal Corso  v.6.2.2
     Using radial grid of 1201 points,  6 beta functions with: 
                l(1) =   0
                l(2) =   0
                l(3) =   1
                l(4) =   1
                l(5) =   2
                l(6) =   2
     Q(r) pseudized with 0 coefficients 


     PseudoPot. # 2 for O  read from file:
     ./pseudos/O.upf
     MD5 check sum: 91400c9766925bcf19f520983a725ff0
     Pseudo is Ultrasoft + core correction, Zval =  6.0
     Generated using &quot;atomic&quot; code by A. Dal Corso  v.6.3MaX
     Using radial grid of 1095 points,  4 beta functions with: 
                l(1) =   0
                l(2) =   0
                l(3) =   1
                l(4) =   1
     Q(r) pseudized with 0 coefficients 


     atomic species   valence    mass     pseudopotential
        Zn            12.00    63.38000     Zn( 1.00)
        O              6.00    15.99900     O ( 1.00)

     No symmetry found



   Cartesian axes

     site n.     atom                  positions (alat units)
         1           Zn  tau(   1) = (   0.5092539   0.1751436   0.4944098  )
         2           Zn  tau(   2) = (   0.3010618   0.3854461  -0.2764341  )
         3           O   tau(   3) = (   0.4917459   0.3220629   1.1860568  )
         4           O   tau(   4) = (  -0.0627689   0.4164787   0.4181633  )

     number of k points=   112

     Number of k-points >= 100: set verbosity='high' to print them.

     Dense  grid:    55639 G-vectors     FFT dimensions: (  45,  45,  72)

     Smooth grid:    19669 G-vectors     FFT dimensions: (  32,  32,  50)

     Estimated max dynamical RAM per process >      37.53 MB

     Estimated total dynamical RAM >     300.20 MB

     Check: negative core charge=   -0.000002

     Initial potential from superposition of free atoms

     starting charge      35.9925, renormalised to      36.0000
     Starting wfcs are   26 randomized atomic wfcs

     total cpu time spent up to now is        4.5 secs

     Self-consistent Calculation

     iteration #  1     ecut=    50.00 Ry     beta= 0.30
     Davidson diagonalization with overlap
     ethr =  1.00E-02,  avg # of iterations =  5.1

     total cpu time spent up to now is       13.3 secs

     total energy              =    -355.61428286 Ry
     estimated scf accuracy    <       1.12096912 Ry

     iteration #  2     ecut=    50.00 Ry     beta= 0.30
     Davidson diagonalization with overlap
     ethr =  3.11E-03,  avg # of iterations =  2.2

     total cpu time spent up to now is       19.7 secs

     total energy              =    -355.58727933 Ry
     estimated scf accuracy    <       0.25795034 Ry

     iteration #  3     ecut=    50.00 Ry     beta= 0.30
     Davidson diagonalization with overlap
     ethr =  7.17E-04,  avg # of iterations =  6.5

     total cpu time spent up to now is       30.9 secs

     total energy              =    -355.73097671 Ry
     estimated scf accuracy    <       0.33991877 Ry

     iteration #  4     ecut=    50.00 Ry     beta= 0.30
     Davidson diagonalization with overlap
     ethr =  7.17E-04,  avg # of iterations =  2.1

     total cpu time spent up to now is       37.3 secs

     total energy              =    -355.78536933 Ry
     estimated scf accuracy    <       0.09499082 Ry

     iteration #  5     ecut=    50.00 Ry     beta= 0.30
     Davidson diagonalization with overlap
     ethr =  2.64E-04,  avg # of iterations =  9.9

     total cpu time spent up to now is       57.0 secs

     total energy              =    -355.30236149 Ry
     estimated scf accuracy    <       3.63306170 Ry

     iteration #  6     ecut=    50.00 Ry     beta= 0.30
     Davidson diagonalization with overlap
     ethr =  2.64E-04,  avg # of iterations =  8.4

     total cpu time spent up to now is       74.3 secs

     total energy              =    -355.84784443 Ry
     estimated scf accuracy    <       0.08101457 Ry

     iteration #  7     ecut=    50.00 Ry     beta= 0.30
     Davidson diagonalization with overlap
     ethr =  2.25E-04,  avg # of iterations =  3.4

     total cpu time spent up to now is       81.8 secs

     total energy              =    -355.80867138 Ry
     estimated scf accuracy    <       0.25918022 Ry

     iteration #  8     ecut=    50.00 Ry     beta= 0.30
     Davidson diagonalization with overlap
     ethr =  2.25E-04,  avg # of iterations =  2.0

     total cpu time spent up to now is       87.6 secs

     total energy              =    -355.76797854 Ry
     estimated scf accuracy    <       0.17339888 Ry

     iteration #  9     ecut=    50.00 Ry     beta= 0.30
     Davidson diagonalization with overlap
     ethr =  2.25E-04,  avg # of iterations =  3.4

     total cpu time spent up to now is       94.4 secs

     total energy              =    -355.77865809 Ry
     estimated scf accuracy    <       0.05741431 Ry

     iteration # 10     ecut=    50.00 Ry     beta= 0.30
     Davidson diagonalization with overlap
     ethr =  1.59E-04,  avg # of iterations =  1.7

     total cpu time spent up to now is      100.2 secs

     total energy              =    -355.76361017 Ry
     estimated scf accuracy    <       0.04246974 Ry

     iteration # 11     ecut=    50.00 Ry     beta= 0.30
     Davidson diagonalization with overlap
     ethr =  1.18E-04,  avg # of iterations =  4.3

     total cpu time spent up to now is      108.5 secs

     total energy              =    -355.77725551 Ry
     estimated scf accuracy    <       0.00074338 Ry

     iteration # 12     ecut=    50.00 Ry     beta= 0.30
     Davidson diagonalization with overlap
     ethr =  2.06E-06,  avg # of iterations =  6.9

     total cpu time spent up to now is      121.5 secs

     total energy              =    -355.77832176 Ry
     estimated scf accuracy    <       0.00083559 Ry

     iteration # 13     ecut=    50.00 Ry     beta= 0.30
     Davidson diagonalization with overlap
     ethr =  2.06E-06,  avg # of iterations =  1.5

     total cpu time spent up to now is      127.1 secs

     total energy              =    -355.77804924 Ry
     estimated scf accuracy    <       0.00047064 Ry

     iteration # 14     ecut=    50.00 Ry     beta= 0.30
     Davidson diagonalization with overlap
     ethr =  1.31E-06,  avg # of iterations =  6.3

     total cpu time spent up to now is      138.1 secs

     total energy              =    -355.77823832 Ry
     estimated scf accuracy    <       0.00067282 Ry

     iteration # 15     ecut=    50.00 Ry     beta= 0.30
     Davidson diagonalization with overlap
     ethr =  1.31E-06,  avg # of iterations =  2.0

     total cpu time spent up to now is      144.3 secs

     total energy              =    -355.77822943 Ry
     estimated scf accuracy    <       0.00022376 Ry

     iteration # 16     ecut=    50.00 Ry     beta= 0.30
     Davidson diagonalization with overlap
     ethr =  6.22E-07,  avg # of iterations =  5.8

     total cpu time spent up to now is      152.0 secs

     total energy              =    -355.77827792 Ry
     estimated scf accuracy    <       0.00001519 Ry

     iteration # 17     ecut=    50.00 Ry     beta= 0.30
     Davidson diagonalization with overlap
     ethr =  4.22E-08,  avg # of iterations =  5.1

     total cpu time spent up to now is      161.3 secs

     total energy              =    -355.77828790 Ry
     estimated scf accuracy    <       0.00001265 Ry

     iteration # 18     ecut=    50.00 Ry     beta= 0.30
     Davidson diagonalization with overlap
     ethr =  3.51E-08,  avg # of iterations =  1.4

     total cpu time spent up to now is      166.6 secs

     total energy              =    -355.77828709 Ry
     estimated scf accuracy    <       0.00000719 Ry

     iteration # 19     ecut=    50.00 Ry     beta= 0.30
     Davidson diagonalization with overlap
     ethr =  2.00E-08,  avg # of iterations =  2.1

     total cpu time spent up to now is      172.6 secs

     total energy              =    -355.77828644 Ry
     estimated scf accuracy    <       0.00000359 Ry

     iteration # 20     ecut=    50.00 Ry     beta= 0.30
     Davidson diagonalization with overlap
     ethr =  9.98E-09,  avg # of iterations =  6.2

     total cpu time spent up to now is      180.7 secs

     total energy              =    -355.77828767 Ry
     estimated scf accuracy    <       0.00000020 Ry

     iteration # 21     ecut=    50.00 Ry     beta= 0.30
     Davidson diagonalization with overlap
     ethr =  5.60E-10,  avg # of iterations =  5.3

     total cpu time spent up to now is      189.8 secs

     total energy              =    -355.77828776 Ry
     estimated scf accuracy    <       0.00000004 Ry

     iteration # 22     ecut=    50.00 Ry     beta= 0.30
     Davidson diagonalization with overlap
     ethr =  1.03E-10,  avg # of iterations =  7.6

     total cpu time spent up to now is      200.4 secs

     total energy              =    -355.77828779 Ry
     estimated scf accuracy    <       0.00000011 Ry

     iteration # 23     ecut=    50.00 Ry     beta= 0.30
     Davidson diagonalization with overlap
     ethr =  1.03E-10,  avg # of iterations =  1.0

     total cpu time spent up to now is      204.5 secs

     total energy              =    -355.77828776 Ry
     estimated scf accuracy    <       0.00000008 Ry

     iteration # 24     ecut=    50.00 Ry     beta= 0.30
     Davidson diagonalization with overlap
     ethr =  1.03E-10,  avg # of iterations =  5.1

     total cpu time spent up to now is      213.1 secs

     End of self-consistent calculation

     Number of k-points >= 100: set verbosity='high' to print the bands.

     highest occupied level (ev):     4.6952

!    total energy              =    -355.77828778 Ry
     estimated scf accuracy    <          4.2E-10 Ry

     The total energy is the sum of the following terms:
     one-electron contribution =    -231.91058364 Ry
     hartree contribution      =     150.34664845 Ry
     xc contribution           =    -110.60689682 Ry
     ewald contribution        =    -163.60745577 Ry

     convergence has been achieved in  24 iterations

     Forces acting on atoms (cartesian axes, Ry/au):

     atom    1 type  1   force =    -0.10449365   -0.06250439   -0.00504310
     atom    2 type  1   force =   -12.33075406    4.08957314    8.91292513
     atom    3 type  2   force =    12.31904838   -4.09177609   -8.90137328
     atom    4 type  2   force =     0.11619934    0.06470734   -0.00650875
     The non-local contrib.  to forces
     atom    1 type  1   force =    -0.49916537   -0.30615960    0.21423930
     atom    2 type  1   force =     3.09043840   -1.03413622   -2.21726160
     atom    3 type  2   force =    -1.11259029    0.31826991    0.61829019
     atom    4 type  2   force =    -0.31787132   -0.19105676    0.28271420
     The ionic contribution  to forces
     atom    1 type  1   force =    -2.84890544   -3.36286434    1.64771325
     atom    2 type  1   force =   -39.63277029   13.74484696   27.09974257
     atom    3 type  2   force =    39.26731933  -12.62235661  -27.69742571
     atom    4 type  2   force =     3.21435640    2.24037399   -1.05003010
     The local contribution  to forces
     atom    1 type  1   force =     3.20717103    3.58350671   -1.85348436
     atom    2 type  1   force =    23.66153144   -8.43698935  -15.57581366
     atom    3 type  2   force =   -25.81568864    8.20524337   18.16178916
     atom    4 type  2   force =    -2.78241983   -1.98584132    0.76352365
     The core correction contribution to forces
     atom    1 type  1   force =     0.03639637    0.02301098   -0.01348450
     atom    2 type  1   force =     0.55007559   -0.18415308   -0.39377547
     atom    3 type  2   force =    -0.02002022    0.00707859    0.01598087
     atom    4 type  2   force =     0.00212199    0.00122534   -0.00270922
     The Hubbard contrib.    to forces
     atom    1 type  1   force =     0.00000000    0.00000000    0.00000000
     atom    2 type  1   force =     0.00000000    0.00000000    0.00000000
     atom    3 type  2   force =     0.00000000    0.00000000    0.00000000
     atom    4 type  2   force =     0.00000000    0.00000000    0.00000000
     The SCF correction term to forces
     atom    1 type  1   force =     0.00000734    0.00000268   -0.00002578
     atom    2 type  1   force =    -0.00003161    0.00000564    0.00003430
     atom    3 type  2   force =     0.00002579   -0.00001054   -0.00000677
     atom    4 type  2   force =     0.00000969    0.00000690   -0.00000627

     Total force =    22.270630     Total SCF correction =     0.000063

     Writing all to output data dir ./ZnO_ANN.save/

     init_run     :      3.96s CPU      4.05s WALL (       1 calls)
     electrons    :    205.30s CPU    208.56s WALL (       1 calls)
     forces       :      1.40s CPU      1.42s WALL (       1 calls)

     Called by init_run:
     wfcinit      :      2.91s CPU      2.96s WALL (       1 calls)
     potinit      :      0.36s CPU      0.37s WALL (       1 calls)
     hinit0       :      0.59s CPU      0.60s WALL (       1 calls)

     Called by electrons:
     c_bands      :    183.60s CPU    186.40s WALL (      24 calls)
     sum_band     :     19.42s CPU     19.82s WALL (      24 calls)
     v_of_rho     :      0.49s CPU      0.53s WALL (      25 calls)
     newd         :      1.73s CPU      1.76s WALL (      25 calls)
     mix_rho      :      0.08s CPU      0.09s WALL (      24 calls)

     Called by c_bands:
     init_us_2    :      1.52s CPU      1.54s WALL (    5600 calls)
     init_us_2:cp :      1.50s CPU      1.53s WALL (    5600 calls)
     cegterg      :    178.60s CPU    181.33s WALL (    2688 calls)

     Called by *egterg:
     cdiaghg      :     15.60s CPU     15.71s WALL (   14469 calls)
     h_psi        :    102.00s CPU    104.08s WALL (   14581 calls)
     s_psi        :     13.19s CPU     13.27s WALL (   14581 calls)
     g_psi        :      0.39s CPU      0.39s WALL (   11781 calls)

     Called by h_psi:
     h_psi:calbec :     15.67s CPU     16.09s WALL (   14581 calls)
     vloc_psi     :     72.84s CPU     74.42s WALL (   14581 calls)
     add_vuspsi   :     13.16s CPU     13.25s WALL (   14581 calls)

     General routines
     calbec       :     21.04s CPU     21.57s WALL (   17717 calls)
     fft          :      0.61s CPU      0.66s WALL (     334 calls)
     ffts         :      0.13s CPU      0.13s WALL (      49 calls)
     fftw         :     72.56s CPU     74.14s WALL (  365918 calls)
     interpolate  :      0.14s CPU      0.15s WALL (      25 calls)

     Parallel routines

     PWSCF        :   3m31.40s CPU   3m35.02s WALL


   This run was terminated on:  20:15:38  24Jun2025            

=------------------------------------------------------------------------------=
   JOB DONE.
=------------------------------------------------------------------------------=
Note: The following floating-point exceptions are signalling: IEEE_INVALID_FLAG
