
     Program PWSCF v.7.2 starts on 24Jun2025 at 17:44:40 

     This program is part of the open-source Quantum ESPRESSO suite
     for quantum simulation of materials; please cite
         "P. Giannozzi et al., J. Phys.:Condens. Matter 21 395502 (2009);
         "P. Giannozzi et al., J. Phys.:Condens. Matter 29 465901 (2017);
         "P. Giannozzi et al., J. Chem. Phys. 152 154105 (2020);
          URL http://www.quantum-espresso.org", 
     in publications or presentations arising from this work. More details at
     http://www.quantum-espresso.org/quote

     Parallel version (MPI), running on     8 processors

     MPI processes distributed on     1 nodes
     90972 MiB available memory on the printing compute node when the environment starts

     Reading input from /home/jvc/QEspresso7.2/ZnO_DataBase/scf_025_NOSYM.in/scf-6.30-1.61-0.25-3.in

     Current dimensions of program PWSCF are:
     Max number of different atomic species (ntypx) = 10
     Max number of k-points (npk) =  40000
     Max angular momentum in pseudopotentials (lmaxx) =  4
     file Zn.upf: wavefunction(s)  3D renormalized

     R & G space division:  proc/nbgrp/npool/nimage =       8
     Subspace diagonalization in iterative solution of the eigenvalue problem:
     a serial algorithm will be used


     Parallelization info
     --------------------
     sticks:   dense  smooth     PW     G-vecs:    dense   smooth      PW
     Min         137      68     20                 5853     2068     346
     Max         138      69     21                 5856     2075     353
     Sum        1099     547    163                46835    16563    2791

     Using Slab Decomposition



     bravais-lattice index     =            0
     lattice parameter (alat)  =       6.3024  a.u.
     unit-cell volume          =     346.8711 (a.u.)^3
     number of atoms/cell      =            4
     number of atomic types    =            2
     number of electrons       =        36.00
     number of Kohn-Sham states=           18
     kinetic-energy cutoff     =      50.0000  Ry
     charge density cutoff     =     400.0000  Ry
     scf convergence threshold =      1.0E-08
     mixing beta               =       0.3000
     number of iterations used =            8  plain     mixing
     Exchange-correlation= PBE
                           (   1   4   3   4   0   0   0)

     celldm(1)=   6.302398  celldm(2)=   0.000000  celldm(3)=   0.000000
     celldm(4)=   0.000000  celldm(5)=   0.000000  celldm(6)=   0.000000

     crystal axes: (cart. coord. in units of alat)
               a(1) = (   1.000000   0.000000   0.000000 )  
               a(2) = (  -0.500000   0.866025   0.000000 )  
               a(3) = (   0.000000   0.000000   1.600000 )  

     reciprocal axes: (cart. coord. in units 2 pi/alat)
               b(1) = (  1.000000  0.577350 -0.000000 )  
               b(2) = (  0.000000  1.154701  0.000000 )  
               b(3) = (  0.000000 -0.000000  0.625000 )  


     PseudoPot. # 1 for Zn read from file:
     ./pseudos/Zn.upf
     MD5 check sum: 7f56cabf9682ed8c977c2f7d0c5985c5
     Pseudo is Ultrasoft + core correction, Zval = 12.0
     Generated using &quot;atomic&quot; code by A. Dal Corso  v.6.2.2
     Using radial grid of 1201 points,  6 beta functions with: 
                l(1) =   0
                l(2) =   0
                l(3) =   1
                l(4) =   1
                l(5) =   2
                l(6) =   2
     Q(r) pseudized with 0 coefficients 


     PseudoPot. # 2 for O  read from file:
     ./pseudos/O.upf
     MD5 check sum: 91400c9766925bcf19f520983a725ff0
     Pseudo is Ultrasoft + core correction, Zval =  6.0
     Generated using &quot;atomic&quot; code by A. Dal Corso  v.6.3MaX
     Using radial grid of 1095 points,  4 beta functions with: 
                l(1) =   0
                l(2) =   0
                l(3) =   1
                l(4) =   1
     Q(r) pseudized with 0 coefficients 


     atomic species   valence    mass     pseudopotential
        Zn            12.00    63.38000     Zn( 1.00)
        O              6.00    15.99900     O ( 1.00)

     No symmetry found



   Cartesian axes

     site n.     atom                  positions (alat units)
         1           Zn  tau(   1) = (   0.5304632   0.3163790   0.7511544  )
         2           Zn  tau(   2) = (   0.1022322   0.7054639  -0.0341941  )
         3           O   tau(   3) = (   0.3943304   0.4873085   1.8011894  )
         4           O   tau(   4) = (  -0.2558111   0.6703041   0.9093868  )

     number of k points=   112

     Number of k-points >= 100: set verbosity='high' to print them.

     Dense  grid:    46835 G-vectors     FFT dimensions: (  45,  45,  72)

     Smooth grid:    16563 G-vectors     FFT dimensions: (  30,  30,  45)

     Estimated max dynamical RAM per process >      32.29 MB

     Estimated total dynamical RAM >     258.31 MB

     Check: negative core charge=   -0.000002

     Initial potential from superposition of free atoms

     starting charge      35.9925, renormalised to      36.0000
     Starting wfcs are   26 randomized atomic wfcs

     total cpu time spent up to now is        4.2 secs

     Self-consistent Calculation

     iteration #  1     ecut=    50.00 Ry     beta= 0.30
     Davidson diagonalization with overlap
     ethr =  1.00E-02,  avg # of iterations =  2.0

     total cpu time spent up to now is        9.7 secs

     total energy              =    -360.89697382 Ry
     estimated scf accuracy    <       1.09275926 Ry

     iteration #  2     ecut=    50.00 Ry     beta= 0.30
     Davidson diagonalization with overlap
     ethr =  3.04E-03,  avg # of iterations =  2.0

     total cpu time spent up to now is       15.9 secs

     total energy              =    -361.00123577 Ry
     estimated scf accuracy    <       0.15278453 Ry

     iteration #  3     ecut=    50.00 Ry     beta= 0.30
     Davidson diagonalization with overlap
     ethr =  4.24E-04,  avg # of iterations =  7.2

     total cpu time spent up to now is       28.1 secs

     total energy              =    -361.07162847 Ry
     estimated scf accuracy    <       0.19686362 Ry

     iteration #  4     ecut=    50.00 Ry     beta= 0.30
     Davidson diagonalization with overlap
     ethr =  4.24E-04,  avg # of iterations =  4.6

     total cpu time spent up to now is       36.7 secs

     total energy              =    -361.14052181 Ry
     estimated scf accuracy    <       0.01694578 Ry

     iteration #  5     ecut=    50.00 Ry     beta= 0.30
     Davidson diagonalization with overlap
     ethr =  4.71E-05,  avg # of iterations =  6.9

     total cpu time spent up to now is       48.7 secs

     total energy              =    -361.09830795 Ry
     estimated scf accuracy    <       0.12216650 Ry

     iteration #  6     ecut=    50.00 Ry     beta= 0.30
     Davidson diagonalization with overlap
     ethr =  4.71E-05,  avg # of iterations =  8.1

     total cpu time spent up to now is       63.1 secs

     total energy              =    -361.12837190 Ry
     estimated scf accuracy    <       0.00518635 Ry

     iteration #  7     ecut=    50.00 Ry     beta= 0.30
     Davidson diagonalization with overlap
     ethr =  1.44E-05,  avg # of iterations =  1.9

     total cpu time spent up to now is       68.5 secs

     total energy              =    -361.12746694 Ry
     estimated scf accuracy    <       0.00232419 Ry

     iteration #  8     ecut=    50.00 Ry     beta= 0.30
     Davidson diagonalization with overlap
     ethr =  6.46E-06,  avg # of iterations =  5.1

     total cpu time spent up to now is       77.5 secs

     total energy              =    -361.12848160 Ry
     estimated scf accuracy    <       0.00025795 Ry

     iteration #  9     ecut=    50.00 Ry     beta= 0.30
     Davidson diagonalization with overlap
     ethr =  7.17E-07,  avg # of iterations =  3.8

     total cpu time spent up to now is       84.3 secs

     total energy              =    -361.12840982 Ry
     estimated scf accuracy    <       0.00020492 Ry

     iteration # 10     ecut=    50.00 Ry     beta= 0.30
     Davidson diagonalization with overlap
     ethr =  5.69E-07,  avg # of iterations =  5.7

     total cpu time spent up to now is       94.0 secs

     total energy              =    -361.12851540 Ry
     estimated scf accuracy    <       0.00009544 Ry

     iteration # 11     ecut=    50.00 Ry     beta= 0.30
     Davidson diagonalization with overlap
     ethr =  2.65E-07,  avg # of iterations =  1.3

     total cpu time spent up to now is       99.0 secs

     total energy              =    -361.12848160 Ry
     estimated scf accuracy    <       0.00006437 Ry

     iteration # 12     ecut=    50.00 Ry     beta= 0.30
     Davidson diagonalization with overlap
     ethr =  1.79E-07,  avg # of iterations =  4.5

     total cpu time spent up to now is      107.3 secs

     total energy              =    -361.12850613 Ry
     estimated scf accuracy    <       0.00000698 Ry

     iteration # 13     ecut=    50.00 Ry     beta= 0.30
     Davidson diagonalization with overlap
     ethr =  1.94E-08,  avg # of iterations =  4.0

     total cpu time spent up to now is      114.1 secs

     total energy              =    -361.12850745 Ry
     estimated scf accuracy    <       0.00000694 Ry

     iteration # 14     ecut=    50.00 Ry     beta= 0.30
     Davidson diagonalization with overlap
     ethr =  1.93E-08,  avg # of iterations =  1.0

     total cpu time spent up to now is      119.0 secs

     total energy              =    -361.12850426 Ry
     estimated scf accuracy    <       0.00000625 Ry

     iteration # 15     ecut=    50.00 Ry     beta= 0.30
     Davidson diagonalization with overlap
     ethr =  1.74E-08,  avg # of iterations =  5.3

     total cpu time spent up to now is      126.6 secs

     total energy              =    -361.12850634 Ry
     estimated scf accuracy    <       0.00000026 Ry

     iteration # 16     ecut=    50.00 Ry     beta= 0.30
     Davidson diagonalization with overlap
     ethr =  7.34E-10,  avg # of iterations =  8.5

     total cpu time spent up to now is      141.3 secs

     total energy              =    -361.12850654 Ry
     estimated scf accuracy    <       0.00000329 Ry

     iteration # 17     ecut=    50.00 Ry     beta= 0.30
     Davidson diagonalization with overlap
     ethr =  7.34E-10,  avg # of iterations =  2.1

     total cpu time spent up to now is      147.0 secs

     total energy              =    -361.12850543 Ry
     estimated scf accuracy    <       0.00000231 Ry

     iteration # 18     ecut=    50.00 Ry     beta= 0.30
     Davidson diagonalization with overlap
     ethr =  7.34E-10,  avg # of iterations =  8.7

     total cpu time spent up to now is      163.1 secs

     total energy              =    -361.12850625 Ry
     estimated scf accuracy    <       0.00000031 Ry

     iteration # 19     ecut=    50.00 Ry     beta= 0.30
     Davidson diagonalization with overlap
     ethr =  7.34E-10,  avg # of iterations =  1.0

     total cpu time spent up to now is      167.9 secs

     total energy              =    -361.12850616 Ry
     estimated scf accuracy    <       0.00000024 Ry

     iteration # 20     ecut=    50.00 Ry     beta= 0.30
     Davidson diagonalization with overlap
     ethr =  6.80E-10,  avg # of iterations =  2.0

     total cpu time spent up to now is      173.4 secs

     total energy              =    -361.12850617 Ry
     estimated scf accuracy    <       0.00000007 Ry

     iteration # 21     ecut=    50.00 Ry     beta= 0.30
     Davidson diagonalization with overlap
     ethr =  1.97E-10,  avg # of iterations =  4.8

     total cpu time spent up to now is      181.3 secs

     total energy              =    -361.12850619 Ry
     estimated scf accuracy    <       0.00000001 Ry

     iteration # 22     ecut=    50.00 Ry     beta= 0.30
     Davidson diagonalization with overlap
     ethr =  2.80E-11,  avg # of iterations =  8.0

     total cpu time spent up to now is      194.8 secs

     total energy              =    -361.12850620 Ry
     estimated scf accuracy    <       0.00000005 Ry

     iteration # 23     ecut=    50.00 Ry     beta= 0.30
     Davidson diagonalization with overlap
     ethr =  2.80E-11,  avg # of iterations =  2.1

     total cpu time spent up to now is      200.6 secs

     total energy              =    -361.12850618 Ry
     estimated scf accuracy    <       0.00000002 Ry

     iteration # 24     ecut=    50.00 Ry     beta= 0.30
     Davidson diagonalization with overlap
     ethr =  2.80E-11,  avg # of iterations =  8.4

     total cpu time spent up to now is      215.2 secs

     total energy              =    -361.12850620 Ry
     estimated scf accuracy    <       0.00000004 Ry

     iteration # 25     ecut=    50.00 Ry     beta= 0.30
     Davidson diagonalization with overlap
     ethr =  2.80E-11,  avg # of iterations =  1.1

     total cpu time spent up to now is      219.9 secs

     total energy              =    -361.12850619 Ry
     estimated scf accuracy    <       0.00000002 Ry

     iteration # 26     ecut=    50.00 Ry     beta= 0.30
     Davidson diagonalization with overlap
     ethr =  2.80E-11,  avg # of iterations =  5.8

     total cpu time spent up to now is      229.6 secs

     End of self-consistent calculation

     Number of k-points >= 100: set verbosity='high' to print the bands.

     highest occupied level (ev):     6.5809

!    total energy              =    -361.12850620 Ry
     estimated scf accuracy    <          4.0E-10 Ry

     The total energy is the sum of the following terms:
     one-electron contribution =    -174.67670054 Ry
     hartree contribution      =     126.78830881 Ry
     xc contribution           =    -109.68400958 Ry
     ewald contribution        =    -203.55610489 Ry

     convergence has been achieved in  26 iterations

     Forces acting on atoms (cartesian axes, Ry/au):

     atom    1 type  1   force =    -0.32465805   -0.52670775   -0.19045756
     atom    2 type  1   force =    -0.53073241    0.37435341   -0.41242209
     atom    3 type  2   force =     0.49854626   -0.39452857    0.33308003
     atom    4 type  2   force =     0.35684420    0.54688291    0.26979963
     The non-local contrib.  to forces
     atom    1 type  1   force =    -0.36482804   -0.79684971   -0.25836562
     atom    2 type  1   force =    -0.79944571    0.68109880   -0.73054069
     atom    3 type  2   force =    -0.51918368    0.12974450   -0.42795768
     atom    4 type  2   force =     0.02578890   -0.25846565   -0.21537991
     The ionic contribution  to forces
     atom    1 type  1   force =    -3.07498024   -7.94100027    0.94251380
     atom    2 type  1   force =    -7.33070501    5.43382968   -9.56030159
     atom    3 type  2   force =     6.60417357   -4.43065503    2.34819955
     atom    4 type  2   force =     3.80151168    6.93782562    6.26958824
     The local contribution  to forces
     atom    1 type  1   force =     3.07085533    8.12042725   -0.90790188
     atom    2 type  1   force =     7.51220743   -5.67179311    9.80195375
     atom    3 type  2   force =    -5.58839818    3.90533745   -1.58942939
     atom    4 type  2   force =    -3.46812937   -6.13170454   -5.78464275
     The core correction contribution to forces
     atom    1 type  1   force =     0.04428274    0.09069413    0.03328077
     atom    2 type  1   force =     0.08722435   -0.06878636    0.07647724
     atom    3 type  2   force =     0.00195689    0.00104493    0.00225908
     atom    4 type  2   force =    -0.00232576   -0.00076741    0.00024261
     The Hubbard contrib.    to forces
     atom    1 type  1   force =     0.00000000    0.00000000    0.00000000
     atom    2 type  1   force =     0.00000000    0.00000000    0.00000000
     atom    3 type  2   force =     0.00000000    0.00000000    0.00000000
     atom    4 type  2   force =     0.00000000    0.00000000    0.00000000
     The SCF correction term to forces
     atom    1 type  1   force =     0.00001306    0.00002471    0.00001718
     atom    2 type  1   force =    -0.00001259    0.00000825   -0.00000899
     atom    3 type  2   force =    -0.00000144    0.00000343    0.00001029
     atom    4 type  2   force =    -0.00000036   -0.00000126   -0.00000675

     Total force =     1.423152     Total SCF correction =     0.000039

     Writing all to output data dir ./ZnO_ANN.save/

     init_run     :      3.61s CPU      3.71s WALL (       1 calls)
     electrons    :    221.40s CPU    225.46s WALL (       1 calls)
     forces       :      1.16s CPU      1.18s WALL (       1 calls)

     Called by init_run:
     wfcinit      :      2.67s CPU      2.73s WALL (       1 calls)
     potinit      :      0.32s CPU      0.32s WALL (       1 calls)
     hinit0       :      0.54s CPU      0.55s WALL (       1 calls)

     Called by electrons:
     c_bands      :    199.31s CPU    202.82s WALL (      26 calls)
     sum_band     :     19.95s CPU     20.44s WALL (      26 calls)
     v_of_rho     :      0.52s CPU      0.55s WALL (      27 calls)
     newd         :      1.57s CPU      1.59s WALL (      27 calls)
     mix_rho      :      0.08s CPU      0.09s WALL (      26 calls)

     Called by c_bands:
     init_us_2    :      1.46s CPU      1.49s WALL (    6048 calls)
     init_us_2:cp :      1.44s CPU      1.47s WALL (    6048 calls)
     cegterg      :    194.91s CPU    198.34s WALL (    2912 calls)

     Called by *egterg:
     cdiaghg      :     18.38s CPU     18.49s WALL (   15891 calls)
     h_psi        :    117.19s CPU    119.82s WALL (   16003 calls)
     s_psi        :     14.81s CPU     14.92s WALL (   16003 calls)
     g_psi        :      0.40s CPU      0.41s WALL (   12979 calls)

     Called by h_psi:
     h_psi:calbec :     15.32s CPU     15.84s WALL (   16003 calls)
     vloc_psi     :     86.65s CPU     88.64s WALL (   16003 calls)
     add_vuspsi   :     14.87s CPU     14.99s WALL (   16003 calls)

     General routines
     calbec       :     20.13s CPU     20.79s WALL (   19363 calls)
     fft          :      0.52s CPU      0.57s WALL (     360 calls)
     ffts         :      0.12s CPU      0.12s WALL (      53 calls)
     fftw         :     85.83s CPU     87.82s WALL (  423876 calls)
     interpolate  :      0.14s CPU      0.14s WALL (      27 calls)

     Parallel routines

     PWSCF        :   3m46.93s CPU   3m51.38s WALL


   This run was terminated on:  17:48:31  24Jun2025            

=------------------------------------------------------------------------------=
   JOB DONE.
=------------------------------------------------------------------------------=
Note: The following floating-point exceptions are signalling: IEEE_INVALID_FLAG
