
     Program PWSCF v.7.2 starts on 24Jun2025 at 17:39: 1 

     This program is part of the open-source Quantum ESPRESSO suite
     for quantum simulation of materials; please cite
         "P. Giannozzi et al., J. Phys.:Condens. Matter 21 395502 (2009);
         "P. Giannozzi et al., J. Phys.:Condens. Matter 29 465901 (2017);
         "P. Giannozzi et al., J. Chem. Phys. 152 154105 (2020);
          URL http://www.quantum-espresso.org", 
     in publications or presentations arising from this work. More details at
     http://www.quantum-espresso.org/quote

     Parallel version (MPI), running on     8 processors

     MPI processes distributed on     1 nodes
     90895 MiB available memory on the printing compute node when the environment starts

     Reading input from /home/jvc/QEspresso7.2/ZnO_DataBase/scf_025_NOSYM.in/scf-6.30-1.55-0.25-5.in

     Current dimensions of program PWSCF are:
     Max number of different atomic species (ntypx) = 10
     Max number of k-points (npk) =  40000
     Max angular momentum in pseudopotentials (lmaxx) =  4
     file Zn.upf: wavefunction(s)  3D renormalized

     R & G space division:  proc/nbgrp/npool/nimage =       8
     Subspace diagonalization in iterative solution of the eigenvalue problem:
     a serial algorithm will be used


     Parallelization info
     --------------------
     sticks:   dense  smooth     PW     G-vecs:    dense   smooth      PW
     Min         137      68     20                 5853     2068     346
     Max         138      69     21                 5856     2075     353
     Sum        1099     547    163                46835    16563    2791

     Using Slab Decomposition



     bravais-lattice index     =            0
     lattice parameter (alat)  =       6.3024  a.u.
     unit-cell volume          =     346.8711 (a.u.)^3
     number of atoms/cell      =            4
     number of atomic types    =            2
     number of electrons       =        36.00
     number of Kohn-Sham states=           18
     kinetic-energy cutoff     =      50.0000  Ry
     charge density cutoff     =     400.0000  Ry
     scf convergence threshold =      1.0E-08
     mixing beta               =       0.3000
     number of iterations used =            8  plain     mixing
     Exchange-correlation= PBE
                           (   1   4   3   4   0   0   0)

     celldm(1)=   6.302398  celldm(2)=   0.000000  celldm(3)=   0.000000
     celldm(4)=   0.000000  celldm(5)=   0.000000  celldm(6)=   0.000000

     crystal axes: (cart. coord. in units of alat)
               a(1) = (   1.000000   0.000000   0.000000 )  
               a(2) = (  -0.500000   0.866025   0.000000 )  
               a(3) = (   0.000000   0.000000   1.600000 )  

     reciprocal axes: (cart. coord. in units 2 pi/alat)
               b(1) = (  1.000000  0.577350 -0.000000 )  
               b(2) = (  0.000000  1.154701  0.000000 )  
               b(3) = (  0.000000 -0.000000  0.625000 )  


     PseudoPot. # 1 for Zn read from file:
     ./pseudos/Zn.upf
     MD5 check sum: 7f56cabf9682ed8c977c2f7d0c5985c5
     Pseudo is Ultrasoft + core correction, Zval = 12.0
     Generated using &quot;atomic&quot; code by A. Dal Corso  v.6.2.2
     Using radial grid of 1201 points,  6 beta functions with: 
                l(1) =   0
                l(2) =   0
                l(3) =   1
                l(4) =   1
                l(5) =   2
                l(6) =   2
     Q(r) pseudized with 0 coefficients 


     PseudoPot. # 2 for O  read from file:
     ./pseudos/O.upf
     MD5 check sum: 91400c9766925bcf19f520983a725ff0
     Pseudo is Ultrasoft + core correction, Zval =  6.0
     Generated using &quot;atomic&quot; code by A. Dal Corso  v.6.3MaX
     Using radial grid of 1095 points,  4 beta functions with: 
                l(1) =   0
                l(2) =   0
                l(3) =   1
                l(4) =   1
     Q(r) pseudized with 0 coefficients 


     atomic species   valence    mass     pseudopotential
        Zn            12.00    63.38000     Zn( 1.00)
        O              6.00    15.99900     O ( 1.00)

     No symmetry found



   Cartesian axes

     site n.     atom                  positions (alat units)
         1           Zn  tau(   1) = (   0.5006655   0.2122976   0.7003718  )
         2           Zn  tau(   2) = (  -0.3522180   0.7614997   0.1175655  )
         3           O   tau(   3) = (   0.7202485   0.2841278   1.4319357  )
         4           O   tau(   4) = (  -0.1532873   0.5024892   0.5297392  )

     number of k points=   112

     Number of k-points >= 100: set verbosity='high' to print them.

     Dense  grid:    46835 G-vectors     FFT dimensions: (  45,  45,  72)

     Smooth grid:    16563 G-vectors     FFT dimensions: (  30,  30,  45)

     Estimated max dynamical RAM per process >      32.29 MB

     Estimated total dynamical RAM >     258.31 MB

     Check: negative core charge=   -0.000002

     Initial potential from superposition of free atoms

     starting charge      35.9925, renormalised to      36.0000
     Starting wfcs are   26 randomized atomic wfcs

     total cpu time spent up to now is        4.2 secs

     Self-consistent Calculation

     iteration #  1     ecut=    50.00 Ry     beta= 0.30
     Davidson diagonalization with overlap
     ethr =  1.00E-02,  avg # of iterations =  2.0

     total cpu time spent up to now is        9.6 secs

     total energy              =    -361.12100473 Ry
     estimated scf accuracy    <       0.96692612 Ry

     iteration #  2     ecut=    50.00 Ry     beta= 0.30
     Davidson diagonalization with overlap
     ethr =  2.69E-03,  avg # of iterations =  2.3

     total cpu time spent up to now is       16.0 secs

     total energy              =    -361.25488772 Ry
     estimated scf accuracy    <       0.11657778 Ry

     iteration #  3     ecut=    50.00 Ry     beta= 0.30
     Davidson diagonalization with overlap
     ethr =  3.24E-04,  avg # of iterations =  7.9

     total cpu time spent up to now is       27.9 secs

     total energy              =    -361.30080194 Ry
     estimated scf accuracy    <       0.16462046 Ry

     iteration #  4     ecut=    50.00 Ry     beta= 0.30
     Davidson diagonalization with overlap
     ethr =  3.24E-04,  avg # of iterations =  5.6

     total cpu time spent up to now is       36.3 secs

     total energy              =    -361.35740645 Ry
     estimated scf accuracy    <       0.04871800 Ry

     iteration #  5     ecut=    50.00 Ry     beta= 0.30
     Davidson diagonalization with overlap
     ethr =  1.35E-04,  avg # of iterations =  1.7

     total cpu time spent up to now is       41.5 secs

     total energy              =    -361.34165953 Ry
     estimated scf accuracy    <       0.03853860 Ry

     iteration #  6     ecut=    50.00 Ry     beta= 0.30
     Davidson diagonalization with overlap
     ethr =  1.07E-04,  avg # of iterations =  5.8

     total cpu time spent up to now is       48.8 secs

     total energy              =    -361.35081474 Ry
     estimated scf accuracy    <       0.00361492 Ry

     iteration #  7     ecut=    50.00 Ry     beta= 0.30
     Davidson diagonalization with overlap
     ethr =  1.00E-05,  avg # of iterations =  5.4

     total cpu time spent up to now is       56.6 secs

     total energy              =    -361.35197286 Ry
     estimated scf accuracy    <       0.00045818 Ry

     iteration #  8     ecut=    50.00 Ry     beta= 0.30
     Davidson diagonalization with overlap
     c_bands:  1 eigenvalues not converged
     ethr =  1.27E-06,  avg # of iterations =  5.2

     total cpu time spent up to now is       65.4 secs

     total energy              =    -361.35214845 Ry
     estimated scf accuracy    <       0.00008450 Ry

     iteration #  9     ecut=    50.00 Ry     beta= 0.30
     Davidson diagonalization with overlap
     c_bands:  1 eigenvalues not converged
     ethr =  2.35E-07,  avg # of iterations =  6.7

     total cpu time spent up to now is       73.8 secs

     total energy              =    -361.35220716 Ry
     estimated scf accuracy    <       0.00014661 Ry

     iteration # 10     ecut=    50.00 Ry     beta= 0.30
     Davidson diagonalization with overlap
     c_bands:  1 eigenvalues not converged
     ethr =  2.35E-07,  avg # of iterations =  2.2

     total cpu time spent up to now is       79.3 secs

     total energy              =    -361.35218477 Ry
     estimated scf accuracy    <       0.00007178 Ry

     iteration # 11     ecut=    50.00 Ry     beta= 0.30
     Davidson diagonalization with overlap
     c_bands:  1 eigenvalues not converged
     ethr =  1.99E-07,  avg # of iterations =  7.3

     total cpu time spent up to now is       88.4 secs

     total energy              =    -361.35222140 Ry
     estimated scf accuracy    <       0.00009669 Ry

     iteration # 12     ecut=    50.00 Ry     beta= 0.30
     Davidson diagonalization with overlap
     ethr =  1.99E-07,  avg # of iterations =  1.5

     total cpu time spent up to now is       93.6 secs

     total energy              =    -361.35220791 Ry
     estimated scf accuracy    <       0.00004874 Ry

     iteration # 13     ecut=    50.00 Ry     beta= 0.30
     Davidson diagonalization with overlap
     ethr =  1.35E-07,  avg # of iterations =  5.6

     total cpu time spent up to now is      101.5 secs

     total energy              =    -361.35222662 Ry
     estimated scf accuracy    <       0.00001110 Ry

     iteration # 14     ecut=    50.00 Ry     beta= 0.30
     Davidson diagonalization with overlap
     ethr =  3.08E-08,  avg # of iterations =  2.4

     total cpu time spent up to now is      107.1 secs

     total energy              =    -361.35222503 Ry
     estimated scf accuracy    <       0.00000696 Ry

     iteration # 15     ecut=    50.00 Ry     beta= 0.30
     Davidson diagonalization with overlap
     ethr =  1.93E-08,  avg # of iterations =  3.6

     total cpu time spent up to now is      113.8 secs

     total energy              =    -361.35222609 Ry
     estimated scf accuracy    <       0.00000172 Ry

     iteration # 16     ecut=    50.00 Ry     beta= 0.30
     Davidson diagonalization with overlap
     ethr =  4.78E-09,  avg # of iterations =  4.2

     total cpu time spent up to now is      120.5 secs

     total energy              =    -361.35222623 Ry
     estimated scf accuracy    <       0.00000047 Ry

     iteration # 17     ecut=    50.00 Ry     beta= 0.30
     Davidson diagonalization with overlap
     c_bands:  1 eigenvalues not converged
     ethr =  1.30E-09,  avg # of iterations =  8.4

     total cpu time spent up to now is      131.4 secs

     total energy              =    -361.35222641 Ry
     estimated scf accuracy    <       0.00000121 Ry

     iteration # 18     ecut=    50.00 Ry     beta= 0.30
     Davidson diagonalization with overlap
     ethr =  1.30E-09,  avg # of iterations =  4.7

     total cpu time spent up to now is      139.8 secs

     total energy              =    -361.35222651 Ry
     estimated scf accuracy    <       0.00000042 Ry

     iteration # 19     ecut=    50.00 Ry     beta= 0.30
     Davidson diagonalization with overlap
     ethr =  1.17E-09,  avg # of iterations =  1.4

     total cpu time spent up to now is      144.8 secs

     total energy              =    -361.35222646 Ry
     estimated scf accuracy    <       0.00000024 Ry

     iteration # 20     ecut=    50.00 Ry     beta= 0.30
     Davidson diagonalization with overlap
     ethr =  6.67E-10,  avg # of iterations =  5.3

     total cpu time spent up to now is      151.5 secs

     End of self-consistent calculation

     Number of k-points >= 100: set verbosity='high' to print the bands.

     highest occupied level (ev):     6.8974

!    total energy              =    -361.35222651 Ry
     estimated scf accuracy    <          2.6E-09 Ry

     The total energy is the sum of the following terms:
     one-electron contribution =    -186.08860711 Ry
     hartree contribution      =     132.48418223 Ry
     xc contribution           =    -109.49542043 Ry
     ewald contribution        =    -198.25238120 Ry

     convergence has been achieved in  20 iterations

     Forces acting on atoms (cartesian axes, Ry/au):

     atom    1 type  1   force =    -0.19970918   -0.19114417    0.18890073
     atom    2 type  1   force =    -0.06906450    0.12093777   -0.21837713
     atom    3 type  2   force =    -0.01076478   -0.09576070   -0.04083481
     atom    4 type  2   force =     0.27953847    0.16596710    0.07031121
     The non-local contrib.  to forces
     atom    1 type  1   force =    -0.66648299   -0.37694278    0.22144683
     atom    2 type  1   force =    -0.14780589    0.52920209    0.30633721
     atom    3 type  2   force =    -0.03765405    0.00029192    0.38905058
     atom    4 type  2   force =    -0.64642219    0.32720010    0.20812688
     The ionic contribution  to forces
     atom    1 type  1   force =    -4.67249427   -2.91997207   18.92906113
     atom    2 type  1   force =    -2.90332064    5.13155700  -14.72477894
     atom    3 type  2   force =     0.08322371   -2.48409164   -9.76874714
     atom    4 type  2   force =     7.49259119    0.27250671    5.56446494
     The local contribution  to forces
     atom    1 type  1   force =     5.08285666    3.07190775  -18.92471581
     atom    2 type  1   force =     2.96484664   -5.49354803   14.19132627
     atom    3 type  2   force =    -0.05667271    2.38705607    9.34163988
     atom    4 type  2   force =    -6.57049897   -0.42982250   -5.69983056
     The core correction contribution to forces
     atom    1 type  1   force =     0.05638163    0.03383460   -0.03680942
     atom    2 type  1   force =     0.01722351   -0.04625092    0.00858290
     atom    3 type  2   force =     0.00035071    0.00097864   -0.00282460
     atom    4 type  2   force =     0.00391136   -0.00391912   -0.00247334
     The Hubbard contrib.    to forces
     atom    1 type  1   force =     0.00000000    0.00000000    0.00000000
     atom    2 type  1   force =     0.00000000    0.00000000    0.00000000
     atom    3 type  2   force =     0.00000000    0.00000000    0.00000000
     atom    4 type  2   force =     0.00000000    0.00000000    0.00000000
     The SCF correction term to forces
     atom    1 type  1   force =     0.00003947    0.00002947   -0.00009562
     atom    2 type  1   force =     0.00000154   -0.00002122    0.00014182
     atom    3 type  2   force =    -0.00000276    0.00000544    0.00003286
     atom    4 type  2   force =    -0.00003324    0.00000306    0.00000968

     Total force =     0.548427     Total SCF correction =     0.000186

     Writing all to output data dir ./ZnO_ANN.save/

     init_run     :      3.62s CPU      3.72s WALL (       1 calls)
     electrons    :    144.71s CPU    147.33s WALL (       1 calls)
     forces       :      1.21s CPU      1.22s WALL (       1 calls)

     Called by init_run:
     wfcinit      :      2.68s CPU      2.74s WALL (       1 calls)
     potinit      :      0.32s CPU      0.32s WALL (       1 calls)
     hinit0       :      0.54s CPU      0.55s WALL (       1 calls)

     Called by electrons:
     c_bands      :    127.61s CPU    129.85s WALL (      20 calls)
     sum_band     :     15.43s CPU     15.77s WALL (      20 calls)
     v_of_rho     :      0.41s CPU      0.43s WALL (      21 calls)
     newd         :      1.23s CPU      1.26s WALL (      21 calls)
     mix_rho      :      0.06s CPU      0.07s WALL (      20 calls)

     Called by c_bands:
     init_us_2    :      1.16s CPU      1.18s WALL (    4704 calls)
     init_us_2:cp :      1.14s CPU      1.16s WALL (    4704 calls)
     cegterg      :    124.13s CPU    126.31s WALL (    2240 calls)

     Called by *egterg:
     cdiaghg      :     13.61s CPU     13.72s WALL (   12223 calls)
     h_psi        :     75.69s CPU     77.39s WALL (   12335 calls)
     s_psi        :      9.48s CPU      9.55s WALL (   12335 calls)
     g_psi        :      0.24s CPU      0.24s WALL (    9983 calls)

     Called by h_psi:
     h_psi:calbec :      9.83s CPU     10.17s WALL (   12335 calls)
     vloc_psi     :     56.13s CPU     57.40s WALL (   12335 calls)
     add_vuspsi   :      9.49s CPU      9.57s WALL (   12335 calls)

     General routines
     calbec       :     13.70s CPU     14.13s WALL (   15023 calls)
     fft          :      0.46s CPU      0.50s WALL (     282 calls)
     ffts         :      0.11s CPU      0.12s WALL (      41 calls)
     fftw         :     57.00s CPU     58.29s WALL (  276966 calls)
     interpolate  :      0.13s CPU      0.13s WALL (      21 calls)

     Parallel routines

     PWSCF        :   2m30.27s CPU   2m33.24s WALL


   This run was terminated on:  17:41:34  24Jun2025            

=------------------------------------------------------------------------------=
   JOB DONE.
=------------------------------------------------------------------------------=
Note: The following floating-point exceptions are signalling: IEEE_INVALID_FLAG
