
     Program PWSCF v.7.2 starts on 24Jun2025 at 15:41:22 

     This program is part of the open-source Quantum ESPRESSO suite
     for quantum simulation of materials; please cite
         "P. Giannozzi et al., J. Phys.:Condens. Matter 21 395502 (2009);
         "P. Giannozzi et al., J. Phys.:Condens. Matter 29 465901 (2017);
         "P. Giannozzi et al., J. Chem. Phys. 152 154105 (2020);
          URL http://www.quantum-espresso.org", 
     in publications or presentations arising from this work. More details at
     http://www.quantum-espresso.org/quote

     Parallel version (MPI), running on     8 processors

     MPI processes distributed on     1 nodes
     91170 MiB available memory on the printing compute node when the environment starts

     Reading input from /home/jvc/QEspresso7.2/ZnO_DataBase/scf_025_NOSYM.in/scf-5.93-1.45-0.25-4.in

     Current dimensions of program PWSCF are:
     Max number of different atomic species (ntypx) = 10
     Max number of k-points (npk) =  40000
     Max angular momentum in pseudopotentials (lmaxx) =  4
     file Zn.upf: wavefunction(s)  3D renormalized

     R & G space division:  proc/nbgrp/npool/nimage =       8
     Subspace diagonalization in iterative solution of the eigenvalue problem:
     a serial algorithm will be used


     Parallelization info
     --------------------
     sticks:   dense  smooth     PW     G-vecs:    dense   smooth      PW
     Min         119      62     18                 4887     1734     288
     Max         120      63     19                 4898     1737     293
     Sum         955     499    151                39127    13885    2333

     Using Slab Decomposition



     bravais-lattice index     =            0
     lattice parameter (alat)  =       5.9317  a.u.
     unit-cell volume          =     289.1886 (a.u.)^3
     number of atoms/cell      =            4
     number of atomic types    =            2
     number of electrons       =        36.00
     number of Kohn-Sham states=           18
     kinetic-energy cutoff     =      50.0000  Ry
     charge density cutoff     =     400.0000  Ry
     scf convergence threshold =      1.0E-08
     mixing beta               =       0.3000
     number of iterations used =            8  plain     mixing
     Exchange-correlation= PBE
                           (   1   4   3   4   0   0   0)

     celldm(1)=   5.931669  celldm(2)=   0.000000  celldm(3)=   0.000000
     celldm(4)=   0.000000  celldm(5)=   0.000000  celldm(6)=   0.000000

     crystal axes: (cart. coord. in units of alat)
               a(1) = (   1.000000   0.000000   0.000000 )  
               a(2) = (  -0.500000   0.866025   0.000000 )  
               a(3) = (   0.000000   0.000000   1.600000 )  

     reciprocal axes: (cart. coord. in units 2 pi/alat)
               b(1) = (  1.000000  0.577350 -0.000000 )  
               b(2) = (  0.000000  1.154701  0.000000 )  
               b(3) = (  0.000000 -0.000000  0.625000 )  


     PseudoPot. # 1 for Zn read from file:
     ./pseudos/Zn.upf
     MD5 check sum: 7f56cabf9682ed8c977c2f7d0c5985c5
     Pseudo is Ultrasoft + core correction, Zval = 12.0
     Generated using &quot;atomic&quot; code by A. Dal Corso  v.6.2.2
     Using radial grid of 1201 points,  6 beta functions with: 
                l(1) =   0
                l(2) =   0
                l(3) =   1
                l(4) =   1
                l(5) =   2
                l(6) =   2
     Q(r) pseudized with 0 coefficients 


     PseudoPot. # 2 for O  read from file:
     ./pseudos/O.upf
     MD5 check sum: 91400c9766925bcf19f520983a725ff0
     Pseudo is Ultrasoft + core correction, Zval =  6.0
     Generated using &quot;atomic&quot; code by A. Dal Corso  v.6.3MaX
     Using radial grid of 1095 points,  4 beta functions with: 
                l(1) =   0
                l(2) =   0
                l(3) =   1
                l(4) =   1
     Q(r) pseudized with 0 coefficients 


     atomic species   valence    mass     pseudopotential
        Zn            12.00    63.38000     Zn( 1.00)
        O              6.00    15.99900     O ( 1.00)

     No symmetry found



   Cartesian axes

     site n.     atom                  positions (alat units)
         1           Zn  tau(   1) = (   0.4239843   0.3424905   0.7242449  )
         2           Zn  tau(   2) = (   0.0930416   0.5293004  -0.2423460  )
         3           O   tau(   3) = (   0.4833947   0.4982481   1.2939222  )
         4           O   tau(   4) = (  -0.0230387   0.7577039   0.4983375  )

     number of k points=   112

     Number of k-points >= 100: set verbosity='high' to print them.

     Dense  grid:    39127 G-vectors     FFT dimensions: (  40,  40,  64)

     Smooth grid:    13885 G-vectors     FFT dimensions: (  27,  27,  45)

     Estimated max dynamical RAM per process >      27.34 MB

     Estimated total dynamical RAM >     218.72 MB

     Check: negative core charge=   -0.000002

     Initial potential from superposition of free atoms

     starting charge      35.9925, renormalised to      36.0000
     Starting wfcs are   26 randomized atomic wfcs

     total cpu time spent up to now is        3.8 secs

     Self-consistent Calculation

     iteration #  1     ecut=    50.00 Ry     beta= 0.30
     Davidson diagonalization with overlap
     ethr =  1.00E-02,  avg # of iterations =  2.3

     total cpu time spent up to now is        9.1 secs

     total energy              =    -360.49816868 Ry
     estimated scf accuracy    <       1.04837560 Ry

     iteration #  2     ecut=    50.00 Ry     beta= 0.30
     Davidson diagonalization with overlap
     ethr =  2.91E-03,  avg # of iterations =  2.0

     total cpu time spent up to now is       14.7 secs

     total energy              =    -360.53053077 Ry
     estimated scf accuracy    <       0.21106817 Ry

     iteration #  3     ecut=    50.00 Ry     beta= 0.30
     Davidson diagonalization with overlap
     ethr =  5.86E-04,  avg # of iterations =  6.3

     total cpu time spent up to now is       25.2 secs

     total energy              =    -360.68330253 Ry
     estimated scf accuracy    <       0.21689905 Ry

     iteration #  4     ecut=    50.00 Ry     beta= 0.30
     Davidson diagonalization with overlap
     ethr =  5.86E-04,  avg # of iterations =  1.9

     total cpu time spent up to now is       30.1 secs

     total energy              =    -360.65833151 Ry
     estimated scf accuracy    <       0.05830684 Ry

     iteration #  5     ecut=    50.00 Ry     beta= 0.30
     Davidson diagonalization with overlap
     ethr =  1.62E-04,  avg # of iterations =  8.2

     total cpu time spent up to now is       45.6 secs

     total energy              =    -360.71438412 Ry
     estimated scf accuracy    <       0.72757944 Ry

     iteration #  6     ecut=    50.00 Ry     beta= 0.30
     Davidson diagonalization with overlap
     ethr =  1.62E-04,  avg # of iterations =  5.2

     total cpu time spent up to now is       54.7 secs

     total energy              =    -360.73261825 Ry
     estimated scf accuracy    <       0.20142716 Ry

     iteration #  7     ecut=    50.00 Ry     beta= 0.30
     Davidson diagonalization with overlap
     ethr =  1.62E-04,  avg # of iterations =  1.4

     total cpu time spent up to now is       59.1 secs

     total energy              =    -360.67301588 Ry
     estimated scf accuracy    <       0.15208215 Ry

     iteration #  8     ecut=    50.00 Ry     beta= 0.30
     Davidson diagonalization with overlap
     ethr =  1.62E-04,  avg # of iterations =  5.4

     total cpu time spent up to now is       67.7 secs

     total energy              =    -360.70758541 Ry
     estimated scf accuracy    <       0.00228321 Ry

     iteration #  9     ecut=    50.00 Ry     beta= 0.30
     Davidson diagonalization with overlap
     ethr =  6.34E-06,  avg # of iterations =  5.9

     total cpu time spent up to now is       76.2 secs

     total energy              =    -360.70988314 Ry
     estimated scf accuracy    <       0.00229720 Ry

     iteration # 10     ecut=    50.00 Ry     beta= 0.30
     Davidson diagonalization with overlap
     ethr =  6.34E-06,  avg # of iterations =  1.2

     total cpu time spent up to now is       80.6 secs

     total energy              =    -360.71379869 Ry
     estimated scf accuracy    <       0.00347138 Ry

     iteration # 11     ecut=    50.00 Ry     beta= 0.30
     Davidson diagonalization with overlap
     ethr =  6.34E-06,  avg # of iterations =  8.7

     total cpu time spent up to now is       95.3 secs

     total energy              =    -360.72543287 Ry
     estimated scf accuracy    <       0.04895266 Ry

     iteration # 12     ecut=    50.00 Ry     beta= 0.30
     Davidson diagonalization with overlap
     ethr =  6.34E-06,  avg # of iterations =  1.7

     total cpu time spent up to now is      100.0 secs

     total energy              =    -360.73277157 Ry
     estimated scf accuracy    <       0.05677656 Ry

     iteration # 13     ecut=    50.00 Ry     beta= 0.30
     Davidson diagonalization with overlap
     ethr =  6.34E-06,  avg # of iterations =  5.7

     total cpu time spent up to now is      108.5 secs

     total energy              =    -360.75053328 Ry
     estimated scf accuracy    <       0.09539983 Ry

     iteration # 14     ecut=    50.00 Ry     beta= 0.30
     Davidson diagonalization with overlap
     ethr =  6.34E-06,  avg # of iterations =  6.3

     total cpu time spent up to now is      118.3 secs

     total energy              =    -360.74890221 Ry
     estimated scf accuracy    <       0.16492133 Ry

     iteration # 15     ecut=    50.00 Ry     beta= 0.30
     Davidson diagonalization with overlap
     ethr =  6.34E-06,  avg # of iterations =  1.0

     total cpu time spent up to now is      122.5 secs

     total energy              =    -360.76421568 Ry
     estimated scf accuracy    <       0.15802055 Ry

     iteration # 16     ecut=    50.00 Ry     beta= 0.30
     Davidson diagonalization with overlap
     ethr =  6.34E-06,  avg # of iterations =  4.9

     total cpu time spent up to now is      130.0 secs

     total energy              =    -360.76442037 Ry
     estimated scf accuracy    <       0.20752425 Ry

     iteration # 17     ecut=    50.00 Ry     beta= 0.30
     Davidson diagonalization with overlap
     ethr =  6.34E-06,  avg # of iterations =  1.6

     total cpu time spent up to now is      134.5 secs

     total energy              =    -360.67000702 Ry
     estimated scf accuracy    <       0.20936961 Ry

     iteration # 18     ecut=    50.00 Ry     beta= 0.30
     Davidson diagonalization with overlap
     ethr =  6.34E-06,  avg # of iterations = 11.3

     total cpu time spent up to now is      153.6 secs

     total energy              =    -360.70896343 Ry
     estimated scf accuracy    <       0.00043608 Ry

     iteration # 19     ecut=    50.00 Ry     beta= 0.30
     Davidson diagonalization with overlap
     ethr =  1.21E-06,  avg # of iterations =  6.5

     total cpu time spent up to now is      162.5 secs

     total energy              =    -360.70910143 Ry
     estimated scf accuracy    <       0.00156190 Ry

     iteration # 20     ecut=    50.00 Ry     beta= 0.30
     Davidson diagonalization with overlap
     ethr =  1.21E-06,  avg # of iterations =  1.1

     total cpu time spent up to now is      166.8 secs

     total energy              =    -360.70887372 Ry
     estimated scf accuracy    <       0.00117770 Ry

     iteration # 21     ecut=    50.00 Ry     beta= 0.30
     Davidson diagonalization with overlap
     ethr =  1.21E-06,  avg # of iterations =  2.0

     total cpu time spent up to now is      172.0 secs

     total energy              =    -360.70859844 Ry
     estimated scf accuracy    <       0.00059519 Ry

     iteration # 22     ecut=    50.00 Ry     beta= 0.30
     Davidson diagonalization with overlap
     ethr =  1.21E-06,  avg # of iterations =  5.6

     total cpu time spent up to now is      181.2 secs

     total energy              =    -360.70886710 Ry
     estimated scf accuracy    <       0.00008690 Ry

     iteration # 23     ecut=    50.00 Ry     beta= 0.30
     Davidson diagonalization with overlap
     ethr =  2.41E-07,  avg # of iterations =  2.7

     total cpu time spent up to now is      186.7 secs

     total energy              =    -360.70885088 Ry
     estimated scf accuracy    <       0.00009675 Ry

     iteration # 24     ecut=    50.00 Ry     beta= 0.30
     Davidson diagonalization with overlap
     ethr =  2.41E-07,  avg # of iterations =  1.2

     total cpu time spent up to now is      191.0 secs

     total energy              =    -360.70883214 Ry
     estimated scf accuracy    <       0.00004421 Ry

     iteration # 25     ecut=    50.00 Ry     beta= 0.30
     Davidson diagonalization with overlap
     ethr =  1.23E-07,  avg # of iterations =  4.3

     total cpu time spent up to now is      198.4 secs

     total energy              =    -360.70884949 Ry
     estimated scf accuracy    <       0.00000123 Ry

     iteration # 26     ecut=    50.00 Ry     beta= 0.30
     Davidson diagonalization with overlap
     ethr =  3.42E-09,  avg # of iterations =  6.4

     total cpu time spent up to now is      208.9 secs

     total energy              =    -360.70885150 Ry
     estimated scf accuracy    <       0.00000032 Ry

     iteration # 27     ecut=    50.00 Ry     beta= 0.30
     Davidson diagonalization with overlap
     ethr =  8.77E-10,  avg # of iterations =  5.4

     total cpu time spent up to now is      217.8 secs

     total energy              =    -360.70885097 Ry
     estimated scf accuracy    <       0.00000122 Ry

     iteration # 28     ecut=    50.00 Ry     beta= 0.30
     Davidson diagonalization with overlap
     ethr =  8.77E-10,  avg # of iterations =  7.7

     total cpu time spent up to now is      229.9 secs

     total energy              =    -360.70885139 Ry
     estimated scf accuracy    <       0.00000023 Ry

     iteration # 29     ecut=    50.00 Ry     beta= 0.30
     Davidson diagonalization with overlap
     ethr =  6.30E-10,  avg # of iterations =  1.7

     total cpu time spent up to now is      234.5 secs

     total energy              =    -360.70885131 Ry
     estimated scf accuracy    <       0.00000021 Ry

     iteration # 30     ecut=    50.00 Ry     beta= 0.30
     Davidson diagonalization with overlap
     ethr =  5.80E-10,  avg # of iterations =  5.0

     total cpu time spent up to now is      240.6 secs

     total energy              =    -360.70885132 Ry
     estimated scf accuracy    <       0.00000005 Ry

     iteration # 31     ecut=    50.00 Ry     beta= 0.30
     Davidson diagonalization with overlap
     ethr =  1.34E-10,  avg # of iterations =  5.0

     total cpu time spent up to now is      248.6 secs

     End of self-consistent calculation

     Number of k-points >= 100: set verbosity='high' to print the bands.

     highest occupied level (ev):     9.4773

!    total energy              =    -360.70885134 Ry
     estimated scf accuracy    <          8.4E-09 Ry

     The total energy is the sum of the following terms:
     one-electron contribution =    -165.02053311 Ry
     hartree contribution      =     124.53389701 Ry
     xc contribution           =    -110.14781772 Ry
     ewald contribution        =    -210.07439752 Ry

     convergence has been achieved in  31 iterations

     Forces acting on atoms (cartesian axes, Ry/au):

     atom    1 type  1   force =    -0.00630346    0.27150065   -0.03533179
     atom    2 type  1   force =    -2.20490987    0.18724449    0.44484688
     atom    3 type  2   force =     2.18140763   -0.14135427   -0.27216397
     atom    4 type  2   force =     0.02980571   -0.31739086   -0.13735112
     The non-local contrib.  to forces
     atom    1 type  1   force =    -0.06992004    0.61412369    0.51610516
     atom    2 type  1   force =    -0.82288465    0.02718918   -0.03388654
     atom    3 type  2   force =    -0.34475177   -0.02374563   -0.32968771
     atom    4 type  2   force =     0.07649990    0.35707701    0.67473042
     The ionic contribution  to forces
     atom    1 type  1   force =     0.89296360    2.96576620  -10.78750659
     atom    2 type  1   force =   -16.41154705    1.73889434   14.88963768
     atom    3 type  2   force =    15.79293614   -0.04904204    5.00339100
     atom    4 type  2   force =    -0.27435268   -4.65561850   -9.10552209
     The local contribution  to forces
     atom    1 type  1   force =    -0.83290282   -3.25118237   10.25017979
     atom    2 type  1   force =    14.80804950   -1.55786517  -14.36329450
     atom    3 type  2   force =   -13.26056863   -0.06928863   -4.94955679
     atom    4 type  2   force =     0.22844439    3.98262829    8.29846807
     The core correction contribution to forces
     atom    1 type  1   force =     0.00354413   -0.05724925   -0.01418216
     atom    2 type  1   force =     0.22164923   -0.02097090   -0.04756058
     atom    3 type  2   force =    -0.00623830    0.00073355    0.00373005
     atom    4 type  2   force =    -0.00082501   -0.00147802   -0.00506894
     The Hubbard contrib.    to forces
     atom    1 type  1   force =     0.00000000    0.00000000    0.00000000
     atom    2 type  1   force =     0.00000000    0.00000000    0.00000000
     atom    3 type  2   force =     0.00000000    0.00000000    0.00000000
     atom    4 type  2   force =     0.00000000    0.00000000    0.00000000
     The SCF correction term to forces
     atom    1 type  1   force =    -0.00002355    0.00005244    0.00007591
     atom    2 type  1   force =    -0.00021213    0.00000709   -0.00004527
     atom    3 type  2   force =    -0.00000503   -0.00000146   -0.00003662
     atom    4 type  2   force =     0.00000389    0.00001041    0.00004532

     Total force =     3.184755     Total SCF correction =     0.000244

     Writing all to output data dir ./ZnO_ANN.save/

     init_run     :      3.28s CPU      3.38s WALL (       1 calls)
     electrons    :    240.13s CPU    244.80s WALL (       1 calls)
     forces       :      0.99s CPU      1.01s WALL (       1 calls)

     Called by init_run:
     wfcinit      :      2.42s CPU      2.47s WALL (       1 calls)
     potinit      :      0.24s CPU      0.25s WALL (       1 calls)
     hinit0       :      0.56s CPU      0.57s WALL (       1 calls)

     Called by electrons:
     c_bands      :    217.04s CPU    221.14s WALL (      31 calls)
     sum_band     :     21.01s CPU     21.51s WALL (      31 calls)
     v_of_rho     :      0.43s CPU      0.47s WALL (      32 calls)
     newd         :      1.59s CPU      1.62s WALL (      32 calls)
     mix_rho      :      0.08s CPU      0.09s WALL (      31 calls)

     Called by c_bands:
     init_us_2    :      1.39s CPU      1.41s WALL (    7168 calls)
     init_us_2:cp :      1.37s CPU      1.39s WALL (    7168 calls)
     cegterg      :    212.54s CPU    216.57s WALL (    3472 calls)

     Called by *egterg:
     cdiaghg      :     21.11s CPU     21.24s WALL (   18646 calls)
     h_psi        :    128.26s CPU    131.40s WALL (   18758 calls)
     s_psi        :     13.96s CPU     14.07s WALL (   18758 calls)
     g_psi        :      0.42s CPU      0.42s WALL (   15174 calls)

     Called by h_psi:
     h_psi:calbec :     15.80s CPU     16.36s WALL (   18758 calls)
     vloc_psi     :     98.11s CPU    100.56s WALL (   18758 calls)
     add_vuspsi   :     13.99s CPU     14.12s WALL (   18758 calls)

     General routines
     calbec       :     20.56s CPU     21.28s WALL (   22678 calls)
     fft          :      0.62s CPU      0.66s WALL (     425 calls)
     ffts         :      0.08s CPU      0.09s WALL (      63 calls)
     fftw         :    100.40s CPU    102.90s WALL (  515174 calls)
     interpolate  :      0.09s CPU      0.10s WALL (      32 calls)

     Parallel routines

     PWSCF        :   4m 5.12s CPU   4m10.07s WALL


   This run was terminated on:  15:45:32  24Jun2025            

=------------------------------------------------------------------------------=
   JOB DONE.
=------------------------------------------------------------------------------=
Note: The following floating-point exceptions are signalling: IEEE_INVALID_FLAG
