
     Program PWSCF v.7.2 starts on 24Jun2025 at 15:14: 0 

     This program is part of the open-source Quantum ESPRESSO suite
     for quantum simulation of materials; please cite
         "P. Giannozzi et al., J. Phys.:Condens. Matter 21 395502 (2009);
         "P. Giannozzi et al., J. Phys.:Condens. Matter 29 465901 (2017);
         "P. Giannozzi et al., J. Chem. Phys. 152 154105 (2020);
          URL http://www.quantum-espresso.org", 
     in publications or presentations arising from this work. More details at
     http://www.quantum-espresso.org/quote

     Parallel version (MPI), running on     8 processors

     MPI processes distributed on     1 nodes
     91209 MiB available memory on the printing compute node when the environment starts

     Reading input from /home/jvc/QEspresso7.2/ZnO_DataBase/scf_025_NOSYM.in/scf-5.81-1.49-0.25-1.in

     Current dimensions of program PWSCF are:
     Max number of different atomic species (ntypx) = 10
     Max number of k-points (npk) =  40000
     Max angular momentum in pseudopotentials (lmaxx) =  4
     file Zn.upf: wavefunction(s)  3D renormalized

     R & G space division:  proc/nbgrp/npool/nimage =       8
     Subspace diagonalization in iterative solution of the eigenvalue problem:
     a serial algorithm will be used


     Parallelization info
     --------------------
     sticks:   dense  smooth     PW     G-vecs:    dense   smooth      PW
     Min         116      57     18                 4582     1619     281
     Max         117      58     20                 4585     1622     284
     Sum         931     463    151                36665    12971    2261

     Using Slab Decomposition



     bravais-lattice index     =            0
     lattice parameter (alat)  =       5.8081  a.u.
     unit-cell volume          =     271.4883 (a.u.)^3
     number of atoms/cell      =            4
     number of atomic types    =            2
     number of electrons       =        36.00
     number of Kohn-Sham states=           18
     kinetic-energy cutoff     =      50.0000  Ry
     charge density cutoff     =     400.0000  Ry
     scf convergence threshold =      1.0E-08
     mixing beta               =       0.3000
     number of iterations used =            8  plain     mixing
     Exchange-correlation= PBE
                           (   1   4   3   4   0   0   0)

     celldm(1)=   5.808092  celldm(2)=   0.000000  celldm(3)=   0.000000
     celldm(4)=   0.000000  celldm(5)=   0.000000  celldm(6)=   0.000000

     crystal axes: (cart. coord. in units of alat)
               a(1) = (   1.000000   0.000000   0.000000 )  
               a(2) = (  -0.500000   0.866025   0.000000 )  
               a(3) = (   0.000000   0.000000   1.600000 )  

     reciprocal axes: (cart. coord. in units 2 pi/alat)
               b(1) = (  1.000000  0.577350 -0.000000 )  
               b(2) = (  0.000000  1.154701  0.000000 )  
               b(3) = (  0.000000 -0.000000  0.625000 )  


     PseudoPot. # 1 for Zn read from file:
     ./pseudos/Zn.upf
     MD5 check sum: 7f56cabf9682ed8c977c2f7d0c5985c5
     Pseudo is Ultrasoft + core correction, Zval = 12.0
     Generated using &quot;atomic&quot; code by A. Dal Corso  v.6.2.2
     Using radial grid of 1201 points,  6 beta functions with: 
                l(1) =   0
                l(2) =   0
                l(3) =   1
                l(4) =   1
                l(5) =   2
                l(6) =   2
     Q(r) pseudized with 0 coefficients 


     PseudoPot. # 2 for O  read from file:
     ./pseudos/O.upf
     MD5 check sum: 91400c9766925bcf19f520983a725ff0
     Pseudo is Ultrasoft + core correction, Zval =  6.0
     Generated using &quot;atomic&quot; code by A. Dal Corso  v.6.3MaX
     Using radial grid of 1095 points,  4 beta functions with: 
                l(1) =   0
                l(2) =   0
                l(3) =   1
                l(4) =   1
     Q(r) pseudized with 0 coefficients 


     atomic species   valence    mass     pseudopotential
        Zn            12.00    63.38000     Zn( 1.00)
        O              6.00    15.99900     O ( 1.00)

     No symmetry found



   Cartesian axes

     site n.     atom                  positions (alat units)
         1           Zn  tau(   1) = (   0.5685239   0.4251826   0.9180508  )
         2           Zn  tau(   2) = (  -0.0260661   0.6563186   0.2910834  )
         3           O   tau(   3) = (   0.4691669   0.4627383   1.3587773  )
         4           O   tau(   4) = (  -0.0430804   0.4037554   0.8073950  )

     number of k points=   112

     Number of k-points >= 100: set verbosity='high' to print them.

     Dense  grid:    36665 G-vectors     FFT dimensions: (  40,  40,  60)

     Smooth grid:    12971 G-vectors     FFT dimensions: (  27,  27,  45)

     Estimated max dynamical RAM per process >      25.88 MB

     Estimated total dynamical RAM >     207.00 MB

     Check: negative core charge=   -0.000002

     Initial potential from superposition of free atoms

     starting charge      35.9925, renormalised to      36.0000
     Starting wfcs are   26 randomized atomic wfcs

     total cpu time spent up to now is        3.7 secs

     Self-consistent Calculation

     iteration #  1     ecut=    50.00 Ry     beta= 0.30
     Davidson diagonalization with overlap
     ethr =  1.00E-02,  avg # of iterations =  2.7

     total cpu time spent up to now is        9.0 secs

     total energy              =    -359.94470824 Ry
     estimated scf accuracy    <       1.34179458 Ry

     iteration #  2     ecut=    50.00 Ry     beta= 0.30
     Davidson diagonalization with overlap
     ethr =  3.73E-03,  avg # of iterations =  2.5

     total cpu time spent up to now is       14.5 secs

     total energy              =    -360.01556871 Ry
     estimated scf accuracy    <       0.22477202 Ry

     iteration #  3     ecut=    50.00 Ry     beta= 0.30
     Davidson diagonalization with overlap
     c_bands:  2 eigenvalues not converged
     ethr =  6.24E-04,  avg # of iterations =  8.3

     total cpu time spent up to now is       25.4 secs

     total energy              =    -360.31493841 Ry
     estimated scf accuracy    <       0.57229785 Ry

     iteration #  4     ecut=    50.00 Ry     beta= 0.30
     Davidson diagonalization with overlap
     ethr =  6.24E-04,  avg # of iterations =  1.2

     total cpu time spent up to now is       29.7 secs

     total energy              =    -360.02930413 Ry
     estimated scf accuracy    <       0.43626121 Ry

     iteration #  5     ecut=    50.00 Ry     beta= 0.30
     Davidson diagonalization with overlap
     ethr =  6.24E-04,  avg # of iterations =  8.7

     total cpu time spent up to now is       41.8 secs

     total energy              =    -360.31443342 Ry
     estimated scf accuracy    <       0.47107852 Ry

     iteration #  6     ecut=    50.00 Ry     beta= 0.30
     Davidson diagonalization with overlap
     ethr =  6.24E-04,  avg # of iterations =  1.1

     total cpu time spent up to now is       46.0 secs

     total energy              =    -360.21481869 Ry
     estimated scf accuracy    <       0.36427128 Ry

     iteration #  7     ecut=    50.00 Ry     beta= 0.30
     Davidson diagonalization with overlap
     ethr =  6.24E-04,  avg # of iterations =  2.6

     total cpu time spent up to now is       51.0 secs

     total energy              =    -360.22098656 Ry
     estimated scf accuracy    <       0.11154007 Ry

     iteration #  8     ecut=    50.00 Ry     beta= 0.30
     Davidson diagonalization with overlap
     ethr =  3.10E-04,  avg # of iterations =  3.6

     total cpu time spent up to now is       56.3 secs

     total energy              =    -360.23742109 Ry
     estimated scf accuracy    <       0.03650392 Ry

     iteration #  9     ecut=    50.00 Ry     beta= 0.30
     Davidson diagonalization with overlap
     ethr =  1.01E-04,  avg # of iterations =  5.3

     total cpu time spent up to now is       62.5 secs

     total energy              =    -360.24445585 Ry
     estimated scf accuracy    <       0.01013840 Ry

     iteration # 10     ecut=    50.00 Ry     beta= 0.30
     Davidson diagonalization with overlap
     ethr =  2.82E-05,  avg # of iterations =  4.8

     total cpu time spent up to now is       68.6 secs

     total energy              =    -360.24717614 Ry
     estimated scf accuracy    <       0.00363149 Ry

     iteration # 11     ecut=    50.00 Ry     beta= 0.30
     Davidson diagonalization with overlap
     ethr =  1.01E-05,  avg # of iterations =  4.5

     total cpu time spent up to now is       74.7 secs

     total energy              =    -360.24562466 Ry
     estimated scf accuracy    <       0.00627305 Ry

     iteration # 12     ecut=    50.00 Ry     beta= 0.30
     Davidson diagonalization with overlap
     ethr =  1.01E-05,  avg # of iterations =  4.6

     total cpu time spent up to now is       81.3 secs

     total energy              =    -360.24653417 Ry
     estimated scf accuracy    <       0.00054422 Ry

     iteration # 13     ecut=    50.00 Ry     beta= 0.30
     Davidson diagonalization with overlap
     ethr =  1.51E-06,  avg # of iterations =  6.8

     total cpu time spent up to now is       89.8 secs

     total energy              =    -360.24690249 Ry
     estimated scf accuracy    <       0.00055629 Ry

     iteration # 14     ecut=    50.00 Ry     beta= 0.30
     Davidson diagonalization with overlap
     ethr =  1.51E-06,  avg # of iterations =  1.5

     total cpu time spent up to now is       94.2 secs

     total energy              =    -360.24659001 Ry
     estimated scf accuracy    <       0.00056791 Ry

     iteration # 15     ecut=    50.00 Ry     beta= 0.30
     Davidson diagonalization with overlap
     ethr =  1.51E-06,  avg # of iterations =  4.8

     total cpu time spent up to now is      101.9 secs

     total energy              =    -360.24676942 Ry
     estimated scf accuracy    <       0.00014186 Ry

     iteration # 16     ecut=    50.00 Ry     beta= 0.30
     Davidson diagonalization with overlap
     ethr =  3.94E-07,  avg # of iterations =  4.8

     total cpu time spent up to now is      109.2 secs

     total energy              =    -360.24686612 Ry
     estimated scf accuracy    <       0.00022222 Ry

     iteration # 17     ecut=    50.00 Ry     beta= 0.30
     Davidson diagonalization with overlap
     ethr =  3.94E-07,  avg # of iterations =  2.2

     total cpu time spent up to now is      114.0 secs

     total energy              =    -360.24687970 Ry
     estimated scf accuracy    <       0.00036786 Ry

     iteration # 18     ecut=    50.00 Ry     beta= 0.30
     Davidson diagonalization with overlap
     ethr =  3.94E-07,  avg # of iterations =  2.0

     total cpu time spent up to now is      118.7 secs

     total energy              =    -360.24675869 Ry
     estimated scf accuracy    <       0.00044240 Ry

     iteration # 19     ecut=    50.00 Ry     beta= 0.30
     Davidson diagonalization with overlap
     ethr =  3.94E-07,  avg # of iterations =  3.9

     total cpu time spent up to now is      124.4 secs

     total energy              =    -360.24670845 Ry
     estimated scf accuracy    <       0.00018096 Ry

     iteration # 20     ecut=    50.00 Ry     beta= 0.30
     Davidson diagonalization with overlap
     ethr =  3.94E-07,  avg # of iterations =  6.3

     total cpu time spent up to now is      132.4 secs

     total energy              =    -360.24675614 Ry
     estimated scf accuracy    <       0.00012469 Ry

     iteration # 21     ecut=    50.00 Ry     beta= 0.30
     Davidson diagonalization with overlap
     ethr =  3.46E-07,  avg # of iterations =  2.0

     total cpu time spent up to now is      137.1 secs

     total energy              =    -360.24674824 Ry
     estimated scf accuracy    <       0.00003999 Ry

     iteration # 22     ecut=    50.00 Ry     beta= 0.30
     Davidson diagonalization with overlap
     ethr =  1.11E-07,  avg # of iterations =  5.5

     total cpu time spent up to now is      144.7 secs

     total energy              =    -360.24676841 Ry
     estimated scf accuracy    <       0.00001212 Ry

     iteration # 23     ecut=    50.00 Ry     beta= 0.30
     Davidson diagonalization with overlap
     ethr =  3.37E-08,  avg # of iterations =  2.0

     total cpu time spent up to now is      149.3 secs

     total energy              =    -360.24676639 Ry
     estimated scf accuracy    <       0.00000798 Ry

     iteration # 24     ecut=    50.00 Ry     beta= 0.30
     Davidson diagonalization with overlap
     ethr =  2.22E-08,  avg # of iterations =  3.9

     total cpu time spent up to now is      154.8 secs

     total energy              =    -360.24676767 Ry
     estimated scf accuracy    <       0.00000099 Ry

     iteration # 25     ecut=    50.00 Ry     beta= 0.30
     Davidson diagonalization with overlap
     ethr =  2.74E-09,  avg # of iterations =  6.3

     total cpu time spent up to now is      162.0 secs

     total energy              =    -360.24676814 Ry
     estimated scf accuracy    <       0.00000027 Ry

     iteration # 26     ecut=    50.00 Ry     beta= 0.30
     Davidson diagonalization with overlap
     ethr =  7.62E-10,  avg # of iterations =  3.4

     total cpu time spent up to now is      167.2 secs

     total energy              =    -360.24676815 Ry
     estimated scf accuracy    <       0.00000023 Ry

     iteration # 27     ecut=    50.00 Ry     beta= 0.30
     Davidson diagonalization with overlap
     ethr =  6.34E-10,  avg # of iterations =  1.2

     total cpu time spent up to now is      171.4 secs

     total energy              =    -360.24676814 Ry
     estimated scf accuracy    <       0.00000020 Ry

     iteration # 28     ecut=    50.00 Ry     beta= 0.30
     Davidson diagonalization with overlap
     ethr =  5.45E-10,  avg # of iterations =  1.3

     total cpu time spent up to now is      175.7 secs

     total energy              =    -360.24676812 Ry
     estimated scf accuracy    <       0.00000014 Ry

     iteration # 29     ecut=    50.00 Ry     beta= 0.30
     Davidson diagonalization with overlap
     ethr =  3.90E-10,  avg # of iterations =  2.4

     total cpu time spent up to now is      180.6 secs

     total energy              =    -360.24676809 Ry
     estimated scf accuracy    <       0.00000005 Ry

     iteration # 30     ecut=    50.00 Ry     beta= 0.30
     Davidson diagonalization with overlap
     ethr =  1.47E-10,  avg # of iterations =  7.4

     total cpu time spent up to now is      189.9 secs

     total energy              =    -360.24676812 Ry
     estimated scf accuracy    <       0.00000006 Ry

     iteration # 31     ecut=    50.00 Ry     beta= 0.30
     Davidson diagonalization with overlap
     ethr =  1.47E-10,  avg # of iterations =  2.0

     total cpu time spent up to now is      194.7 secs

     total energy              =    -360.24676813 Ry
     estimated scf accuracy    <       0.00000002 Ry

     iteration # 32     ecut=    50.00 Ry     beta= 0.30
     Davidson diagonalization with overlap
     ethr =  4.35E-11,  avg # of iterations =  3.5

     total cpu time spent up to now is      200.0 secs

     End of self-consistent calculation

     Number of k-points >= 100: set verbosity='high' to print the bands.

     highest occupied level (ev):    11.1918

!    total energy              =    -360.24676812 Ry
     estimated scf accuracy    <          8.4E-09 Ry

     The total energy is the sum of the following terms:
     one-electron contribution =    -160.36486672 Ry
     hartree contribution      =     123.14785953 Ry
     xc contribution           =    -110.32714037 Ry
     ewald contribution        =    -212.70262057 Ry

     convergence has been achieved in  32 iterations

     Forces acting on atoms (cartesian axes, Ry/au):

     atom    1 type  1   force =    -1.89868045    0.01497511   -0.27739152
     atom    2 type  1   force =     0.02408627    0.04777681   -0.26206380
     atom    3 type  2   force =    -0.25155589    0.10018842    1.19158589
     atom    4 type  2   force =     2.12615006   -0.16294034   -0.65213057
     The non-local contrib.  to forces
     atom    1 type  1   force =    -0.36807229   -0.01861502   -0.86319358
     atom    2 type  1   force =    -0.10107479    0.31817516   -0.01615376
     atom    3 type  2   force =     0.03978905    0.02051146   -0.12535513
     atom    4 type  2   force =    -0.53002121    0.34960359   -0.75733104
     The ionic contribution  to forces
     atom    1 type  1   force =   -12.42068197   -0.67581597    0.38960357
     atom    2 type  1   force =     0.98512120    3.55231659  -15.45841918
     atom    3 type  2   force =    -3.15345995    0.90698092   16.46823148
     atom    4 type  2   force =    14.58902072   -3.78348153   -1.39941587
     The local contribution  to forces
     atom    1 type  1   force =    10.70838320    0.70903749    0.12274785
     atom    2 type  1   force =    -0.86044317   -3.79370824   15.17863135
     atom    3 type  2   force =     2.86074107   -0.82654682  -15.14588997
     atom    4 type  2   force =   -11.92912711    3.27299805    1.49559513
     The core correction contribution to forces
     atom    1 type  1   force =     0.18183657    0.00037274    0.07348670
     atom    2 type  1   force =     0.00045004   -0.02905500    0.03402578
     atom    3 type  2   force =     0.00136123   -0.00075479   -0.00560952
     atom    4 type  2   force =    -0.00375771   -0.00205249    0.00909304
     The Hubbard contrib.    to forces
     atom    1 type  1   force =     0.00000000    0.00000000    0.00000000
     atom    2 type  1   force =     0.00000000    0.00000000    0.00000000
     atom    3 type  2   force =     0.00000000    0.00000000    0.00000000
     atom    4 type  2   force =     0.00000000    0.00000000    0.00000000
     The SCF correction term to forces
     atom    1 type  1   force =    -0.00016990    0.00000197   -0.00006038
     atom    2 type  1   force =     0.00000905    0.00005440   -0.00017231
     atom    3 type  2   force =    -0.00001123    0.00000374    0.00018471
     atom    4 type  2   force =     0.00001143   -0.00000187   -0.00009616

     Total force =     3.196753     Total SCF correction =     0.000330

     Writing all to output data dir ./ZnO_ANN.save/

     init_run     :      3.23s CPU      3.30s WALL (       1 calls)
     electrons    :    192.55s CPU    196.23s WALL (       1 calls)
     forces       :      0.92s CPU      0.93s WALL (       1 calls)

     Called by init_run:
     wfcinit      :      2.36s CPU      2.40s WALL (       1 calls)
     potinit      :      0.23s CPU      0.23s WALL (       1 calls)
     hinit0       :      0.57s CPU      0.58s WALL (       1 calls)

     Called by electrons:
     c_bands      :    169.21s CPU    172.37s WALL (      32 calls)
     sum_band     :     21.30s CPU     21.76s WALL (      32 calls)
     v_of_rho     :      0.45s CPU      0.48s WALL (      33 calls)
     newd         :      1.53s CPU      1.56s WALL (      33 calls)
     mix_rho      :      0.08s CPU      0.08s WALL (      32 calls)

     Called by c_bands:
     init_us_2    :      1.28s CPU      1.30s WALL (    7392 calls)
     init_us_2:cp :      1.26s CPU      1.28s WALL (    7392 calls)
     cegterg      :    164.96s CPU    168.04s WALL (    3584 calls)

     Called by *egterg:
     cdiaghg      :     17.89s CPU     18.05s WALL (   17395 calls)
     h_psi        :    101.62s CPU    103.97s WALL (   17507 calls)
     s_psi        :      9.91s CPU     10.01s WALL (   17507 calls)
     g_psi        :      0.28s CPU      0.29s WALL (   13811 calls)

     Called by h_psi:
     h_psi:calbec :     12.22s CPU     12.67s WALL (   17507 calls)
     vloc_psi     :     79.17s CPU     80.97s WALL (   17507 calls)
     add_vuspsi   :      9.94s CPU     10.05s WALL (   17507 calls)

     General routines
     calbec       :     16.91s CPU     17.48s WALL (   21539 calls)
     fft          :      0.67s CPU      0.71s WALL (     438 calls)
     ffts         :      0.08s CPU      0.09s WALL (      65 calls)
     fftw         :     84.32s CPU     86.23s WALL (  431582 calls)
     interpolate  :      0.10s CPU      0.10s WALL (      33 calls)

     Parallel routines

     PWSCF        :   3m17.39s CPU   3m21.28s WALL


   This run was terminated on:  15:17:22  24Jun2025            

=------------------------------------------------------------------------------=
   JOB DONE.
=------------------------------------------------------------------------------=
Note: The following floating-point exceptions are signalling: IEEE_INVALID_FLAG
