
     Program PWSCF v.7.2 starts on 24Jun2025 at 17:21:29 

     This program is part of the open-source Quantum ESPRESSO suite
     for quantum simulation of materials; please cite
         "P. Giannozzi et al., J. Phys.:Condens. Matter 21 395502 (2009);
         "P. Giannozzi et al., J. Phys.:Condens. Matter 29 465901 (2017);
         "P. Giannozzi et al., J. Chem. Phys. 152 154105 (2020);
          URL http://www.quantum-espresso.org", 
     in publications or presentations arising from this work. More details at
     http://www.quantum-espresso.org/quote

     Parallel version (MPI), running on     8 processors

     MPI processes distributed on     1 nodes
     91006 MiB available memory on the printing compute node when the environment starts

     Reading input from /home/jvc/QEspresso7.2/ZnO_DataBase/scf_025_NOSYM.in/scf-6.18-1.78-0.25-3.in

     Current dimensions of program PWSCF are:
     Max number of different atomic species (ntypx) = 10
     Max number of k-points (npk) =  40000
     Max angular momentum in pseudopotentials (lmaxx) =  4
     file Zn.upf: wavefunction(s)  3D renormalized

     R & G space division:  proc/nbgrp/npool/nimage =       8
     Subspace diagonalization in iterative solution of the eigenvalue problem:
     a serial algorithm will be used


     Parallelization info
     --------------------
     sticks:   dense  smooth     PW     G-vecs:    dense   smooth      PW
     Min         130      64     20                 5518     1944     332
     Max         131      66     21                 5522     1946     337
     Sum        1045     517    163                44163    15561    2671

     Using Slab Decomposition



     bravais-lattice index     =            0
     lattice parameter (alat)  =       6.1788  a.u.
     unit-cell volume          =     326.8643 (a.u.)^3
     number of atoms/cell      =            4
     number of atomic types    =            2
     number of electrons       =        36.00
     number of Kohn-Sham states=           18
     kinetic-energy cutoff     =      50.0000  Ry
     charge density cutoff     =     400.0000  Ry
     scf convergence threshold =      1.0E-08
     mixing beta               =       0.3000
     number of iterations used =            8  plain     mixing
     Exchange-correlation= PBE
                           (   1   4   3   4   0   0   0)

     celldm(1)=   6.178821  celldm(2)=   0.000000  celldm(3)=   0.000000
     celldm(4)=   0.000000  celldm(5)=   0.000000  celldm(6)=   0.000000

     crystal axes: (cart. coord. in units of alat)
               a(1) = (   1.000000   0.000000   0.000000 )  
               a(2) = (  -0.500000   0.866025   0.000000 )  
               a(3) = (   0.000000   0.000000   1.600000 )  

     reciprocal axes: (cart. coord. in units 2 pi/alat)
               b(1) = (  1.000000  0.577350 -0.000000 )  
               b(2) = (  0.000000  1.154701  0.000000 )  
               b(3) = (  0.000000 -0.000000  0.625000 )  


     PseudoPot. # 1 for Zn read from file:
     ./pseudos/Zn.upf
     MD5 check sum: 7f56cabf9682ed8c977c2f7d0c5985c5
     Pseudo is Ultrasoft + core correction, Zval = 12.0
     Generated using &quot;atomic&quot; code by A. Dal Corso  v.6.2.2
     Using radial grid of 1201 points,  6 beta functions with: 
                l(1) =   0
                l(2) =   0
                l(3) =   1
                l(4) =   1
                l(5) =   2
                l(6) =   2
     Q(r) pseudized with 0 coefficients 


     PseudoPot. # 2 for O  read from file:
     ./pseudos/O.upf
     MD5 check sum: 91400c9766925bcf19f520983a725ff0
     Pseudo is Ultrasoft + core correction, Zval =  6.0
     Generated using &quot;atomic&quot; code by A. Dal Corso  v.6.3MaX
     Using radial grid of 1095 points,  4 beta functions with: 
                l(1) =   0
                l(2) =   0
                l(3) =   1
                l(4) =   1
     Q(r) pseudized with 0 coefficients 


     atomic species   valence    mass     pseudopotential
        Zn            12.00    63.38000     Zn( 1.00)
        O              6.00    15.99900     O ( 1.00)

     No symmetry found



   Cartesian axes

     site n.     atom                  positions (alat units)
         1           Zn  tau(   1) = (   0.5210027   0.1130491   1.0799447  )
         2           Zn  tau(   2) = (   0.1106372   0.5006235   0.3579699  )
         3           O   tau(   3) = (   0.6217270   0.1037808   1.3186091  )
         4           O   tau(   4) = (   0.1367082   0.5668978   0.8366708  )

     number of k points=   112

     Number of k-points >= 100: set verbosity='high' to print them.

     Dense  grid:    44163 G-vectors     FFT dimensions: (  40,  40,  64)

     Smooth grid:    15561 G-vectors     FFT dimensions: (  27,  27,  45)

     Estimated max dynamical RAM per process >      30.35 MB

     Estimated total dynamical RAM >     242.82 MB

     Check: negative core charge=   -0.000002

     Initial potential from superposition of free atoms

     starting charge      35.9925, renormalised to      36.0000
     Starting wfcs are   26 randomized atomic wfcs

     total cpu time spent up to now is        4.1 secs

     Self-consistent Calculation

     iteration #  1     ecut=    50.00 Ry     beta= 0.30
     Davidson diagonalization with overlap
     ethr =  1.00E-02,  avg # of iterations =  4.2

     total cpu time spent up to now is       11.7 secs

     total energy              =    -354.77057184 Ry
     estimated scf accuracy    <       1.03174426 Ry

     iteration #  2     ecut=    50.00 Ry     beta= 0.30
     Davidson diagonalization with overlap
     ethr =  2.87E-03,  avg # of iterations =  4.5

     total cpu time spent up to now is       18.2 secs

     total energy              =    -354.82203249 Ry
     estimated scf accuracy    <       0.29796490 Ry

     iteration #  3     ecut=    50.00 Ry     beta= 0.30
     Davidson diagonalization with overlap
     ethr =  8.28E-04,  avg # of iterations =  7.1

     total cpu time spent up to now is       27.8 secs

     total energy              =    -354.95768527 Ry
     estimated scf accuracy    <       0.05010078 Ry

     iteration #  4     ecut=    50.00 Ry     beta= 0.30
     Davidson diagonalization with overlap
     c_bands:  1 eigenvalues not converged
     ethr =  1.39E-04,  avg # of iterations =  7.1

     total cpu time spent up to now is       35.2 secs

     total energy              =    -354.96603305 Ry
     estimated scf accuracy    <       0.02964997 Ry

     iteration #  5     ecut=    50.00 Ry     beta= 0.30
     Davidson diagonalization with overlap
     ethr =  8.24E-05,  avg # of iterations =  5.3

     total cpu time spent up to now is       43.2 secs

     total energy              =    -354.96528593 Ry
     estimated scf accuracy    <       0.01661738 Ry

     iteration #  6     ecut=    50.00 Ry     beta= 0.30
     Davidson diagonalization with overlap
     ethr =  4.62E-05,  avg # of iterations =  8.0

     total cpu time spent up to now is       53.6 secs

     total energy              =    -354.96868535 Ry
     estimated scf accuracy    <       0.02296625 Ry

     iteration #  7     ecut=    50.00 Ry     beta= 0.30
     Davidson diagonalization with overlap
     ethr =  4.62E-05,  avg # of iterations =  2.4

     total cpu time spent up to now is       59.2 secs

     total energy              =    -354.96652166 Ry
     estimated scf accuracy    <       0.00634305 Ry

     iteration #  8     ecut=    50.00 Ry     beta= 0.30
     Davidson diagonalization with overlap
     c_bands:  1 eigenvalues not converged
     c_bands:  1 eigenvalues not converged
     c_bands:  1 eigenvalues not converged
     ethr =  1.76E-05,  avg # of iterations =  9.8

     total cpu time spent up to now is       71.9 secs

     total energy              =    -354.97446285 Ry
     estimated scf accuracy    <       0.01843196 Ry

     iteration #  9     ecut=    50.00 Ry     beta= 0.30
     Davidson diagonalization with overlap
     ethr =  1.76E-05,  avg # of iterations =  1.3

     total cpu time spent up to now is       76.7 secs

     total energy              =    -354.97016855 Ry
     estimated scf accuracy    <       0.01450147 Ry

     iteration # 10     ecut=    50.00 Ry     beta= 0.30
     Davidson diagonalization with overlap
     ethr =  1.76E-05,  avg # of iterations =  4.9

     total cpu time spent up to now is       84.0 secs

     total energy              =    -354.97111394 Ry
     estimated scf accuracy    <       0.00271797 Ry

     iteration # 11     ecut=    50.00 Ry     beta= 0.30
     Davidson diagonalization with overlap
     ethr =  7.55E-06,  avg # of iterations =  4.7

     total cpu time spent up to now is       90.8 secs

     total energy              =    -354.97173644 Ry
     estimated scf accuracy    <       0.00063266 Ry

     iteration # 12     ecut=    50.00 Ry     beta= 0.30
     Davidson diagonalization with overlap
     ethr =  1.76E-06,  avg # of iterations =  4.9

     total cpu time spent up to now is       97.6 secs

     total energy              =    -354.97169104 Ry
     estimated scf accuracy    <       0.00050944 Ry

     iteration # 13     ecut=    50.00 Ry     beta= 0.30
     Davidson diagonalization with overlap
     ethr =  1.42E-06,  avg # of iterations =  5.1

     total cpu time spent up to now is      105.8 secs

     total energy              =    -354.97188379 Ry
     estimated scf accuracy    <       0.00049493 Ry

     iteration # 14     ecut=    50.00 Ry     beta= 0.30
     Davidson diagonalization with overlap
     ethr =  1.37E-06,  avg # of iterations =  1.2

     total cpu time spent up to now is      110.6 secs

     total energy              =    -354.97170469 Ry
     estimated scf accuracy    <       0.00042691 Ry

     iteration # 15     ecut=    50.00 Ry     beta= 0.30
     Davidson diagonalization with overlap
     ethr =  1.19E-06,  avg # of iterations =  7.9

     total cpu time spent up to now is      117.9 secs

     total energy              =    -354.97181589 Ry
     estimated scf accuracy    <       0.00011919 Ry

     iteration # 16     ecut=    50.00 Ry     beta= 0.30
     Davidson diagonalization with overlap
     ethr =  3.31E-07,  avg # of iterations =  4.5

     total cpu time spent up to now is      124.5 secs

     total energy              =    -354.97184625 Ry
     estimated scf accuracy    <       0.00016202 Ry

     iteration # 17     ecut=    50.00 Ry     beta= 0.30
     Davidson diagonalization with overlap
     ethr =  3.31E-07,  avg # of iterations =  1.4

     total cpu time spent up to now is      129.3 secs

     total energy              =    -354.97183469 Ry
     estimated scf accuracy    <       0.00018872 Ry

     iteration # 18     ecut=    50.00 Ry     beta= 0.30
     Davidson diagonalization with overlap
     ethr =  3.31E-07,  avg # of iterations =  1.1

     total cpu time spent up to now is      133.9 secs

     total energy              =    -354.97181271 Ry
     estimated scf accuracy    <       0.00016375 Ry

     iteration # 19     ecut=    50.00 Ry     beta= 0.30
     Davidson diagonalization with overlap
     ethr =  3.31E-07,  avg # of iterations =  1.9

     total cpu time spent up to now is      139.0 secs

     total energy              =    -354.97178360 Ry
     estimated scf accuracy    <       0.00008643 Ry

     iteration # 20     ecut=    50.00 Ry     beta= 0.30
     Davidson diagonalization with overlap
     ethr =  2.40E-07,  avg # of iterations =  8.8

     total cpu time spent up to now is      146.3 secs

     total energy              =    -354.97180962 Ry
     estimated scf accuracy    <       0.00004349 Ry

     iteration # 21     ecut=    50.00 Ry     beta= 0.30
     Davidson diagonalization with overlap
     ethr =  1.21E-07,  avg # of iterations =  5.0

     total cpu time spent up to now is      152.3 secs

     total energy              =    -354.97181205 Ry
     estimated scf accuracy    <       0.00000787 Ry

     iteration # 22     ecut=    50.00 Ry     beta= 0.30
     Davidson diagonalization with overlap
     ethr =  2.19E-08,  avg # of iterations =  9.1

     total cpu time spent up to now is      160.2 secs

     total energy              =    -354.97181574 Ry
     estimated scf accuracy    <       0.00000811 Ry

     iteration # 23     ecut=    50.00 Ry     beta= 0.30
     Davidson diagonalization with overlap
     ethr =  2.19E-08,  avg # of iterations =  1.1

     total cpu time spent up to now is      164.9 secs

     total energy              =    -354.97181433 Ry
     estimated scf accuracy    <       0.00000684 Ry

     iteration # 24     ecut=    50.00 Ry     beta= 0.30
     Davidson diagonalization with overlap
     ethr =  1.90E-08,  avg # of iterations =  2.0

     total cpu time spent up to now is      170.4 secs

     total energy              =    -354.97181502 Ry
     estimated scf accuracy    <       0.00000383 Ry

     iteration # 25     ecut=    50.00 Ry     beta= 0.30
     Davidson diagonalization with overlap
     ethr =  1.06E-08,  avg # of iterations =  2.5

     total cpu time spent up to now is      175.9 secs

     total energy              =    -354.97181531 Ry
     estimated scf accuracy    <       0.00000396 Ry

     iteration # 26     ecut=    50.00 Ry     beta= 0.30
     Davidson diagonalization with overlap
     ethr =  1.06E-08,  avg # of iterations =  1.0

     total cpu time spent up to now is      180.6 secs

     total energy              =    -354.97181502 Ry
     estimated scf accuracy    <       0.00000385 Ry

     iteration # 27     ecut=    50.00 Ry     beta= 0.30
     Davidson diagonalization with overlap
     ethr =  1.06E-08,  avg # of iterations =  1.5

     total cpu time spent up to now is      185.5 secs

     total energy              =    -354.97181440 Ry
     estimated scf accuracy    <       0.00000277 Ry

     iteration # 28     ecut=    50.00 Ry     beta= 0.30
     Davidson diagonalization with overlap
     ethr =  7.69E-09,  avg # of iterations =  6.4

     total cpu time spent up to now is      191.6 secs

     total energy              =    -354.97181490 Ry
     estimated scf accuracy    <       0.00000001 Ry

     iteration # 29     ecut=    50.00 Ry     beta= 0.30
     Davidson diagonalization with overlap
     c_bands:  1 eigenvalues not converged
     c_bands:  1 eigenvalues not converged
     c_bands:  1 eigenvalues not converged
     c_bands:  1 eigenvalues not converged
     c_bands:  1 eigenvalues not converged
     c_bands:  1 eigenvalues not converged
     c_bands:  1 eigenvalues not converged
     c_bands:  1 eigenvalues not converged
     c_bands:  1 eigenvalues not converged
     c_bands:  1 eigenvalues not converged
     c_bands:  1 eigenvalues not converged
     c_bands:  1 eigenvalues not converged
     c_bands:  1 eigenvalues not converged
     c_bands:  1 eigenvalues not converged
     c_bands:  1 eigenvalues not converged
     c_bands:  1 eigenvalues not converged
     c_bands:  1 eigenvalues not converged
     c_bands:  1 eigenvalues not converged
     c_bands:  1 eigenvalues not converged
     c_bands:  1 eigenvalues not converged
     c_bands:  1 eigenvalues not converged
     c_bands:  1 eigenvalues not converged
     ethr =  3.93E-11,  avg # of iterations = 15.4

     total cpu time spent up to now is      206.9 secs

     total energy              =    -354.97181501 Ry
     estimated scf accuracy    <       0.00000005 Ry

     iteration # 30     ecut=    50.00 Ry     beta= 0.30
     Davidson diagonalization with overlap
     ethr =  3.93E-11,  avg # of iterations =  8.0

     total cpu time spent up to now is      213.7 secs

     total energy              =    -354.97181501 Ry
     estimated scf accuracy    <       0.00000002 Ry

     iteration # 31     ecut=    50.00 Ry     beta= 0.30
     Davidson diagonalization with overlap
     ethr =  3.93E-11,  avg # of iterations =  4.8

     total cpu time spent up to now is      219.7 secs

     total energy              =    -354.97181501 Ry
     estimated scf accuracy    <       0.00000001 Ry

     iteration # 32     ecut=    50.00 Ry     beta= 0.30
     Davidson diagonalization with overlap
     ethr =  2.82E-11,  avg # of iterations =  5.6

     total cpu time spent up to now is      228.7 secs

     total energy              =    -354.97181502 Ry
     estimated scf accuracy    <       0.00000002 Ry

     iteration # 33     ecut=    50.00 Ry     beta= 0.30
     Davidson diagonalization with overlap
     ethr =  2.82E-11,  avg # of iterations =  1.4

     total cpu time spent up to now is      233.5 secs

     total energy              =    -354.97181502 Ry
     estimated scf accuracy    <       0.00000002 Ry

     iteration # 34     ecut=    50.00 Ry     beta= 0.30
     Davidson diagonalization with overlap
     ethr =  2.82E-11,  avg # of iterations =  1.9

     total cpu time spent up to now is      238.3 secs

     total energy              =    -354.97181501 Ry
     estimated scf accuracy    <       0.00000002 Ry

     iteration # 35     ecut=    50.00 Ry     beta= 0.30
     Davidson diagonalization with overlap
     ethr =  2.82E-11,  avg # of iterations =  1.1

     total cpu time spent up to now is      242.8 secs

     total energy              =    -354.97181502 Ry
     estimated scf accuracy    <       0.00000001 Ry

     iteration # 36     ecut=    50.00 Ry     beta= 0.30
     Davidson diagonalization with overlap
     ethr =  2.82E-11,  avg # of iterations =  3.9

     total cpu time spent up to now is      248.2 secs

     total energy              =    -354.97181502 Ry
     estimated scf accuracy    <       0.00000002 Ry

     iteration # 37     ecut=    50.00 Ry     beta= 0.30
     Davidson diagonalization with overlap
     ethr =  2.82E-11,  avg # of iterations =  1.3

     total cpu time spent up to now is      252.8 secs

     total energy              =    -354.97181502 Ry
     estimated scf accuracy    <       0.00000002 Ry

     iteration # 38     ecut=    50.00 Ry     beta= 0.30
     Davidson diagonalization with overlap
     ethr =  2.82E-11,  avg # of iterations =  1.8

     total cpu time spent up to now is      257.6 secs

     total energy              =    -354.97181501 Ry
     estimated scf accuracy    <       0.00000002 Ry

     iteration # 39     ecut=    50.00 Ry     beta= 0.30
     Davidson diagonalization with overlap
     c_bands:  1 eigenvalues not converged
     ethr =  2.82E-11,  avg # of iterations =  8.5

     total cpu time spent up to now is      265.2 secs

     total energy              =    -354.97181501 Ry
     estimated scf accuracy    <       0.00000004 Ry

     iteration # 40     ecut=    50.00 Ry     beta= 0.30
     Davidson diagonalization with overlap
     c_bands:  1 eigenvalues not converged
     ethr =  2.82E-11,  avg # of iterations =  9.1

     total cpu time spent up to now is      272.6 secs

     total energy              =    -354.97181501 Ry
     estimated scf accuracy    <       0.00000002 Ry

     iteration # 41     ecut=    50.00 Ry     beta= 0.30
     Davidson diagonalization with overlap
     ethr =  2.82E-11,  avg # of iterations = 10.6

     total cpu time spent up to now is      282.4 secs

     total energy              =    -354.97181501 Ry
     estimated scf accuracy    <       0.00000001 Ry

     iteration # 42     ecut=    50.00 Ry     beta= 0.30
     Davidson diagonalization with overlap
     ethr =  2.82E-11,  avg # of iterations =  1.3

     total cpu time spent up to now is      287.2 secs

     total energy              =    -354.97181501 Ry
     estimated scf accuracy    <       0.00000001 Ry

     iteration # 43     ecut=    50.00 Ry     beta= 0.30
     Davidson diagonalization with overlap
     ethr =  2.82E-11,  avg # of iterations =  3.3

     total cpu time spent up to now is      292.6 secs

     End of self-consistent calculation

     Number of k-points >= 100: set verbosity='high' to print the bands.

     highest occupied level (ev):    10.0058

!    total energy              =    -354.97181501 Ry
     estimated scf accuracy    <          4.1E-09 Ry

     The total energy is the sum of the following terms:
     one-electron contribution =    -219.36409071 Ry
     hartree contribution      =     147.36841364 Ry
     xc contribution           =    -111.15195830 Ry
     ewald contribution        =    -171.82417964 Ry

     convergence has been achieved in  43 iterations

     Forces acting on atoms (cartesian axes, Ry/au):

     atom    1 type  1   force =    -6.64766460    0.84241119  -15.40207268
     atom    2 type  1   force =    -0.02255627   -0.05486320   -0.38807877
     atom    3 type  2   force =     6.60338419   -0.57300672   15.71103243
     atom    4 type  2   force =     0.06683669   -0.21454126    0.07911902
     The non-local contrib.  to forces
     atom    1 type  1   force =     1.60239001   -0.28559741    3.64431516
     atom    2 type  1   force =    -0.02843889    0.08493229   -0.53258012
     atom    3 type  2   force =    -0.40200851    0.12925839   -0.60333812
     atom    4 type  2   force =    -0.18166769    0.46684183   -0.31184066
     The ionic contribution  to forces
     atom    1 type  1   force =   -20.78105671    7.55598639  -36.66461093
     atom    2 type  1   force =    -0.66139710   -2.20531155  -16.10543955
     atom    3 type  2   force =    19.98364604   -0.54105150   52.95884298
     atom    4 type  2   force =     1.45880778   -4.80962334   -0.18879250
     The local contribution  to forces
     atom    1 type  1   force =    12.24061260   -6.37490275   16.96499967
     atom    2 type  1   force =     0.66369527    2.05640323   16.17045967
     atom    3 type  2   force =   -12.96719331   -0.16004484  -36.61348859
     atom    4 type  2   force =    -1.21144379    4.13059303    0.57772772
     The core correction contribution to forces
     atom    1 type  1   force =     0.29031142   -0.05305109    0.65305058
     atom    2 type  1   force =     0.00360205    0.00911061    0.07952449
     atom    3 type  2   force =    -0.01102570   -0.00117937   -0.03082664
     atom    4 type  2   force =     0.00117143   -0.00239190    0.00197506
     The Hubbard contrib.    to forces
     atom    1 type  1   force =     0.00000000    0.00000000    0.00000000
     atom    2 type  1   force =     0.00000000    0.00000000    0.00000000
     atom    3 type  2   force =     0.00000000    0.00000000    0.00000000
     atom    4 type  2   force =     0.00000000    0.00000000    0.00000000
     The SCF correction term to forces
     atom    1 type  1   force =     0.00010815   -0.00003342    0.00024886
     atom    2 type  1   force =     0.00001246   -0.00000725    0.00003275
     atom    3 type  2   force =    -0.00000426    0.00000113   -0.00008118
     atom    4 type  2   force =    -0.00000098    0.00002963    0.00012542

     Total force =    23.939620     Total SCF correction =     0.000315

     Writing all to output data dir ./ZnO_ANN.save/

     init_run     :      3.57s CPU      3.65s WALL (       1 calls)
     electrons    :    283.28s CPU    288.51s WALL (       1 calls)
     forces       :      1.11s CPU      1.13s WALL (       1 calls)

     Called by init_run:
     wfcinit      :      2.58s CPU      2.62s WALL (       1 calls)
     potinit      :      0.26s CPU      0.27s WALL (       1 calls)
     hinit0       :      0.66s CPU      0.67s WALL (       1 calls)

     Called by electrons:
     c_bands      :    248.99s CPU    253.48s WALL (      43 calls)
     sum_band     :     31.05s CPU     31.72s WALL (      43 calls)
     v_of_rho     :      0.62s CPU      0.66s WALL (      44 calls)
     newd         :      2.49s CPU      2.52s WALL (      44 calls)
     mix_rho      :      0.12s CPU      0.13s WALL (      43 calls)

     Called by c_bands:
     init_us_2    :      2.14s CPU      2.17s WALL (    9856 calls)
     init_us_2:cp :      2.10s CPU      2.14s WALL (    9856 calls)
     cegterg      :    241.92s CPU    246.30s WALL (    4816 calls)

     Called by *egterg:
     cdiaghg      :     29.31s CPU     29.62s WALL (   27538 calls)
     h_psi        :    143.07s CPU    146.24s WALL (   27650 calls)
     s_psi        :     16.56s CPU     16.71s WALL (   27650 calls)
     g_psi        :      0.45s CPU      0.45s WALL (   22722 calls)

     Called by h_psi:
     h_psi:calbec :     18.99s CPU     19.64s WALL (   27650 calls)
     vloc_psi     :    106.99s CPU    109.38s WALL (   27650 calls)
     add_vuspsi   :     16.60s CPU     16.75s WALL (   27650 calls)

     General routines
     calbec       :     26.18s CPU     27.03s WALL (   32914 calls)
     fft          :      0.79s CPU      0.85s WALL (     581 calls)
     ffts         :      0.09s CPU      0.09s WALL (      87 calls)
     fftw         :    113.73s CPU    116.28s WALL (  565378 calls)
     interpolate  :      0.11s CPU      0.11s WALL (      44 calls)

     Parallel routines

     PWSCF        :   4m48.71s CPU   4m54.23s WALL


   This run was terminated on:  17:26:24  24Jun2025            

=------------------------------------------------------------------------------=
   JOB DONE.
=------------------------------------------------------------------------------=
Note: The following floating-point exceptions are signalling: IEEE_INVALID_FLAG
