
     Program PWSCF v.7.2 starts on 24Jun2025 at 19:50:53 

     This program is part of the open-source Quantum ESPRESSO suite
     for quantum simulation of materials; please cite
         "P. Giannozzi et al., J. Phys.:Condens. Matter 21 395502 (2009);
         "P. Giannozzi et al., J. Phys.:Condens. Matter 29 465901 (2017);
         "P. Giannozzi et al., J. Chem. Phys. 152 154105 (2020);
          URL http://www.quantum-espresso.org", 
     in publications or presentations arising from this work. More details at
     http://www.quantum-espresso.org/quote

     Parallel version (MPI), running on     8 processors

     MPI processes distributed on     1 nodes
     90669 MiB available memory on the printing compute node when the environment starts

     Reading input from /home/jvc/QEspresso7.2/ZnO_DataBase/scf_025_NOSYM.in/scf-6.67-1.52-0.25-5.in

     Current dimensions of program PWSCF are:
     Max number of different atomic species (ntypx) = 10
     Max number of k-points (npk) =  40000
     Max angular momentum in pseudopotentials (lmaxx) =  4
     file Zn.upf: wavefunction(s)  3D renormalized

     R & G space division:  proc/nbgrp/npool/nimage =       8
     Subspace diagonalization in iterative solution of the eigenvalue problem:
     a serial algorithm will be used


     Parallelization info
     --------------------
     sticks:   dense  smooth     PW     G-vecs:    dense   smooth      PW
     Min         154      75     23                 6952     2457     407
     Max         155      78     24                 6957     2461     412
     Sum        1237     613    187                55639    19669    3273

     Using Slab Decomposition



     bravais-lattice index     =            0
     lattice parameter (alat)  =       6.6731  a.u.
     unit-cell volume          =     411.7549 (a.u.)^3
     number of atoms/cell      =            4
     number of atomic types    =            2
     number of electrons       =        36.00
     number of Kohn-Sham states=           18
     kinetic-energy cutoff     =      50.0000  Ry
     charge density cutoff     =     400.0000  Ry
     scf convergence threshold =      1.0E-08
     mixing beta               =       0.3000
     number of iterations used =            8  plain     mixing
     Exchange-correlation= PBE
                           (   1   4   3   4   0   0   0)

     celldm(1)=   6.673127  celldm(2)=   0.000000  celldm(3)=   0.000000
     celldm(4)=   0.000000  celldm(5)=   0.000000  celldm(6)=   0.000000

     crystal axes: (cart. coord. in units of alat)
               a(1) = (   1.000000   0.000000   0.000000 )  
               a(2) = (  -0.500000   0.866025   0.000000 )  
               a(3) = (   0.000000   0.000000   1.600000 )  

     reciprocal axes: (cart. coord. in units 2 pi/alat)
               b(1) = (  1.000000  0.577350 -0.000000 )  
               b(2) = (  0.000000  1.154701  0.000000 )  
               b(3) = (  0.000000 -0.000000  0.625000 )  


     PseudoPot. # 1 for Zn read from file:
     ./pseudos/Zn.upf
     MD5 check sum: 7f56cabf9682ed8c977c2f7d0c5985c5
     Pseudo is Ultrasoft + core correction, Zval = 12.0
     Generated using &quot;atomic&quot; code by A. Dal Corso  v.6.2.2
     Using radial grid of 1201 points,  6 beta functions with: 
                l(1) =   0
                l(2) =   0
                l(3) =   1
                l(4) =   1
                l(5) =   2
                l(6) =   2
     Q(r) pseudized with 0 coefficients 


     PseudoPot. # 2 for O  read from file:
     ./pseudos/O.upf
     MD5 check sum: 91400c9766925bcf19f520983a725ff0
     Pseudo is Ultrasoft + core correction, Zval =  6.0
     Generated using &quot;atomic&quot; code by A. Dal Corso  v.6.3MaX
     Using radial grid of 1095 points,  4 beta functions with: 
                l(1) =   0
                l(2) =   0
                l(3) =   1
                l(4) =   1
     Q(r) pseudized with 0 coefficients 


     atomic species   valence    mass     pseudopotential
        Zn            12.00    63.38000     Zn( 1.00)
        O              6.00    15.99900     O ( 1.00)

     No symmetry found



   Cartesian axes

     site n.     atom                  positions (alat units)
         1           Zn  tau(   1) = (   0.7579117   0.0779148   0.4995677  )
         2           Zn  tau(   2) = (  -0.1059698   0.4330124   0.2465532  )
         3           O   tau(   3) = (   0.6936442   0.1974554   1.1976733  )
         4           O   tau(   4) = (  -0.2680687   0.6982278   0.9882609  )

     number of k points=   112

     Number of k-points >= 100: set verbosity='high' to print them.

     Dense  grid:    55639 G-vectors     FFT dimensions: (  45,  45,  72)

     Smooth grid:    19669 G-vectors     FFT dimensions: (  32,  32,  50)

     Estimated max dynamical RAM per process >      37.53 MB

     Estimated total dynamical RAM >     300.20 MB

     Check: negative core charge=   -0.000003

     Initial potential from superposition of free atoms

     starting charge      35.9925, renormalised to      36.0000
     Starting wfcs are   26 randomized atomic wfcs

     total cpu time spent up to now is        4.5 secs

     Self-consistent Calculation

     iteration #  1     ecut=    50.00 Ry     beta= 0.30
     Davidson diagonalization with overlap
     ethr =  1.00E-02,  avg # of iterations =  2.0

     total cpu time spent up to now is       10.3 secs

     total energy              =    -360.26741844 Ry
     estimated scf accuracy    <       0.73099057 Ry

     iteration #  2     ecut=    50.00 Ry     beta= 0.30
     Davidson diagonalization with overlap
     ethr =  2.03E-03,  avg # of iterations =  6.1

     total cpu time spent up to now is       18.6 secs

     total energy              =    -360.50549697 Ry
     estimated scf accuracy    <       0.33901130 Ry

     iteration #  3     ecut=    50.00 Ry     beta= 0.30
     Davidson diagonalization with overlap
     ethr =  9.42E-04,  avg # of iterations =  2.2

     total cpu time spent up to now is       24.4 secs

     total energy              =    -360.42147028 Ry
     estimated scf accuracy    <       0.18032509 Ry

     iteration #  4     ecut=    50.00 Ry     beta= 0.30
     Davidson diagonalization with overlap
     c_bands:  1 eigenvalues not converged
     ethr =  5.01E-04,  avg # of iterations =  9.4

     total cpu time spent up to now is       34.8 secs

     total energy              =    -360.44277731 Ry
     estimated scf accuracy    <       0.55344305 Ry

     iteration #  5     ecut=    50.00 Ry     beta= 0.30
     Davidson diagonalization with overlap
     ethr =  5.01E-04,  avg # of iterations =  7.3

     total cpu time spent up to now is       43.6 secs

     total energy              =    -360.53148309 Ry
     estimated scf accuracy    <       0.00398692 Ry

     iteration #  6     ecut=    50.00 Ry     beta= 0.30
     Davidson diagonalization with overlap
     c_bands:  1 eigenvalues not converged
     c_bands:  1 eigenvalues not converged
     c_bands:  2 eigenvalues not converged
     c_bands:  1 eigenvalues not converged
     c_bands:  1 eigenvalues not converged
     c_bands:  1 eigenvalues not converged
     c_bands:  1 eigenvalues not converged
     c_bands:  1 eigenvalues not converged
     c_bands:  1 eigenvalues not converged
     c_bands:  2 eigenvalues not converged
     c_bands:  1 eigenvalues not converged
     c_bands:  1 eigenvalues not converged
     c_bands:  1 eigenvalues not converged
     c_bands:  1 eigenvalues not converged
     c_bands:  2 eigenvalues not converged
     c_bands:  1 eigenvalues not converged
     c_bands:  1 eigenvalues not converged
     c_bands:  1 eigenvalues not converged
     c_bands:  2 eigenvalues not converged
     c_bands:  1 eigenvalues not converged
     c_bands:  1 eigenvalues not converged
     c_bands:  1 eigenvalues not converged
     c_bands:  2 eigenvalues not converged
     c_bands:  1 eigenvalues not converged
     c_bands:  1 eigenvalues not converged
     c_bands:  1 eigenvalues not converged
     c_bands:  2 eigenvalues not converged
     c_bands:  1 eigenvalues not converged
     ethr =  1.11E-05,  avg # of iterations = 14.4

     total cpu time spent up to now is       57.3 secs

     total energy              =    -360.54149489 Ry
     estimated scf accuracy    <       0.04547806 Ry

     iteration #  7     ecut=    50.00 Ry     beta= 0.30
     Davidson diagonalization with overlap
     ethr =  1.11E-05,  avg # of iterations =  2.3

     total cpu time spent up to now is       62.9 secs

     total energy              =    -360.52681890 Ry
     estimated scf accuracy    <       0.04267067 Ry

     iteration #  8     ecut=    50.00 Ry     beta= 0.30
     Davidson diagonalization with overlap
     c_bands:  1 eigenvalues not converged
     c_bands:  1 eigenvalues not converged
     c_bands:  1 eigenvalues not converged
     c_bands:  1 eigenvalues not converged
     c_bands:  2 eigenvalues not converged
     c_bands:  1 eigenvalues not converged
     c_bands:  2 eigenvalues not converged
     c_bands:  1 eigenvalues not converged
     c_bands:  1 eigenvalues not converged
     c_bands:  1 eigenvalues not converged
     c_bands:  1 eigenvalues not converged
     c_bands:  1 eigenvalues not converged
     c_bands:  1 eigenvalues not converged
     c_bands:  1 eigenvalues not converged
     c_bands:  2 eigenvalues not converged
     c_bands:  2 eigenvalues not converged
     c_bands:  2 eigenvalues not converged
     c_bands:  1 eigenvalues not converged
     c_bands:  1 eigenvalues not converged
     c_bands:  1 eigenvalues not converged
     c_bands:  1 eigenvalues not converged
     c_bands:  1 eigenvalues not converged
     c_bands:  1 eigenvalues not converged
     c_bands:  1 eigenvalues not converged
     c_bands:  1 eigenvalues not converged
     c_bands:  1 eigenvalues not converged
     c_bands:  2 eigenvalues not converged
     c_bands:  2 eigenvalues not converged
     c_bands:  1 eigenvalues not converged
     c_bands:  1 eigenvalues not converged
     c_bands:  1 eigenvalues not converged
     c_bands:  2 eigenvalues not converged
     c_bands:  1 eigenvalues not converged
     c_bands:  2 eigenvalues not converged
     c_bands:  1 eigenvalues not converged
     c_bands:  1 eigenvalues not converged
     ethr =  1.11E-05,  avg # of iterations = 15.4

     total cpu time spent up to now is       77.6 secs

     total energy              =    -360.53773778 Ry
     estimated scf accuracy    <       0.03661270 Ry

     iteration #  9     ecut=    50.00 Ry     beta= 0.30
     Davidson diagonalization with overlap
     c_bands:  1 eigenvalues not converged
     c_bands:  1 eigenvalues not converged
     c_bands:  1 eigenvalues not converged
     c_bands:  1 eigenvalues not converged
     c_bands:  1 eigenvalues not converged
     ethr =  1.11E-05,  avg # of iterations =  9.0

     total cpu time spent up to now is       88.2 secs

     total energy              =    -360.54074561 Ry
     estimated scf accuracy    <       0.02469729 Ry

     iteration # 10     ecut=    50.00 Ry     beta= 0.30
     Davidson diagonalization with overlap
     ethr =  1.11E-05,  avg # of iterations =  1.1

     total cpu time spent up to now is       93.4 secs

     total energy              =    -360.53523238 Ry
     estimated scf accuracy    <       0.02238894 Ry

     iteration # 11     ecut=    50.00 Ry     beta= 0.30
     Davidson diagonalization with overlap
     c_bands:  1 eigenvalues not converged
     c_bands:  1 eigenvalues not converged
     c_bands:  1 eigenvalues not converged
     c_bands:  1 eigenvalues not converged
     c_bands:  1 eigenvalues not converged
     c_bands:  1 eigenvalues not converged
     c_bands:  1 eigenvalues not converged
     ethr =  1.11E-05,  avg # of iterations =  8.7

     total cpu time spent up to now is      103.5 secs

     total energy              =    -360.53857315 Ry
     estimated scf accuracy    <       0.00197183 Ry

     iteration # 12     ecut=    50.00 Ry     beta= 0.30
     Davidson diagonalization with overlap
     ethr =  5.48E-06,  avg # of iterations =  1.7

     total cpu time spent up to now is      108.9 secs

     total energy              =    -360.53849266 Ry
     estimated scf accuracy    <       0.00199384 Ry

     iteration # 13     ecut=    50.00 Ry     beta= 0.30
     Davidson diagonalization with overlap
     ethr =  5.48E-06,  avg # of iterations =  1.7

     total cpu time spent up to now is      114.4 secs

     total energy              =    -360.53842121 Ry
     estimated scf accuracy    <       0.00167007 Ry

     iteration # 14     ecut=    50.00 Ry     beta= 0.30
     Davidson diagonalization with overlap
     ethr =  4.64E-06,  avg # of iterations =  1.1

     total cpu time spent up to now is      119.6 secs

     total energy              =    -360.53823585 Ry
     estimated scf accuracy    <       0.00135237 Ry

     iteration # 15     ecut=    50.00 Ry     beta= 0.30
     Davidson diagonalization with overlap
     ethr =  3.76E-06,  avg # of iterations =  2.6

     total cpu time spent up to now is      125.6 secs

     total energy              =    -360.53823801 Ry
     estimated scf accuracy    <       0.00053351 Ry

     iteration # 16     ecut=    50.00 Ry     beta= 0.30
     Davidson diagonalization with overlap
     c_bands:  1 eigenvalues not converged
     c_bands:  1 eigenvalues not converged
     c_bands:  1 eigenvalues not converged
     c_bands:  1 eigenvalues not converged
     c_bands:  1 eigenvalues not converged
     ethr =  1.48E-06,  avg # of iterations =  8.9

     total cpu time spent up to now is      135.1 secs

     total energy              =    -360.53849937 Ry
     estimated scf accuracy    <       0.00049150 Ry

     iteration # 17     ecut=    50.00 Ry     beta= 0.30
     Davidson diagonalization with overlap
     ethr =  1.37E-06,  avg # of iterations =  1.3

     total cpu time spent up to now is      140.4 secs

     total energy              =    -360.53843729 Ry
     estimated scf accuracy    <       0.00041192 Ry

     iteration # 18     ecut=    50.00 Ry     beta= 0.30
     Davidson diagonalization with overlap
     ethr =  1.14E-06,  avg # of iterations =  3.1

     total cpu time spent up to now is      146.5 secs

     total energy              =    -360.53845072 Ry
     estimated scf accuracy    <       0.00018478 Ry

     iteration # 19     ecut=    50.00 Ry     beta= 0.30
     Davidson diagonalization with overlap
     ethr =  5.13E-07,  avg # of iterations =  6.5

     total cpu time spent up to now is      153.9 secs

     total energy              =    -360.53849364 Ry
     estimated scf accuracy    <       0.00004886 Ry

     iteration # 20     ecut=    50.00 Ry     beta= 0.30
     Davidson diagonalization with overlap
     ethr =  1.36E-07,  avg # of iterations =  6.5

     total cpu time spent up to now is      162.1 secs

     total energy              =    -360.53851712 Ry
     estimated scf accuracy    <       0.00008816 Ry

     iteration # 21     ecut=    50.00 Ry     beta= 0.30
     Davidson diagonalization with overlap
     ethr =  1.36E-07,  avg # of iterations =  1.5

     total cpu time spent up to now is      167.5 secs

     total energy              =    -360.53851672 Ry
     estimated scf accuracy    <       0.00010070 Ry

     iteration # 22     ecut=    50.00 Ry     beta= 0.30
     Davidson diagonalization with overlap
     ethr =  1.36E-07,  avg # of iterations =  1.3

     total cpu time spent up to now is      172.8 secs

     total energy              =    -360.53851908 Ry
     estimated scf accuracy    <       0.00010297 Ry

     iteration # 23     ecut=    50.00 Ry     beta= 0.30
     Davidson diagonalization with overlap
     ethr =  1.36E-07,  avg # of iterations =  1.1

     total cpu time spent up to now is      178.1 secs

     total energy              =    -360.53851222 Ry
     estimated scf accuracy    <       0.00011071 Ry

     iteration # 24     ecut=    50.00 Ry     beta= 0.30
     Davidson diagonalization with overlap
     ethr =  1.36E-07,  avg # of iterations =  1.4

     total cpu time spent up to now is      183.4 secs

     total energy              =    -360.53851481 Ry
     estimated scf accuracy    <       0.00010269 Ry

     iteration # 25     ecut=    50.00 Ry     beta= 0.30
     Davidson diagonalization with overlap
     ethr =  1.36E-07,  avg # of iterations =  7.9

     total cpu time spent up to now is      192.0 secs

     total energy              =    -360.53851257 Ry
     estimated scf accuracy    <       0.00027880 Ry

     iteration # 26     ecut=    50.00 Ry     beta= 0.30
     Davidson diagonalization with overlap
     ethr =  1.36E-07,  avg # of iterations =  1.1

     total cpu time spent up to now is      197.1 secs

     total energy              =    -360.53852666 Ry
     estimated scf accuracy    <       0.00024278 Ry

     iteration # 27     ecut=    50.00 Ry     beta= 0.30
     Davidson diagonalization with overlap
     ethr =  1.36E-07,  avg # of iterations =  1.0

     total cpu time spent up to now is      202.3 secs

     total energy              =    -360.53867544 Ry
     estimated scf accuracy    <       0.00026318 Ry

     iteration # 28     ecut=    50.00 Ry     beta= 0.30
     Davidson diagonalization with overlap
     c_bands:  3 eigenvalues not converged
     c_bands:  1 eigenvalues not converged
     c_bands:  1 eigenvalues not converged
     c_bands:  1 eigenvalues not converged
     c_bands:  1 eigenvalues not converged
     c_bands:  1 eigenvalues not converged
     c_bands:  2 eigenvalues not converged
     c_bands:  2 eigenvalues not converged
     ethr =  1.36E-07,  avg # of iterations = 12.7

     total cpu time spent up to now is      215.9 secs

     total energy              =    -360.53881396 Ry
     estimated scf accuracy    <       0.00334193 Ry

     iteration # 29     ecut=    50.00 Ry     beta= 0.30
     Davidson diagonalization with overlap
     ethr =  1.36E-07,  avg # of iterations =  1.5

     total cpu time spent up to now is      221.4 secs

     total energy              =    -360.53841455 Ry
     estimated scf accuracy    <       0.00327850 Ry

     iteration # 30     ecut=    50.00 Ry     beta= 0.30
     Davidson diagonalization with overlap
     c_bands:  2 eigenvalues not converged
     c_bands:  3 eigenvalues not converged
     ethr =  1.36E-07,  avg # of iterations = 12.2

     total cpu time spent up to now is      234.6 secs

     total energy              =    -360.53846393 Ry
     estimated scf accuracy    <       0.00053515 Ry

     iteration # 31     ecut=    50.00 Ry     beta= 0.30
     Davidson diagonalization with overlap
     ethr =  1.36E-07,  avg # of iterations =  7.4

     total cpu time spent up to now is      243.6 secs

     total energy              =    -360.53850497 Ry
     estimated scf accuracy    <       0.00003799 Ry

     iteration # 32     ecut=    50.00 Ry     beta= 0.30
     Davidson diagonalization with overlap
     ethr =  1.06E-07,  avg # of iterations =  1.7

     total cpu time spent up to now is      248.8 secs

     total energy              =    -360.53850304 Ry
     estimated scf accuracy    <       0.00004905 Ry

     iteration # 33     ecut=    50.00 Ry     beta= 0.30
     Davidson diagonalization with overlap
     ethr =  1.06E-07,  avg # of iterations =  1.3

     total cpu time spent up to now is      253.8 secs

     total energy              =    -360.53850246 Ry
     estimated scf accuracy    <       0.00004418 Ry

     iteration # 34     ecut=    50.00 Ry     beta= 0.30
     Davidson diagonalization with overlap
     ethr =  1.06E-07,  avg # of iterations =  1.0

     total cpu time spent up to now is      258.8 secs

     total energy              =    -360.53849743 Ry
     estimated scf accuracy    <       0.00004284 Ry

     iteration # 35     ecut=    50.00 Ry     beta= 0.30
     Davidson diagonalization with overlap
     ethr =  1.06E-07,  avg # of iterations =  1.3

     total cpu time spent up to now is      264.0 secs

     total energy              =    -360.53849522 Ry
     estimated scf accuracy    <       0.00002993 Ry

     iteration # 36     ecut=    50.00 Ry     beta= 0.30
     Davidson diagonalization with overlap
     ethr =  8.31E-08,  avg # of iterations =  1.8

     total cpu time spent up to now is      269.5 secs

     total energy              =    -360.53849530 Ry
     estimated scf accuracy    <       0.00001661 Ry

     iteration # 37     ecut=    50.00 Ry     beta= 0.30
     Davidson diagonalization with overlap
     c_bands:  1 eigenvalues not converged
     ethr =  4.61E-08,  avg # of iterations =  4.6

     total cpu time spent up to now is      276.4 secs

     total energy              =    -360.53849887 Ry
     estimated scf accuracy    <       0.00000213 Ry

     iteration # 38     ecut=    50.00 Ry     beta= 0.30
     Davidson diagonalization with overlap
     c_bands:  1 eigenvalues not converged
     c_bands:  1 eigenvalues not converged
     c_bands:  1 eigenvalues not converged
     c_bands:  1 eigenvalues not converged
     c_bands:  1 eigenvalues not converged
     c_bands:  1 eigenvalues not converged
     ethr =  5.92E-09,  avg # of iterations =  9.4

     total cpu time spent up to now is      285.5 secs

     total energy              =    -360.53850016 Ry
     estimated scf accuracy    <       0.00000068 Ry

     iteration # 39     ecut=    50.00 Ry     beta= 0.30
     Davidson diagonalization with overlap
     ethr =  1.90E-09,  avg # of iterations =  4.0

     total cpu time spent up to now is      291.7 secs

     total energy              =    -360.53850012 Ry
     estimated scf accuracy    <       0.00000043 Ry

     iteration # 40     ecut=    50.00 Ry     beta= 0.30
     Davidson diagonalization with overlap
     c_bands:  1 eigenvalues not converged
     ethr =  1.20E-09,  avg # of iterations =  6.9

     total cpu time spent up to now is      299.6 secs

     total energy              =    -360.53850026 Ry
     estimated scf accuracy    <       0.00000004 Ry

     iteration # 41     ecut=    50.00 Ry     beta= 0.30
     Davidson diagonalization with overlap
     c_bands:  1 eigenvalues not converged
     c_bands:  1 eigenvalues not converged
     c_bands:  1 eigenvalues not converged
     c_bands:  1 eigenvalues not converged
     c_bands:  1 eigenvalues not converged
     c_bands:  2 eigenvalues not converged
     ethr =  1.11E-10,  avg # of iterations = 10.8

     total cpu time spent up to now is      309.9 secs

     total energy              =    -360.53850031 Ry
     estimated scf accuracy    <       0.00000015 Ry

     iteration # 42     ecut=    50.00 Ry     beta= 0.30
     Davidson diagonalization with overlap
     c_bands:  1 eigenvalues not converged
     c_bands:  1 eigenvalues not converged
     c_bands:  1 eigenvalues not converged
     c_bands:  1 eigenvalues not converged
     c_bands:  1 eigenvalues not converged
     c_bands:  2 eigenvalues not converged
     c_bands:  1 eigenvalues not converged
     c_bands:  1 eigenvalues not converged
     c_bands:  2 eigenvalues not converged
     c_bands:  1 eigenvalues not converged
     c_bands:  1 eigenvalues not converged
     c_bands:  1 eigenvalues not converged
     c_bands:  1 eigenvalues not converged
     ethr =  1.11E-10,  avg # of iterations = 11.4

     total cpu time spent up to now is      321.2 secs

     total energy              =    -360.53850024 Ry
     estimated scf accuracy    <       0.00000065 Ry

     iteration # 43     ecut=    50.00 Ry     beta= 0.30
     Davidson diagonalization with overlap
     c_bands:  1 eigenvalues not converged
     ethr =  1.11E-10,  avg # of iterations =  9.3

     total cpu time spent up to now is      331.8 secs

     total energy              =    -360.53850028 Ry
     estimated scf accuracy    <       0.00000004 Ry

     iteration # 44     ecut=    50.00 Ry     beta= 0.30
     Davidson diagonalization with overlap
     ethr =  1.11E-10,  avg # of iterations =  1.1

     total cpu time spent up to now is      336.8 secs

     total energy              =    -360.53850028 Ry
     estimated scf accuracy    <       0.00000004 Ry

     iteration # 45     ecut=    50.00 Ry     beta= 0.30
     Davidson diagonalization with overlap
     ethr =  1.11E-10,  avg # of iterations =  2.2

     total cpu time spent up to now is      342.5 secs

     total energy              =    -360.53850028 Ry
     estimated scf accuracy    <       0.00000003 Ry

     iteration # 46     ecut=    50.00 Ry     beta= 0.30
     Davidson diagonalization with overlap
     ethr =  7.63E-11,  avg # of iterations =  7.4

     total cpu time spent up to now is      350.4 secs

     End of self-consistent calculation

     Number of k-points >= 100: set verbosity='high' to print the bands.

     highest occupied level (ev):     5.3227

!    total energy              =    -360.53850028 Ry
     estimated scf accuracy    <          9.3E-09 Ry

     The total energy is the sum of the following terms:
     one-electron contribution =    -207.47046444 Ry
     hartree contribution      =     139.47231254 Ry
     xc contribution           =    -108.85965823 Ry
     ewald contribution        =    -183.68069015 Ry

     convergence has been achieved in  46 iterations

     Forces acting on atoms (cartesian axes, Ry/au):

     atom    1 type  1   force =    -0.30906765   -0.84464618    0.69562666
     atom    2 type  1   force =     0.30727963    0.82749890   -0.66692789
     atom    3 type  2   force =    -0.00718991    0.11701627   -0.04793228
     atom    4 type  2   force =     0.00897793   -0.09986899    0.01923351
     The non-local contrib.  to forces
     atom    1 type  1   force =     0.12688101    0.44018317   -0.00487606
     atom    2 type  1   force =    -0.23538976   -0.25261166    0.03948997
     atom    3 type  2   force =     0.01465471    0.57407757   -0.09497036
     atom    4 type  2   force =     0.01652693   -0.54031842   -0.20033076
     The ionic contribution  to forces
     atom    1 type  1   force =    -4.38277787  -12.96234825   11.89340349
     atom    2 type  1   force =     5.17901001   12.91383722  -20.04805988
     atom    3 type  2   force =    -0.55126617   -1.32167215    3.01464675
     atom    4 type  2   force =    -0.24496598    1.37018317    5.14000965
     The local contribution  to forces
     atom    1 type  1   force =     3.92972174   11.63559990  -11.15185926
     atom    2 type  1   force =    -4.62228820  -11.78558862   19.29959368
     atom    3 type  2   force =     0.52959605    0.87099845   -2.96848558
     atom    4 type  2   force =     0.23745403   -0.93574425   -4.92200027
     The core correction contribution to forces
     atom    1 type  1   force =     0.01711075    0.04192795   -0.04110206
     atom    2 type  1   force =    -0.01405635   -0.04816392    0.04202076
     atom    3 type  2   force =    -0.00017235   -0.00640651    0.00094328
     atom    4 type  2   force =    -0.00004114    0.00599964    0.00159023
     The Hubbard contrib.    to forces
     atom    1 type  1   force =     0.00000000    0.00000000    0.00000000
     atom    2 type  1   force =     0.00000000    0.00000000    0.00000000
     atom    3 type  2   force =     0.00000000    0.00000000    0.00000000
     atom    4 type  2   force =     0.00000000    0.00000000    0.00000000
     The SCF correction term to forces
     atom    1 type  1   force =    -0.00000331   -0.00000752    0.00006925
     atom    2 type  1   force =     0.00000391    0.00002731    0.00003628
     atom    3 type  2   force =    -0.00000217    0.00002034   -0.00005769
     atom    4 type  2   force =     0.00000407    0.00001230   -0.00002665

     Total force =     1.594767     Total SCF correction =     0.000108

     Writing all to output data dir ./ZnO_ANN.save/

     init_run     :      3.93s CPU      4.02s WALL (       1 calls)
     electrons    :    339.74s CPU    345.96s WALL (       1 calls)
     forces       :      1.39s CPU      1.40s WALL (       1 calls)

     Called by init_run:
     wfcinit      :      2.88s CPU      2.92s WALL (       1 calls)
     potinit      :      0.37s CPU      0.38s WALL (       1 calls)
     hinit0       :      0.58s CPU      0.59s WALL (       1 calls)

     Called by electrons:
     c_bands      :    298.45s CPU    303.76s WALL (      46 calls)
     sum_band     :     36.87s CPU     37.67s WALL (      46 calls)
     v_of_rho     :      0.94s CPU      1.00s WALL (      47 calls)
     newd         :      3.31s CPU      3.35s WALL (      47 calls)
     mix_rho      :      0.16s CPU      0.18s WALL (      46 calls)

     Called by c_bands:
     init_us_2    :      2.89s CPU      2.94s WALL (   10528 calls)
     init_us_2:cp :      2.85s CPU      2.90s WALL (   10528 calls)
     cegterg      :    288.71s CPU    293.89s WALL (    5152 calls)

     Called by *egterg:
     cdiaghg      :     32.34s CPU     32.64s WALL (   31429 calls)
     h_psi        :    162.41s CPU    166.25s WALL (   31541 calls)
     s_psi        :     21.12s CPU     21.30s WALL (   31541 calls)
     g_psi        :      0.60s CPU      0.61s WALL (   26277 calls)

     Called by h_psi:
     h_psi:calbec :     25.39s CPU     26.16s WALL (   31541 calls)
     vloc_psi     :    115.31s CPU    118.15s WALL (   31541 calls)
     add_vuspsi   :     21.08s CPU     21.32s WALL (   31541 calls)

     General routines
     calbec       :     34.94s CPU     35.94s WALL (   37141 calls)
     fft          :      0.98s CPU      1.08s WALL (     620 calls)
     ffts         :      0.14s CPU      0.15s WALL (      93 calls)
     fftw         :    117.12s CPU    119.99s WALL (  606650 calls)
     interpolate  :      0.17s CPU      0.18s WALL (      47 calls)

     Parallel routines

     PWSCF        :   5m45.77s CPU   5m52.35s WALL


   This run was terminated on:  19:56:45  24Jun2025            

=------------------------------------------------------------------------------=
   JOB DONE.
=------------------------------------------------------------------------------=
Note: The following floating-point exceptions are signalling: IEEE_INVALID_FLAG
