
     Program PWSCF v.7.2 starts on 24Jun2025 at 18:40: 2 

     This program is part of the open-source Quantum ESPRESSO suite
     for quantum simulation of materials; please cite
         "P. Giannozzi et al., J. Phys.:Condens. Matter 21 395502 (2009);
         "P. Giannozzi et al., J. Phys.:Condens. Matter 29 465901 (2017);
         "P. Giannozzi et al., J. Chem. Phys. 152 154105 (2020);
          URL http://www.quantum-espresso.org", 
     in publications or presentations arising from this work. More details at
     http://www.quantum-espresso.org/quote

     Parallel version (MPI), running on     8 processors

     MPI processes distributed on     1 nodes
     90894 MiB available memory on the printing compute node when the environment starts

     Reading input from /home/jvc/QEspresso7.2/ZnO_DataBase/scf_025_NOSYM.in/scf-6.43-1.74-0.25-3.in

     Current dimensions of program PWSCF are:
     Max number of different atomic species (ntypx) = 10
     Max number of k-points (npk) =  40000
     Max angular momentum in pseudopotentials (lmaxx) =  4
     file Zn.upf: wavefunction(s)  3D renormalized

     R & G space division:  proc/nbgrp/npool/nimage =       8
     Subspace diagonalization in iterative solution of the eigenvalue problem:
     a serial algorithm will be used


     Parallelization info
     --------------------
     sticks:   dense  smooth     PW     G-vecs:    dense   smooth      PW
     Min         143      71     20                 6229     2189     360
     Max         145      73     21                 6232     2190     367
     Sum        1147     571    163                49835    17513    2899

     Using Slab Decomposition



     bravais-lattice index     =            0
     lattice parameter (alat)  =       6.4260  a.u.
     unit-cell volume          =     367.6779 (a.u.)^3
     number of atoms/cell      =            4
     number of atomic types    =            2
     number of electrons       =        36.00
     number of Kohn-Sham states=           18
     kinetic-energy cutoff     =      50.0000  Ry
     charge density cutoff     =     400.0000  Ry
     scf convergence threshold =      1.0E-08
     mixing beta               =       0.3000
     number of iterations used =            8  plain     mixing
     Exchange-correlation= PBE
                           (   1   4   3   4   0   0   0)

     celldm(1)=   6.425974  celldm(2)=   0.000000  celldm(3)=   0.000000
     celldm(4)=   0.000000  celldm(5)=   0.000000  celldm(6)=   0.000000

     crystal axes: (cart. coord. in units of alat)
               a(1) = (   1.000000   0.000000   0.000000 )  
               a(2) = (  -0.500000   0.866025   0.000000 )  
               a(3) = (   0.000000   0.000000   1.600000 )  

     reciprocal axes: (cart. coord. in units 2 pi/alat)
               b(1) = (  1.000000  0.577350 -0.000000 )  
               b(2) = (  0.000000  1.154701  0.000000 )  
               b(3) = (  0.000000 -0.000000  0.625000 )  


     PseudoPot. # 1 for Zn read from file:
     ./pseudos/Zn.upf
     MD5 check sum: 7f56cabf9682ed8c977c2f7d0c5985c5
     Pseudo is Ultrasoft + core correction, Zval = 12.0
     Generated using &quot;atomic&quot; code by A. Dal Corso  v.6.2.2
     Using radial grid of 1201 points,  6 beta functions with: 
                l(1) =   0
                l(2) =   0
                l(3) =   1
                l(4) =   1
                l(5) =   2
                l(6) =   2
     Q(r) pseudized with 0 coefficients 


     PseudoPot. # 2 for O  read from file:
     ./pseudos/O.upf
     MD5 check sum: 91400c9766925bcf19f520983a725ff0
     Pseudo is Ultrasoft + core correction, Zval =  6.0
     Generated using &quot;atomic&quot; code by A. Dal Corso  v.6.3MaX
     Using radial grid of 1095 points,  4 beta functions with: 
                l(1) =   0
                l(2) =   0
                l(3) =   1
                l(4) =   1
     Q(r) pseudized with 0 coefficients 


     atomic species   valence    mass     pseudopotential
        Zn            12.00    63.38000     Zn( 1.00)
        O              6.00    15.99900     O ( 1.00)

     No symmetry found



   Cartesian axes

     site n.     atom                  positions (alat units)
         1           Zn  tau(   1) = (   0.6672805   0.2165242   0.7787424  )
         2           Zn  tau(   2) = (   0.0047397   0.4820102  -0.1419677  )
         3           O   tau(   3) = (   0.5451206   0.3343657   1.5237816  )
         4           O   tau(   4) = (  -0.0839251   0.3669900   0.2932764  )

     number of k points=   112

     Number of k-points >= 100: set verbosity='high' to print them.

     Dense  grid:    49835 G-vectors     FFT dimensions: (  45,  45,  72)

     Smooth grid:    17513 G-vectors     FFT dimensions: (  30,  30,  48)

     Estimated max dynamical RAM per process >      34.06 MB

     Estimated total dynamical RAM >     272.46 MB

     Check: negative core charge=   -0.000002

     Initial potential from superposition of free atoms

     starting charge      35.9925, renormalised to      36.0000
     Starting wfcs are   26 randomized atomic wfcs

     total cpu time spent up to now is        4.3 secs

     Self-consistent Calculation

     iteration #  1     ecut=    50.00 Ry     beta= 0.30
     Davidson diagonalization with overlap
     ethr =  1.00E-02,  avg # of iterations =  2.0

     total cpu time spent up to now is       10.0 secs

     total energy              =    -360.59761048 Ry
     estimated scf accuracy    <       1.44369033 Ry

     iteration #  2     ecut=    50.00 Ry     beta= 0.30
     Davidson diagonalization with overlap
     ethr =  4.01E-03,  avg # of iterations =  6.1

     total cpu time spent up to now is       17.7 secs

     total energy              =    -361.02542500 Ry
     estimated scf accuracy    <       0.16336083 Ry

     iteration #  3     ecut=    50.00 Ry     beta= 0.30
     Davidson diagonalization with overlap
     c_bands:  1 eigenvalues not converged
     ethr =  4.54E-04,  avg # of iterations =  5.9

     total cpu time spent up to now is       25.7 secs

     total energy              =    -361.01209888 Ry
     estimated scf accuracy    <       0.12046826 Ry

     iteration #  4     ecut=    50.00 Ry     beta= 0.30
     Davidson diagonalization with overlap
     ethr =  3.35E-04,  avg # of iterations =  9.5

     total cpu time spent up to now is       35.8 secs

     total energy              =    -361.04837088 Ry
     estimated scf accuracy    <       0.17706439 Ry

     iteration #  5     ecut=    50.00 Ry     beta= 0.30
     Davidson diagonalization with overlap
     ethr =  3.35E-04,  avg # of iterations =  3.5

     total cpu time spent up to now is       41.7 secs

     total energy              =    -361.03585277 Ry
     estimated scf accuracy    <       0.04561509 Ry

     iteration #  6     ecut=    50.00 Ry     beta= 0.30
     Davidson diagonalization with overlap
     c_bands:  1 eigenvalues not converged
     c_bands:  1 eigenvalues not converged
     c_bands:  1 eigenvalues not converged
     c_bands:  1 eigenvalues not converged
     c_bands:  1 eigenvalues not converged
     ethr =  1.27E-04,  avg # of iterations = 10.9

     total cpu time spent up to now is       53.6 secs

     total energy              =    -361.07461592 Ry
     estimated scf accuracy    <       0.13233196 Ry

     iteration #  7     ecut=    50.00 Ry     beta= 0.30
     Davidson diagonalization with overlap
     ethr =  1.27E-04,  avg # of iterations =  1.7

     total cpu time spent up to now is       58.9 secs

     total energy              =    -361.03640289 Ry
     estimated scf accuracy    <       0.09268123 Ry

     iteration #  8     ecut=    50.00 Ry     beta= 0.30
     Davidson diagonalization with overlap
     c_bands:  1 eigenvalues not converged
     ethr =  1.27E-04,  avg # of iterations =  9.4

     total cpu time spent up to now is       70.1 secs

     total energy              =    -361.06647367 Ry
     estimated scf accuracy    <       0.04084126 Ry

     iteration #  9     ecut=    50.00 Ry     beta= 0.30
     Davidson diagonalization with overlap
     ethr =  1.13E-04,  avg # of iterations =  1.9

     total cpu time spent up to now is       75.5 secs

     total energy              =    -361.06505385 Ry
     estimated scf accuracy    <       0.01648313 Ry

     iteration # 10     ecut=    50.00 Ry     beta= 0.30
     Davidson diagonalization with overlap
     ethr =  4.58E-05,  avg # of iterations =  5.4

     total cpu time spent up to now is       83.1 secs

     total energy              =    -361.07021231 Ry
     estimated scf accuracy    <       0.00020010 Ry

     iteration # 11     ecut=    50.00 Ry     beta= 0.30
     Davidson diagonalization with overlap
     c_bands:  1 eigenvalues not converged
     c_bands:  1 eigenvalues not converged
     c_bands:  1 eigenvalues not converged
     c_bands:  1 eigenvalues not converged
     c_bands:  1 eigenvalues not converged
     c_bands:  1 eigenvalues not converged
     c_bands:  1 eigenvalues not converged
     c_bands:  1 eigenvalues not converged
     c_bands:  1 eigenvalues not converged
     c_bands:  1 eigenvalues not converged
     c_bands:  1 eigenvalues not converged
     c_bands:  1 eigenvalues not converged
     c_bands:  1 eigenvalues not converged
     c_bands:  1 eigenvalues not converged
     c_bands:  1 eigenvalues not converged
     c_bands:  1 eigenvalues not converged
     c_bands:  1 eigenvalues not converged
     ethr =  5.56E-07,  avg # of iterations = 15.1

     total cpu time spent up to now is      101.1 secs

     total energy              =    -361.07102079 Ry
     estimated scf accuracy    <       0.00523762 Ry

     iteration # 12     ecut=    50.00 Ry     beta= 0.30
     Davidson diagonalization with overlap
     c_bands:  1 eigenvalues not converged
     ethr =  5.56E-07,  avg # of iterations =  5.9

     total cpu time spent up to now is      108.4 secs

     total energy              =    -361.07039685 Ry
     estimated scf accuracy    <       0.00310775 Ry

     iteration # 13     ecut=    50.00 Ry     beta= 0.30
     Davidson diagonalization with overlap
     c_bands:  1 eigenvalues not converged
     c_bands:  1 eigenvalues not converged
     c_bands:  1 eigenvalues not converged
     c_bands:  1 eigenvalues not converged
     c_bands:  1 eigenvalues not converged
     c_bands:  1 eigenvalues not converged
     c_bands:  1 eigenvalues not converged
     ethr =  5.56E-07,  avg # of iterations = 13.7

     total cpu time spent up to now is      122.2 secs

     total energy              =    -361.07085391 Ry
     estimated scf accuracy    <       0.00008003 Ry

     iteration # 14     ecut=    50.00 Ry     beta= 0.30
     Davidson diagonalization with overlap
     c_bands:  1 eigenvalues not converged
     c_bands:  1 eigenvalues not converged
     c_bands:  1 eigenvalues not converged
     c_bands:  1 eigenvalues not converged
     c_bands:  1 eigenvalues not converged
     c_bands:  1 eigenvalues not converged
     c_bands:  1 eigenvalues not converged
     c_bands:  1 eigenvalues not converged
     ethr =  2.22E-07,  avg # of iterations = 12.8

     total cpu time spent up to now is      135.9 secs

     total energy              =    -361.07166285 Ry
     estimated scf accuracy    <       0.00154336 Ry

     iteration # 15     ecut=    50.00 Ry     beta= 0.30
     Davidson diagonalization with overlap
     c_bands:  1 eigenvalues not converged
     c_bands:  2 eigenvalues not converged
     c_bands:  1 eigenvalues not converged
     c_bands:  1 eigenvalues not converged
     c_bands:  1 eigenvalues not converged
     c_bands:  1 eigenvalues not converged
     c_bands:  1 eigenvalues not converged
     c_bands:  1 eigenvalues not converged
     c_bands:  1 eigenvalues not converged
     c_bands:  1 eigenvalues not converged
     c_bands:  1 eigenvalues not converged
     c_bands:  2 eigenvalues not converged
     c_bands:  1 eigenvalues not converged
     c_bands:  1 eigenvalues not converged
     c_bands:  1 eigenvalues not converged
     c_bands:  1 eigenvalues not converged
     c_bands:  1 eigenvalues not converged
     c_bands:  1 eigenvalues not converged
     c_bands:  1 eigenvalues not converged
     c_bands:  1 eigenvalues not converged
     ethr =  2.22E-07,  avg # of iterations = 16.2

     total cpu time spent up to now is      154.6 secs

     total energy              =    -361.07036378 Ry
     estimated scf accuracy    <       0.00875167 Ry

     iteration # 16     ecut=    50.00 Ry     beta= 0.30
     Davidson diagonalization with overlap
     c_bands:  1 eigenvalues not converged
     c_bands:  1 eigenvalues not converged
     c_bands:  1 eigenvalues not converged
     c_bands:  1 eigenvalues not converged
     c_bands:  1 eigenvalues not converged
     c_bands:  1 eigenvalues not converged
     c_bands:  1 eigenvalues not converged
     c_bands:  1 eigenvalues not converged
     c_bands:  1 eigenvalues not converged
     c_bands:  1 eigenvalues not converged
     c_bands:  1 eigenvalues not converged
     c_bands:  1 eigenvalues not converged
     c_bands:  2 eigenvalues not converged
     ethr =  2.22E-07,  avg # of iterations = 16.1

     total cpu time spent up to now is      173.5 secs

     total energy              =    -361.07039137 Ry
     estimated scf accuracy    <       0.00101886 Ry

     iteration # 17     ecut=    50.00 Ry     beta= 0.30
     Davidson diagonalization with overlap
     c_bands:  1 eigenvalues not converged
     c_bands:  1 eigenvalues not converged
     c_bands:  1 eigenvalues not converged
     c_bands:  1 eigenvalues not converged
     c_bands:  1 eigenvalues not converged
     c_bands:  1 eigenvalues not converged
     c_bands:  2 eigenvalues not converged
     c_bands:  3 eigenvalues not converged
     c_bands:  1 eigenvalues not converged
     c_bands:  1 eigenvalues not converged
     c_bands:  1 eigenvalues not converged
     c_bands:  1 eigenvalues not converged
     c_bands:  1 eigenvalues not converged
     c_bands:  1 eigenvalues not converged
     c_bands:  1 eigenvalues not converged
     c_bands:  1 eigenvalues not converged
     c_bands:  1 eigenvalues not converged
     c_bands:  1 eigenvalues not converged
     c_bands:  1 eigenvalues not converged
     c_bands:  1 eigenvalues not converged
     c_bands:  1 eigenvalues not converged
     ethr =  2.22E-07,  avg # of iterations = 17.1

     total cpu time spent up to now is      191.9 secs

     total energy              =    -361.07067709 Ry
     estimated scf accuracy    <       0.00081540 Ry

     iteration # 18     ecut=    50.00 Ry     beta= 0.30
     Davidson diagonalization with overlap
     c_bands:  1 eigenvalues not converged
     c_bands:  1 eigenvalues not converged
     c_bands:  1 eigenvalues not converged
     ethr =  2.22E-07,  avg # of iterations =  8.7

     total cpu time spent up to now is      201.8 secs

     total energy              =    -361.07071868 Ry
     estimated scf accuracy    <       0.00008567 Ry

     iteration # 19     ecut=    50.00 Ry     beta= 0.30
     Davidson diagonalization with overlap
     ethr =  2.22E-07,  avg # of iterations =  3.4

     total cpu time spent up to now is      207.6 secs

     total energy              =    -361.07072206 Ry
     estimated scf accuracy    <       0.00002063 Ry

     iteration # 20     ecut=    50.00 Ry     beta= 0.30
     Davidson diagonalization with overlap
     c_bands:  1 eigenvalues not converged
     ethr =  5.73E-08,  avg # of iterations = 11.0

     total cpu time spent up to now is      218.0 secs

     total energy              =    -361.07073686 Ry
     estimated scf accuracy    <       0.00001650 Ry

     iteration # 21     ecut=    50.00 Ry     beta= 0.30
     Davidson diagonalization with overlap
     ethr =  4.58E-08,  avg # of iterations =  1.4

     total cpu time spent up to now is      223.0 secs

     total energy              =    -361.07073421 Ry
     estimated scf accuracy    <       0.00001012 Ry

     iteration # 22     ecut=    50.00 Ry     beta= 0.30
     Davidson diagonalization with overlap
     ethr =  2.81E-08,  avg # of iterations =  5.7

     total cpu time spent up to now is      230.2 secs

     total energy              =    -361.07073691 Ry
     estimated scf accuracy    <       0.00000022 Ry

     iteration # 23     ecut=    50.00 Ry     beta= 0.30
     Davidson diagonalization with overlap
     c_bands:  1 eigenvalues not converged
     c_bands:  1 eigenvalues not converged
     c_bands:  1 eigenvalues not converged
     c_bands:  1 eigenvalues not converged
     ethr =  5.98E-10,  avg # of iterations = 11.0

     total cpu time spent up to now is      242.9 secs

     total energy              =    -361.07073721 Ry
     estimated scf accuracy    <       0.00000165 Ry

     iteration # 24     ecut=    50.00 Ry     beta= 0.30
     Davidson diagonalization with overlap
     ethr =  5.98E-10,  avg # of iterations =  3.7

     total cpu time spent up to now is      248.7 secs

     total energy              =    -361.07073695 Ry
     estimated scf accuracy    <       0.00000101 Ry

     iteration # 25     ecut=    50.00 Ry     beta= 0.30
     Davidson diagonalization with overlap
     c_bands:  1 eigenvalues not converged
     c_bands:  1 eigenvalues not converged
     c_bands:  1 eigenvalues not converged
     c_bands:  1 eigenvalues not converged
     ethr =  5.98E-10,  avg # of iterations = 11.1

     total cpu time spent up to now is      260.0 secs

     total energy              =    -361.07073717 Ry
     estimated scf accuracy    <       0.00000002 Ry

     iteration # 26     ecut=    50.00 Ry     beta= 0.30
     Davidson diagonalization with overlap
     c_bands:  1 eigenvalues not converged
     c_bands:  1 eigenvalues not converged
     ethr =  4.38E-11,  avg # of iterations =  8.5

     total cpu time spent up to now is      268.0 secs

     total energy              =    -361.07073717 Ry
     estimated scf accuracy    <       0.00000003 Ry

     iteration # 27     ecut=    50.00 Ry     beta= 0.30
     Davidson diagonalization with overlap
     ethr =  4.38E-11,  avg # of iterations =  2.7

     total cpu time spent up to now is      273.6 secs

     total energy              =    -361.07073717 Ry
     estimated scf accuracy    <       0.00000001 Ry

     iteration # 28     ecut=    50.00 Ry     beta= 0.30
     Davidson diagonalization with overlap
     ethr =  3.81E-11,  avg # of iterations =  6.2

     total cpu time spent up to now is      281.2 secs

     End of self-consistent calculation

     Number of k-points >= 100: set verbosity='high' to print the bands.

     highest occupied level (ev):     7.0296

!    total energy              =    -361.07073717 Ry
     estimated scf accuracy    <          9.1E-10 Ry

     The total energy is the sum of the following terms:
     one-electron contribution =    -187.47679765 Ry
     hartree contribution      =     132.23402043 Ry
     xc contribution           =    -109.37620658 Ry
     ewald contribution        =    -196.45175337 Ry

     convergence has been achieved in  28 iterations

     Forces acting on atoms (cartesian axes, Ry/au):

     atom    1 type  1   force =    -0.00563510    0.00245744   -0.00750585
     atom    2 type  1   force =     0.30252919    0.19391628   -0.41872239
     atom    3 type  2   force =    -0.26100554   -0.09721693   -0.12264515
     atom    4 type  2   force =    -0.03588855   -0.09915679    0.54887339
     The non-local contrib.  to forces
     atom    1 type  1   force =    -0.19762124   -0.13685925    0.20083715
     atom    2 type  1   force =     0.29637970    0.35968046   -0.65345169
     atom    3 type  2   force =     0.31158013    0.33887106   -0.46102586
     atom    4 type  2   force =    -0.29527387    0.07430605   -0.11654478
     The ionic contribution  to forces
     atom    1 type  1   force =    -2.54376347   -2.12085526    1.41634149
     atom    2 type  1   force =     6.27243369    5.90483022  -13.00754678
     atom    3 type  2   force =    -5.70315157   -2.54070476   -0.37195007
     atom    4 type  2   force =     1.97448134   -1.24327020   11.96315536
     The local contribution  to forces
     atom    1 type  1   force =     2.72118388    2.24976907   -1.60648650
     atom    2 type  1   force =    -6.21727805   -6.02448312   13.15489566
     atom    3 type  2   force =     5.13182086    2.10716165    0.70601040
     atom    4 type  2   force =    -1.71812539    1.06989564  -11.29580603
     The core correction contribution to forces
     atom    1 type  1   force =     0.01457555    0.01041071   -0.01824236
     atom    2 type  1   force =    -0.04901675   -0.04612259    0.08744730
     atom    3 type  2   force =    -0.00123748   -0.00254305    0.00434906
     atom    4 type  2   force =     0.00303199   -0.00008885   -0.00194256
     The Hubbard contrib.    to forces
     atom    1 type  1   force =     0.00000000    0.00000000    0.00000000
     atom    2 type  1   force =     0.00000000    0.00000000    0.00000000
     atom    3 type  2   force =     0.00000000    0.00000000    0.00000000
     atom    4 type  2   force =     0.00000000    0.00000000    0.00000000
     The SCF correction term to forces
     atom    1 type  1   force =    -0.00000965   -0.00000766    0.00003806
     atom    2 type  1   force =     0.00001078    0.00001147   -0.00007319
     atom    3 type  2   force =    -0.00001731   -0.00000166   -0.00003499
     atom    4 type  2   force =    -0.00000245    0.00000074    0.00000510

     Total force =     0.842347     Total SCF correction =     0.000094

     Writing all to output data dir ./ZnO_ANN.save/

     init_run     :      3.78s CPU      3.88s WALL (       1 calls)
     electrons    :    272.20s CPU    276.90s WALL (       1 calls)
     forces       :      1.26s CPU      1.27s WALL (       1 calls)

     Called by init_run:
     wfcinit      :      2.75s CPU      2.81s WALL (       1 calls)
     potinit      :      0.38s CPU      0.38s WALL (       1 calls)
     hinit0       :      0.56s CPU      0.58s WALL (       1 calls)

     Called by electrons:
     c_bands      :    247.56s CPU    251.77s WALL (      28 calls)
     sum_band     :     22.19s CPU     22.63s WALL (      28 calls)
     v_of_rho     :      0.56s CPU      0.60s WALL (      29 calls)
     newd         :      1.81s CPU      1.84s WALL (      29 calls)
     mix_rho      :      0.09s CPU      0.10s WALL (      28 calls)

     Called by c_bands:
     init_us_2    :      1.54s CPU      1.56s WALL (    6496 calls)
     init_us_2:cp :      1.52s CPU      1.54s WALL (    6496 calls)
     cegterg      :    242.45s CPU    246.57s WALL (    3136 calls)

     Called by *egterg:
     cdiaghg      :     30.43s CPU     30.72s WALL (   28513 calls)
     h_psi        :    134.70s CPU    137.67s WALL (   28625 calls)
     s_psi        :     15.34s CPU     15.47s WALL (   28625 calls)
     g_psi        :      0.51s CPU      0.51s WALL (   25377 calls)

     Called by h_psi:
     h_psi:calbec :     18.76s CPU     19.37s WALL (   28625 calls)
     vloc_psi     :    100.09s CPU    102.29s WALL (   28625 calls)
     add_vuspsi   :     15.37s CPU     15.53s WALL (   28625 calls)

     General routines
     calbec       :     24.25s CPU     24.99s WALL (   32209 calls)
     fft          :      0.78s CPU      0.82s WALL (     386 calls)
     ffts         :      0.16s CPU      0.16s WALL (      57 calls)
     fftw         :    100.24s CPU    102.43s WALL (  479244 calls)
     interpolate  :      0.18s CPU      0.18s WALL (      29 calls)

     Parallel routines

     PWSCF        :   4m37.94s CPU   4m42.99s WALL


   This run was terminated on:  18:44:45  24Jun2025            

=------------------------------------------------------------------------------=
   JOB DONE.
=------------------------------------------------------------------------------=
Note: The following floating-point exceptions are signalling: IEEE_INVALID_FLAG
