
     Program PWSCF v.7.2 starts on 24Jun2025 at 14:34:25 

     This program is part of the open-source Quantum ESPRESSO suite
     for quantum simulation of materials; please cite
         "P. Giannozzi et al., J. Phys.:Condens. Matter 21 395502 (2009);
         "P. Giannozzi et al., J. Phys.:Condens. Matter 29 465901 (2017);
         "P. Giannozzi et al., J. Chem. Phys. 152 154105 (2020);
          URL http://www.quantum-espresso.org", 
     in publications or presentations arising from this work. More details at
     http://www.quantum-espresso.org/quote

     Parallel version (MPI), running on     8 processors

     MPI processes distributed on     1 nodes
     91323 MiB available memory on the printing compute node when the environment starts

     Reading input from /home/jvc/QEspresso7.2/ZnO_DataBase/scf_025_NOSYM.in/scf-5.56-1.61-0.25-4.in

     Current dimensions of program PWSCF are:
     Max number of different atomic species (ntypx) = 10
     Max number of k-points (npk) =  40000
     Max angular momentum in pseudopotentials (lmaxx) =  4
     file Zn.upf: wavefunction(s)  3D renormalized

     R & G space division:  proc/nbgrp/npool/nimage =       8
     Subspace diagonalization in iterative solution of the eigenvalue problem:
     a serial algorithm will be used


     Parallelization info
     --------------------
     sticks:   dense  smooth     PW     G-vecs:    dense   smooth      PW
     Min         105      53     15                 4025     1425     243
     Max         106      55     16                 4034     1428     250
     Sum         847     433    127                32259    11417    1961

     Using Slab Decomposition



     bravais-lattice index     =            0
     lattice parameter (alat)  =       5.5609  a.u.
     unit-cell volume          =     238.2841 (a.u.)^3
     number of atoms/cell      =            4
     number of atomic types    =            2
     number of electrons       =        36.00
     number of Kohn-Sham states=           18
     kinetic-energy cutoff     =      50.0000  Ry
     charge density cutoff     =     400.0000  Ry
     scf convergence threshold =      1.0E-08
     mixing beta               =       0.3000
     number of iterations used =            8  plain     mixing
     Exchange-correlation= PBE
                           (   1   4   3   4   0   0   0)

     celldm(1)=   5.560939  celldm(2)=   0.000000  celldm(3)=   0.000000
     celldm(4)=   0.000000  celldm(5)=   0.000000  celldm(6)=   0.000000

     crystal axes: (cart. coord. in units of alat)
               a(1) = (   1.000000   0.000000   0.000000 )  
               a(2) = (  -0.500000   0.866025   0.000000 )  
               a(3) = (   0.000000   0.000000   1.600000 )  

     reciprocal axes: (cart. coord. in units 2 pi/alat)
               b(1) = (  1.000000  0.577350 -0.000000 )  
               b(2) = (  0.000000  1.154701  0.000000 )  
               b(3) = (  0.000000 -0.000000  0.625000 )  


     PseudoPot. # 1 for Zn read from file:
     ./pseudos/Zn.upf
     MD5 check sum: 7f56cabf9682ed8c977c2f7d0c5985c5
     Pseudo is Ultrasoft + core correction, Zval = 12.0
     Generated using &quot;atomic&quot; code by A. Dal Corso  v.6.2.2
     Using radial grid of 1201 points,  6 beta functions with: 
                l(1) =   0
                l(2) =   0
                l(3) =   1
                l(4) =   1
                l(5) =   2
                l(6) =   2
     Q(r) pseudized with 0 coefficients 


     PseudoPot. # 2 for O  read from file:
     ./pseudos/O.upf
     MD5 check sum: 91400c9766925bcf19f520983a725ff0
     Pseudo is Ultrasoft + core correction, Zval =  6.0
     Generated using &quot;atomic&quot; code by A. Dal Corso  v.6.3MaX
     Using radial grid of 1095 points,  4 beta functions with: 
                l(1) =   0
                l(2) =   0
                l(3) =   1
                l(4) =   1
     Q(r) pseudized with 0 coefficients 


     atomic species   valence    mass     pseudopotential
        Zn            12.00    63.38000     Zn( 1.00)
        O              6.00    15.99900     O ( 1.00)

     No symmetry found



   Cartesian axes

     site n.     atom                  positions (alat units)
         1           Zn  tau(   1) = (   0.4035617   0.4520803   0.5470623  )
         2           Zn  tau(   2) = (  -0.0310338   0.7503657  -0.0316434  )
         3           O   tau(   3) = (   0.7679504   0.2299067   1.0919868  )
         4           O   tau(   4) = (  -0.0721526   0.5939476   0.8433113  )

     number of k points=   112

     Number of k-points >= 100: set verbosity='high' to print them.

     Dense  grid:    32259 G-vectors     FFT dimensions: (  36,  36,  60)

     Smooth grid:    11417 G-vectors     FFT dimensions: (  25,  25,  45)

     Estimated max dynamical RAM per process >      23.07 MB

     Estimated total dynamical RAM >     184.57 MB

     Check: negative core charge=   -0.000002

     Initial potential from superposition of free atoms

     starting charge      35.9925, renormalised to      36.0000
     Starting wfcs are   26 randomized atomic wfcs

     total cpu time spent up to now is        3.4 secs

     Self-consistent Calculation

     iteration #  1     ecut=    50.00 Ry     beta= 0.30
     Davidson diagonalization with overlap
     ethr =  1.00E-02,  avg # of iterations =  2.0

     total cpu time spent up to now is        7.3 secs

     total energy              =    -360.83545384 Ry
     estimated scf accuracy    <       0.40210040 Ry

     iteration #  2     ecut=    50.00 Ry     beta= 0.30
     Davidson diagonalization with overlap
     ethr =  1.12E-03,  avg # of iterations =  4.4

     total cpu time spent up to now is       12.5 secs

     total energy              =    -360.94508189 Ry
     estimated scf accuracy    <       0.05982559 Ry

     iteration #  3     ecut=    50.00 Ry     beta= 0.30
     Davidson diagonalization with overlap
     ethr =  1.66E-04,  avg # of iterations =  4.4

     total cpu time spent up to now is       18.1 secs

     total energy              =    -360.95932893 Ry
     estimated scf accuracy    <       0.01358674 Ry

     iteration #  4     ecut=    50.00 Ry     beta= 0.30
     Davidson diagonalization with overlap
     ethr =  3.77E-05,  avg # of iterations =  4.6

     total cpu time spent up to now is       23.6 secs

     total energy              =    -360.96293140 Ry
     estimated scf accuracy    <       0.00132904 Ry

     iteration #  5     ecut=    50.00 Ry     beta= 0.30
     Davidson diagonalization with overlap
     ethr =  3.69E-06,  avg # of iterations =  7.3

     total cpu time spent up to now is       30.6 secs

     total energy              =    -360.96355430 Ry
     estimated scf accuracy    <       0.00050923 Ry

     iteration #  6     ecut=    50.00 Ry     beta= 0.30
     Davidson diagonalization with overlap
     ethr =  1.41E-06,  avg # of iterations =  6.2

     total cpu time spent up to now is       36.8 secs

     total energy              =    -360.96359311 Ry
     estimated scf accuracy    <       0.00031317 Ry

     iteration #  7     ecut=    50.00 Ry     beta= 0.30
     Davidson diagonalization with overlap
     ethr =  8.70E-07,  avg # of iterations =  6.1

     total cpu time spent up to now is       42.9 secs

     total energy              =    -360.96371189 Ry
     estimated scf accuracy    <       0.00010056 Ry

     iteration #  8     ecut=    50.00 Ry     beta= 0.30
     Davidson diagonalization with overlap
     ethr =  2.79E-07,  avg # of iterations =  2.3

     total cpu time spent up to now is       46.9 secs

     total energy              =    -360.96367885 Ry
     estimated scf accuracy    <       0.00007447 Ry

     iteration #  9     ecut=    50.00 Ry     beta= 0.30
     Davidson diagonalization with overlap
     ethr =  2.07E-07,  avg # of iterations =  6.3

     total cpu time spent up to now is       52.8 secs

     total energy              =    -360.96371055 Ry
     estimated scf accuracy    <       0.00001471 Ry

     iteration # 10     ecut=    50.00 Ry     beta= 0.30
     Davidson diagonalization with overlap
     ethr =  4.09E-08,  avg # of iterations =  3.7

     total cpu time spent up to now is       57.3 secs

     total energy              =    -360.96370320 Ry
     estimated scf accuracy    <       0.00001544 Ry

     iteration # 11     ecut=    50.00 Ry     beta= 0.30
     Davidson diagonalization with overlap
     ethr =  4.09E-08,  avg # of iterations =  6.6

     total cpu time spent up to now is       64.2 secs

     total energy              =    -360.96370775 Ry
     estimated scf accuracy    <       0.00001269 Ry

     iteration # 12     ecut=    50.00 Ry     beta= 0.30
     Davidson diagonalization with overlap
     ethr =  3.52E-08,  avg # of iterations =  2.5

     total cpu time spent up to now is       68.2 secs

     total energy              =    -360.96370667 Ry
     estimated scf accuracy    <       0.00000280 Ry

     iteration # 13     ecut=    50.00 Ry     beta= 0.30
     Davidson diagonalization with overlap
     ethr =  7.77E-09,  avg # of iterations =  8.8

     total cpu time spent up to now is       77.8 secs

     total energy              =    -360.96370953 Ry
     estimated scf accuracy    <       0.00001109 Ry

     iteration # 14     ecut=    50.00 Ry     beta= 0.30
     Davidson diagonalization with overlap
     ethr =  7.77E-09,  avg # of iterations =  3.9

     total cpu time spent up to now is       82.5 secs

     total energy              =    -360.96370885 Ry
     estimated scf accuracy    <       0.00000409 Ry

     iteration # 15     ecut=    50.00 Ry     beta= 0.30
     Davidson diagonalization with overlap
     ethr =  7.77E-09,  avg # of iterations =  4.9

     total cpu time spent up to now is       87.7 secs

     total energy              =    -360.96370947 Ry
     estimated scf accuracy    <       0.00000028 Ry

     iteration # 16     ecut=    50.00 Ry     beta= 0.30
     Davidson diagonalization with overlap
     ethr =  7.75E-10,  avg # of iterations =  6.7

     total cpu time spent up to now is       94.5 secs

     total energy              =    -360.96370973 Ry
     estimated scf accuracy    <       0.00000003 Ry

     iteration # 17     ecut=    50.00 Ry     beta= 0.30
     Davidson diagonalization with overlap
     ethr =  9.19E-11,  avg # of iterations =  7.2

     total cpu time spent up to now is      101.5 secs

     total energy              =    -360.96370972 Ry
     estimated scf accuracy    <       0.00000017 Ry

     iteration # 18     ecut=    50.00 Ry     beta= 0.30
     Davidson diagonalization with overlap
     ethr =  9.19E-11,  avg # of iterations =  2.7

     total cpu time spent up to now is      105.6 secs

     total energy              =    -360.96370967 Ry
     estimated scf accuracy    <       0.00000009 Ry

     iteration # 19     ecut=    50.00 Ry     beta= 0.30
     Davidson diagonalization with overlap
     ethr =  9.19E-11,  avg # of iterations =  7.9

     total cpu time spent up to now is      113.9 secs

     total energy              =    -360.96370972 Ry
     estimated scf accuracy    <       0.00000002 Ry

     iteration # 20     ecut=    50.00 Ry     beta= 0.30
     Davidson diagonalization with overlap
     ethr =  5.25E-11,  avg # of iterations =  1.5

     total cpu time spent up to now is      117.3 secs

     total energy              =    -360.96370971 Ry
     estimated scf accuracy    <       0.00000002 Ry

     iteration # 21     ecut=    50.00 Ry     beta= 0.30
     Davidson diagonalization with overlap
     ethr =  5.16E-11,  avg # of iterations =  2.0

     total cpu time spent up to now is      121.0 secs

     End of self-consistent calculation

     Number of k-points >= 100: set verbosity='high' to print the bands.

     highest occupied level (ev):    14.5045

!    total energy              =    -360.96370971 Ry
     estimated scf accuracy    <          6.2E-09 Ry

     The total energy is the sum of the following terms:
     one-electron contribution =    -107.16813416 Ry
     hartree contribution      =     100.17571336 Ry
     xc contribution           =    -109.92931527 Ry
     ewald contribution        =    -244.04197363 Ry

     convergence has been achieved in  21 iterations

     Forces acting on atoms (cartesian axes, Ry/au):

     atom    1 type  1   force =     0.07601560   -0.05060307   -0.16458795
     atom    2 type  1   force =    -0.03492497    0.00060921   -0.00697763
     atom    3 type  2   force =     0.03399083   -0.03201006    0.15738035
     atom    4 type  2   force =    -0.07508146    0.08200391    0.01418523
     The non-local contrib.  to forces
     atom    1 type  1   force =     0.19479781   -0.14813837    0.08980710
     atom    2 type  1   force =    -0.07778275   -0.14421633   -0.42069229
     atom    3 type  2   force =     0.53816770    1.51949140   -0.32214929
     atom    4 type  2   force =    -0.46493410   -1.64122386    0.19014418
     The ionic contribution  to forces
     atom    1 type  1   force =     0.75192238   -1.04486489   -6.97737184
     atom    2 type  1   force =    -1.35690474    0.11144040   -0.86077872
     atom    3 type  2   force =     0.47415169   -3.93342071    5.78470375
     atom    4 type  2   force =     0.13083066    4.86684519    2.05344682
     The local contribution  to forces
     atom    1 type  1   force =    -0.85500320    1.12605011    6.69717107
     atom    2 type  1   force =     1.39224043    0.02770103    1.26617366
     atom    3 type  2   force =    -0.97215957    2.39695363   -5.30756072
     atom    4 type  2   force =     0.25391239   -3.15925461   -2.22625126
     The core correction contribution to forces
     atom    1 type  1   force =    -0.01569050    0.01633290    0.02564122
     atom    2 type  1   force =     0.00752419    0.00568567    0.00835459
     atom    3 type  2   force =    -0.00618904   -0.01508486    0.00257323
     atom    4 type  2   force =     0.00509658    0.01561126   -0.00307263
     The Hubbard contrib.    to forces
     atom    1 type  1   force =     0.00000000    0.00000000    0.00000000
     atom    2 type  1   force =     0.00000000    0.00000000    0.00000000
     atom    3 type  2   force =     0.00000000    0.00000000    0.00000000
     atom    4 type  2   force =     0.00000000    0.00000000    0.00000000
     The SCF correction term to forces
     atom    1 type  1   force =    -0.00001641    0.00000643    0.00019777
     atom    2 type  1   force =    -0.00000761   -0.00001231   -0.00000158
     atom    3 type  2   force =     0.00001453    0.00003974   -0.00015335
     atom    4 type  2   force =     0.00000749    0.00001519   -0.00004860

     Total force =     0.276059     Total SCF correction =     0.000260

     Writing all to output data dir ./ZnO_ANN.save/

     init_run     :      2.88s CPU      2.96s WALL (       1 calls)
     electrons    :    114.83s CPU    117.59s WALL (       1 calls)
     forces       :      0.84s CPU      0.85s WALL (       1 calls)

     Called by init_run:
     wfcinit      :      2.02s CPU      2.07s WALL (       1 calls)
     potinit      :      0.19s CPU      0.20s WALL (       1 calls)
     hinit0       :      0.61s CPU      0.62s WALL (       1 calls)

     Called by electrons:
     c_bands      :    102.94s CPU    105.32s WALL (      21 calls)
     sum_band     :     10.68s CPU     11.03s WALL (      21 calls)
     v_of_rho     :      0.24s CPU      0.26s WALL (      22 calls)
     newd         :      0.94s CPU      0.96s WALL (      22 calls)
     mix_rho      :      0.04s CPU      0.04s WALL (      21 calls)

     Called by c_bands:
     init_us_2    :      0.83s CPU      0.84s WALL (    4928 calls)
     init_us_2:cp :      0.81s CPU      0.83s WALL (    4928 calls)
     cegterg      :    100.36s CPU    102.68s WALL (    2352 calls)

     Called by *egterg:
     cdiaghg      :     15.32s CPU     15.50s WALL (   13788 calls)
     h_psi        :     55.76s CPU     57.46s WALL (   13900 calls)
     s_psi        :      7.39s CPU      7.49s WALL (   13900 calls)
     g_psi        :      0.20s CPU      0.20s WALL (   11436 calls)

     Called by h_psi:
     h_psi:calbec :      7.88s CPU      8.22s WALL (   13900 calls)
     vloc_psi     :     40.24s CPU     41.49s WALL (   13900 calls)
     add_vuspsi   :      7.42s CPU      7.52s WALL (   13900 calls)

     General routines
     calbec       :     10.71s CPU     11.17s WALL (   16700 calls)
     fft          :      0.49s CPU      0.52s WALL (     295 calls)
     ffts         :      0.05s CPU      0.06s WALL (      43 calls)
     fftw         :     40.34s CPU     41.60s WALL (  308342 calls)
     interpolate  :      0.06s CPU      0.06s WALL (      22 calls)

     Parallel routines

     PWSCF        :   1m59.23s CPU   2m 2.21s WALL


   This run was terminated on:  14:36:27  24Jun2025            

=------------------------------------------------------------------------------=
   JOB DONE.
=------------------------------------------------------------------------------=
Note: The following floating-point exceptions are signalling: IEEE_INVALID_FLAG
