
     Program PWSCF v.7.2 starts on 24Jun2025 at 18:26: 3 

     This program is part of the open-source Quantum ESPRESSO suite
     for quantum simulation of materials; please cite
         "P. Giannozzi et al., J. Phys.:Condens. Matter 21 395502 (2009);
         "P. Giannozzi et al., J. Phys.:Condens. Matter 29 465901 (2017);
         "P. Giannozzi et al., J. Chem. Phys. 152 154105 (2020);
          URL http://www.quantum-espresso.org", 
     in publications or presentations arising from this work. More details at
     http://www.quantum-espresso.org/quote

     Parallel version (MPI), running on     8 processors

     MPI processes distributed on     1 nodes
     90853 MiB available memory on the printing compute node when the environment starts

     Reading input from /home/jvc/QEspresso7.2/ZnO_DataBase/scf_025_NOSYM.in/scf-6.43-1.61-0.25-4.in

     Current dimensions of program PWSCF are:
     Max number of different atomic species (ntypx) = 10
     Max number of k-points (npk) =  40000
     Max angular momentum in pseudopotentials (lmaxx) =  4
     file Zn.upf: wavefunction(s)  3D renormalized

     R & G space division:  proc/nbgrp/npool/nimage =       8
     Subspace diagonalization in iterative solution of the eigenvalue problem:
     a serial algorithm will be used


     Parallelization info
     --------------------
     sticks:   dense  smooth     PW     G-vecs:    dense   smooth      PW
     Min         143      71     20                 6229     2189     360
     Max         145      73     21                 6232     2190     367
     Sum        1147     571    163                49835    17513    2899

     Using Slab Decomposition



     bravais-lattice index     =            0
     lattice parameter (alat)  =       6.4260  a.u.
     unit-cell volume          =     367.6779 (a.u.)^3
     number of atoms/cell      =            4
     number of atomic types    =            2
     number of electrons       =        36.00
     number of Kohn-Sham states=           18
     kinetic-energy cutoff     =      50.0000  Ry
     charge density cutoff     =     400.0000  Ry
     scf convergence threshold =      1.0E-08
     mixing beta               =       0.3000
     number of iterations used =            8  plain     mixing
     Exchange-correlation= PBE
                           (   1   4   3   4   0   0   0)

     celldm(1)=   6.425974  celldm(2)=   0.000000  celldm(3)=   0.000000
     celldm(4)=   0.000000  celldm(5)=   0.000000  celldm(6)=   0.000000

     crystal axes: (cart. coord. in units of alat)
               a(1) = (   1.000000   0.000000   0.000000 )  
               a(2) = (  -0.500000   0.866025   0.000000 )  
               a(3) = (   0.000000   0.000000   1.600000 )  

     reciprocal axes: (cart. coord. in units 2 pi/alat)
               b(1) = (  1.000000  0.577350 -0.000000 )  
               b(2) = (  0.000000  1.154701  0.000000 )  
               b(3) = (  0.000000 -0.000000  0.625000 )  


     PseudoPot. # 1 for Zn read from file:
     ./pseudos/Zn.upf
     MD5 check sum: 7f56cabf9682ed8c977c2f7d0c5985c5
     Pseudo is Ultrasoft + core correction, Zval = 12.0
     Generated using &quot;atomic&quot; code by A. Dal Corso  v.6.2.2
     Using radial grid of 1201 points,  6 beta functions with: 
                l(1) =   0
                l(2) =   0
                l(3) =   1
                l(4) =   1
                l(5) =   2
                l(6) =   2
     Q(r) pseudized with 0 coefficients 


     PseudoPot. # 2 for O  read from file:
     ./pseudos/O.upf
     MD5 check sum: 91400c9766925bcf19f520983a725ff0
     Pseudo is Ultrasoft + core correction, Zval =  6.0
     Generated using &quot;atomic&quot; code by A. Dal Corso  v.6.3MaX
     Using radial grid of 1095 points,  4 beta functions with: 
                l(1) =   0
                l(2) =   0
                l(3) =   1
                l(4) =   1
     Q(r) pseudized with 0 coefficients 


     atomic species   valence    mass     pseudopotential
        Zn            12.00    63.38000     Zn( 1.00)
        O              6.00    15.99900     O ( 1.00)

     No symmetry found



   Cartesian axes

     site n.     atom                  positions (alat units)
         1           Zn  tau(   1) = (   0.2953088   0.2925066   0.5422208  )
         2           Zn  tau(   2) = (  -0.2195748   0.6680905   0.1058869  )
         3           O   tau(   3) = (   0.3907122   0.1354979   1.2387810  )
         4           O   tau(   4) = (  -0.1653946   0.7856601   0.4945593  )

     number of k points=   112

     Number of k-points >= 100: set verbosity='high' to print them.

     Dense  grid:    49835 G-vectors     FFT dimensions: (  45,  45,  72)

     Smooth grid:    17513 G-vectors     FFT dimensions: (  30,  30,  48)

     Estimated max dynamical RAM per process >      34.06 MB

     Estimated total dynamical RAM >     272.46 MB

     Check: negative core charge=   -0.000002

     Initial potential from superposition of free atoms

     starting charge      35.9925, renormalised to      36.0000
     Starting wfcs are   26 randomized atomic wfcs

     total cpu time spent up to now is        4.4 secs

     Self-consistent Calculation

     iteration #  1     ecut=    50.00 Ry     beta= 0.30
     Davidson diagonalization with overlap
     ethr =  1.00E-02,  avg # of iterations =  2.6

     total cpu time spent up to now is       10.3 secs

     total energy              =    -359.99798814 Ry
     estimated scf accuracy    <       1.54410392 Ry

     iteration #  2     ecut=    50.00 Ry     beta= 0.30
     Davidson diagonalization with overlap
     ethr =  4.29E-03,  avg # of iterations =  5.4

     total cpu time spent up to now is       17.5 secs

     total energy              =    -360.20743681 Ry
     estimated scf accuracy    <       0.23408335 Ry

     iteration #  3     ecut=    50.00 Ry     beta= 0.30
     Davidson diagonalization with overlap
     ethr =  6.50E-04,  avg # of iterations =  5.7

     total cpu time spent up to now is       27.6 secs

     total energy              =    -360.32867432 Ry
     estimated scf accuracy    <       0.09188688 Ry

     iteration #  4     ecut=    50.00 Ry     beta= 0.30
     Davidson diagonalization with overlap
     ethr =  2.55E-04,  avg # of iterations =  4.4

     total cpu time spent up to now is       34.3 secs

     total energy              =    -360.33948919 Ry
     estimated scf accuracy    <       0.01504084 Ry

     iteration #  5     ecut=    50.00 Ry     beta= 0.30
     Davidson diagonalization with overlap
     c_bands:  3 eigenvalues not converged
     c_bands:  1 eigenvalues not converged
     c_bands:  1 eigenvalues not converged
     ethr =  4.18E-05,  avg # of iterations =  8.9

     total cpu time spent up to now is       46.4 secs

     total energy              =    -360.35058767 Ry
     estimated scf accuracy    <       0.03915574 Ry

     iteration #  6     ecut=    50.00 Ry     beta= 0.30
     Davidson diagonalization with overlap
     ethr =  4.18E-05,  avg # of iterations =  6.2

     total cpu time spent up to now is       53.4 secs

     total energy              =    -360.34629543 Ry
     estimated scf accuracy    <       0.01526128 Ry

     iteration #  7     ecut=    50.00 Ry     beta= 0.30
     Davidson diagonalization with overlap
     c_bands:  1 eigenvalues not converged
     ethr =  4.18E-05,  avg # of iterations =  4.8

     total cpu time spent up to now is       61.7 secs

     total energy              =    -360.35080997 Ry
     estimated scf accuracy    <       0.00228889 Ry

     iteration #  8     ecut=    50.00 Ry     beta= 0.30
     Davidson diagonalization with overlap
     ethr =  6.36E-06,  avg # of iterations =  6.3

     total cpu time spent up to now is       69.2 secs

     total energy              =    -360.35086786 Ry
     estimated scf accuracy    <       0.00103477 Ry

     iteration #  9     ecut=    50.00 Ry     beta= 0.30
     Davidson diagonalization with overlap
     c_bands:  1 eigenvalues not converged
     ethr =  2.87E-06,  avg # of iterations =  5.8

     total cpu time spent up to now is       79.0 secs

     total energy              =    -360.35127049 Ry
     estimated scf accuracy    <       0.00143842 Ry

     iteration # 10     ecut=    50.00 Ry     beta= 0.30
     Davidson diagonalization with overlap
     ethr =  2.87E-06,  avg # of iterations =  1.7

     total cpu time spent up to now is       84.2 secs

     total energy              =    -360.35105346 Ry
     estimated scf accuracy    <       0.00067564 Ry

     iteration # 11     ecut=    50.00 Ry     beta= 0.30
     Davidson diagonalization with overlap
     c_bands:  1 eigenvalues not converged
     ethr =  1.88E-06,  avg # of iterations =  5.4

     total cpu time spent up to now is       93.0 secs

     total energy              =    -360.35133461 Ry
     estimated scf accuracy    <       0.00006162 Ry

     iteration # 12     ecut=    50.00 Ry     beta= 0.30
     Davidson diagonalization with overlap
     c_bands:  1 eigenvalues not converged
     c_bands:  2 eigenvalues not converged
     c_bands:  1 eigenvalues not converged
     ethr =  1.71E-07,  avg # of iterations =  8.3

     total cpu time spent up to now is      101.7 secs

     total energy              =    -360.35136522 Ry
     estimated scf accuracy    <       0.00020850 Ry

     iteration # 13     ecut=    50.00 Ry     beta= 0.30
     Davidson diagonalization with overlap
     c_bands:  1 eigenvalues not converged
     ethr =  1.71E-07,  avg # of iterations =  1.2

     total cpu time spent up to now is      106.6 secs

     total energy              =    -360.35137824 Ry
     estimated scf accuracy    <       0.00028959 Ry

     iteration # 14     ecut=    50.00 Ry     beta= 0.30
     Davidson diagonalization with overlap
     ethr =  1.71E-07,  avg # of iterations =  4.5

     total cpu time spent up to now is      113.0 secs

     total energy              =    -360.35138401 Ry
     estimated scf accuracy    <       0.00010820 Ry

     iteration # 15     ecut=    50.00 Ry     beta= 0.30
     Davidson diagonalization with overlap
     ethr =  1.71E-07,  avg # of iterations =  1.7

     total cpu time spent up to now is      118.3 secs

     total energy              =    -360.35138040 Ry
     estimated scf accuracy    <       0.00009208 Ry

     iteration # 16     ecut=    50.00 Ry     beta= 0.30
     Davidson diagonalization with overlap
     ethr =  1.71E-07,  avg # of iterations =  2.3

     total cpu time spent up to now is      124.4 secs

     total energy              =    -360.35138088 Ry
     estimated scf accuracy    <       0.00007328 Ry

     iteration # 17     ecut=    50.00 Ry     beta= 0.30
     Davidson diagonalization with overlap
     ethr =  1.71E-07,  avg # of iterations =  1.9

     total cpu time spent up to now is      129.8 secs

     total energy              =    -360.35138216 Ry
     estimated scf accuracy    <       0.00005196 Ry

     iteration # 18     ecut=    50.00 Ry     beta= 0.30
     Davidson diagonalization with overlap
     ethr =  1.44E-07,  avg # of iterations =  1.2

     total cpu time spent up to now is      134.9 secs

     total energy              =    -360.35138269 Ry
     estimated scf accuracy    <       0.00004538 Ry

     iteration # 19     ecut=    50.00 Ry     beta= 0.30
     Davidson diagonalization with overlap
     ethr =  1.26E-07,  avg # of iterations =  1.4

     total cpu time spent up to now is      139.9 secs

     total energy              =    -360.35138512 Ry
     estimated scf accuracy    <       0.00004002 Ry

     iteration # 20     ecut=    50.00 Ry     beta= 0.30
     Davidson diagonalization with overlap
     ethr =  1.11E-07,  avg # of iterations =  1.1

     total cpu time spent up to now is      144.9 secs

     total energy              =    -360.35138408 Ry
     estimated scf accuracy    <       0.00004361 Ry

     iteration # 21     ecut=    50.00 Ry     beta= 0.30
     Davidson diagonalization with overlap
     ethr =  1.11E-07,  avg # of iterations =  1.0

     total cpu time spent up to now is      149.9 secs

     total energy              =    -360.35137380 Ry
     estimated scf accuracy    <       0.00003789 Ry

     iteration # 22     ecut=    50.00 Ry     beta= 0.30
     Davidson diagonalization with overlap
     c_bands:  1 eigenvalues not converged
     c_bands:  1 eigenvalues not converged
     c_bands:  1 eigenvalues not converged
     c_bands:  2 eigenvalues not converged
     ethr =  1.05E-07,  avg # of iterations = 11.7

     total cpu time spent up to now is      163.9 secs

     total energy              =    -360.35139573 Ry
     estimated scf accuracy    <       0.00031725 Ry

     iteration # 23     ecut=    50.00 Ry     beta= 0.30
     Davidson diagonalization with overlap
     ethr =  1.05E-07,  avg # of iterations =  2.7

     total cpu time spent up to now is      169.8 secs

     total energy              =    -360.35130146 Ry
     estimated scf accuracy    <       0.00020635 Ry

     iteration # 24     ecut=    50.00 Ry     beta= 0.30
     Davidson diagonalization with overlap
     c_bands:  2 eigenvalues not converged
     c_bands:  2 eigenvalues not converged
     c_bands:  1 eigenvalues not converged
     c_bands:  1 eigenvalues not converged
     ethr =  1.05E-07,  avg # of iterations = 12.8

     total cpu time spent up to now is      185.6 secs

     total energy              =    -360.35139224 Ry
     estimated scf accuracy    <       0.00020047 Ry

     iteration # 25     ecut=    50.00 Ry     beta= 0.30
     Davidson diagonalization with overlap
     ethr =  1.05E-07,  avg # of iterations =  2.9

     total cpu time spent up to now is      191.5 secs

     total energy              =    -360.35136029 Ry
     estimated scf accuracy    <       0.00013519 Ry

     iteration # 26     ecut=    50.00 Ry     beta= 0.30
     Davidson diagonalization with overlap
     c_bands:  1 eigenvalues not converged
     ethr =  1.05E-07,  avg # of iterations =  7.9

     total cpu time spent up to now is      200.1 secs

     total energy              =    -360.35138016 Ry
     estimated scf accuracy    <       0.00002413 Ry

     iteration # 27     ecut=    50.00 Ry     beta= 0.30
     Davidson diagonalization with overlap
     ethr =  6.70E-08,  avg # of iterations =  2.1

     total cpu time spent up to now is      205.8 secs

     total energy              =    -360.35138002 Ry
     estimated scf accuracy    <       0.00001335 Ry

     iteration # 28     ecut=    50.00 Ry     beta= 0.30
     Davidson diagonalization with overlap
     ethr =  3.71E-08,  avg # of iterations =  3.4

     total cpu time spent up to now is      212.1 secs

     total energy              =    -360.35138050 Ry
     estimated scf accuracy    <       0.00000361 Ry

     iteration # 29     ecut=    50.00 Ry     beta= 0.30
     Davidson diagonalization with overlap
     c_bands:  1 eigenvalues not converged
     ethr =  1.00E-08,  avg # of iterations =  9.5

     total cpu time spent up to now is      222.5 secs

     total energy              =    -360.35138321 Ry
     estimated scf accuracy    <       0.00000673 Ry

     iteration # 30     ecut=    50.00 Ry     beta= 0.30
     Davidson diagonalization with overlap
     ethr =  1.00E-08,  avg # of iterations =  1.3

     total cpu time spent up to now is      227.6 secs

     total energy              =    -360.35138239 Ry
     estimated scf accuracy    <       0.00000486 Ry

     iteration # 31     ecut=    50.00 Ry     beta= 0.30
     Davidson diagonalization with overlap
     ethr =  1.00E-08,  avg # of iterations =  6.4

     total cpu time spent up to now is      234.6 secs

     total energy              =    -360.35138328 Ry
     estimated scf accuracy    <       0.00000054 Ry

     iteration # 32     ecut=    50.00 Ry     beta= 0.30
     Davidson diagonalization with overlap
     c_bands:  2 eigenvalues not converged
     ethr =  1.51E-09,  avg # of iterations =  5.4

     total cpu time spent up to now is      241.6 secs

     total energy              =    -360.35138336 Ry
     estimated scf accuracy    <       0.00000084 Ry

     iteration # 33     ecut=    50.00 Ry     beta= 0.30
     Davidson diagonalization with overlap
     ethr =  1.51E-09,  avg # of iterations =  1.6

     total cpu time spent up to now is      246.8 secs

     total energy              =    -360.35138340 Ry
     estimated scf accuracy    <       0.00000081 Ry

     iteration # 34     ecut=    50.00 Ry     beta= 0.30
     Davidson diagonalization with overlap
     ethr =  1.51E-09,  avg # of iterations =  1.2

     total cpu time spent up to now is      251.7 secs

     total energy              =    -360.35138333 Ry
     estimated scf accuracy    <       0.00000090 Ry

     iteration # 35     ecut=    50.00 Ry     beta= 0.30
     Davidson diagonalization with overlap
     ethr =  1.51E-09,  avg # of iterations =  1.3

     total cpu time spent up to now is      256.7 secs

     total energy              =    -360.35138326 Ry
     estimated scf accuracy    <       0.00000081 Ry

     iteration # 36     ecut=    50.00 Ry     beta= 0.30
     Davidson diagonalization with overlap
     ethr =  1.51E-09,  avg # of iterations =  2.0

     total cpu time spent up to now is      262.6 secs

     total energy              =    -360.35138329 Ry
     estimated scf accuracy    <       0.00000059 Ry

     iteration # 37     ecut=    50.00 Ry     beta= 0.30
     Davidson diagonalization with overlap
     ethr =  1.51E-09,  avg # of iterations =  1.0

     total cpu time spent up to now is      267.4 secs

     total energy              =    -360.35138325 Ry
     estimated scf accuracy    <       0.00000052 Ry

     iteration # 38     ecut=    50.00 Ry     beta= 0.30
     Davidson diagonalization with overlap
     ethr =  1.45E-09,  avg # of iterations =  1.2

     total cpu time spent up to now is      272.4 secs

     total energy              =    -360.35138323 Ry
     estimated scf accuracy    <       0.00000038 Ry

     iteration # 39     ecut=    50.00 Ry     beta= 0.30
     Davidson diagonalization with overlap
     ethr =  1.06E-09,  avg # of iterations =  1.8

     total cpu time spent up to now is      277.6 secs

     total energy              =    -360.35138318 Ry
     estimated scf accuracy    <       0.00000024 Ry

     iteration # 40     ecut=    50.00 Ry     beta= 0.30
     Davidson diagonalization with overlap
     ethr =  6.54E-10,  avg # of iterations =  8.1

     total cpu time spent up to now is      285.4 secs

     total energy              =    -360.35138326 Ry
     estimated scf accuracy    <       0.00000014 Ry

     iteration # 41     ecut=    50.00 Ry     beta= 0.30
     Davidson diagonalization with overlap
     ethr =  4.03E-10,  avg # of iterations =  1.2

     total cpu time spent up to now is      290.5 secs

     total energy              =    -360.35138326 Ry
     estimated scf accuracy    <       0.00000011 Ry

     iteration # 42     ecut=    50.00 Ry     beta= 0.30
     Davidson diagonalization with overlap
     ethr =  3.10E-10,  avg # of iterations =  1.0

     total cpu time spent up to now is      295.4 secs

     total energy              =    -360.35138325 Ry
     estimated scf accuracy    <       0.00000011 Ry

     iteration # 43     ecut=    50.00 Ry     beta= 0.30
     Davidson diagonalization with overlap
     ethr =  2.92E-10,  avg # of iterations =  1.2

     total cpu time spent up to now is      300.3 secs

     total energy              =    -360.35138325 Ry
     estimated scf accuracy    <       0.00000007 Ry

     iteration # 44     ecut=    50.00 Ry     beta= 0.30
     Davidson diagonalization with overlap
     ethr =  2.06E-10,  avg # of iterations =  3.1

     total cpu time spent up to now is      306.1 secs

     total energy              =    -360.35138325 Ry
     estimated scf accuracy    <       0.00000002 Ry

     iteration # 45     ecut=    50.00 Ry     beta= 0.30
     Davidson diagonalization with overlap
     ethr =  6.14E-11,  avg # of iterations =  6.6

     total cpu time spent up to now is      313.3 secs

     End of self-consistent calculation

     Number of k-points >= 100: set verbosity='high' to print the bands.

     highest occupied level (ev):     6.9474

!    total energy              =    -360.35138326 Ry
     estimated scf accuracy    <          2.9E-09 Ry

     The total energy is the sum of the following terms:
     one-electron contribution =    -233.27184393 Ry
     hartree contribution      =     153.50954855 Ry
     xc contribution           =    -109.84099363 Ry
     ewald contribution        =    -170.74809425 Ry

     convergence has been achieved in  45 iterations

     Forces acting on atoms (cartesian axes, Ry/au):

     atom    1 type  1   force =    -0.19447828    1.83295484    0.40469492
     atom    2 type  1   force =    -0.14104911   -0.34495786   -1.21647610
     atom    3 type  2   force =     0.00149401    0.02218228    0.06422910
     atom    4 type  2   force =     0.33403338   -1.51017926    0.74755209
     The non-local contrib.  to forces
     atom    1 type  1   force =    -0.16787149    1.12453250   -0.08703983
     atom    2 type  1   force =    -0.17949332   -0.42767804   -0.12587080
     atom    3 type  2   force =    -0.15526068   -0.17471764    0.55364657
     atom    4 type  2   force =    -0.13935815    0.33279666   -0.99687891
     The ionic contribution  to forces
     atom    1 type  1   force =    -1.91628273   19.06913293   18.15465801
     atom    2 type  1   force =    -2.61419532   -8.62709382  -28.83868136
     atom    3 type  2   force =     1.06990142    1.96367969   -5.32086895
     atom    4 type  2   force =     3.46057662  -12.40571879   16.00489231
     The local contribution  to forces
     atom    1 type  1   force =     1.86871348  -18.14746884  -17.62790821
     atom    2 type  1   force =     2.62615884    8.63974429   27.61642136
     atom    3 type  2   force =    -0.91456075   -1.76809094    4.83664667
     atom    4 type  2   force =    -2.98683560   10.55875898  -14.26501053
     The core correction contribution to forces
     atom    1 type  1   force =     0.02095186   -0.21315220   -0.03495396
     atom    2 type  1   force =     0.02647430    0.07004659    0.13142637
     atom    3 type  2   force =     0.00142552    0.00130150   -0.00513606
     atom    4 type  2   force =    -0.00034730    0.00396087    0.00457777
     The Hubbard contrib.    to forces
     atom    1 type  1   force =     0.00000000    0.00000000    0.00000000
     atom    2 type  1   force =     0.00000000    0.00000000    0.00000000
     atom    3 type  2   force =     0.00000000    0.00000000    0.00000000
     atom    4 type  2   force =     0.00000000    0.00000000    0.00000000
     The SCF correction term to forces
     atom    1 type  1   force =     0.00001341   -0.00010382   -0.00003655
     atom    2 type  1   force =     0.00000920    0.00000885    0.00025288
     atom    3 type  2   force =    -0.00000870   -0.00000460   -0.00003457
     atom    4 type  2   force =     0.00000062    0.00000875   -0.00000401

     Total force =     2.852315     Total SCF correction =     0.000279

     Writing all to output data dir ./ZnO_ANN.save/

     init_run     :      3.84s CPU      3.92s WALL (       1 calls)
     electrons    :    303.76s CPU    308.97s WALL (       1 calls)
     forces       :      1.26s CPU      1.27s WALL (       1 calls)

     Called by init_run:
     wfcinit      :      2.77s CPU      2.82s WALL (       1 calls)
     potinit      :      0.40s CPU      0.41s WALL (       1 calls)
     hinit0       :      0.57s CPU      0.58s WALL (       1 calls)

     Called by electrons:
     c_bands      :    264.39s CPU    268.78s WALL (      45 calls)
     sum_band     :     35.47s CPU     36.19s WALL (      45 calls)
     v_of_rho     :      0.87s CPU      0.94s WALL (      46 calls)
     newd         :      2.86s CPU      2.89s WALL (      46 calls)
     mix_rho      :      0.14s CPU      0.16s WALL (      45 calls)

     Called by c_bands:
     init_us_2    :      2.48s CPU      2.52s WALL (   10304 calls)
     init_us_2:cp :      2.45s CPU      2.49s WALL (   10304 calls)
     cegterg      :    256.08s CPU    260.36s WALL (    5040 calls)

     Called by *egterg:
     cdiaghg      :     25.67s CPU     25.89s WALL (   25133 calls)
     h_psi        :    152.72s CPU    155.93s WALL (   25245 calls)
     s_psi        :     17.41s CPU     17.55s WALL (   25245 calls)
     g_psi        :      0.49s CPU      0.49s WALL (   20093 calls)

     Called by h_psi:
     h_psi:calbec :     21.19s CPU     21.80s WALL (   25245 calls)
     vloc_psi     :    113.58s CPU    116.05s WALL (   25245 calls)
     add_vuspsi   :     17.46s CPU     17.60s WALL (   25245 calls)

     General routines
     calbec       :     29.66s CPU     30.46s WALL (   30733 calls)
     fft          :      1.00s CPU      1.10s WALL (     607 calls)
     ffts         :      0.17s CPU      0.17s WALL (      91 calls)
     fftw         :    119.17s CPU    121.74s WALL (  575456 calls)
     interpolate  :      0.20s CPU      0.21s WALL (      46 calls)

     Parallel routines

     PWSCF        :   5m 9.61s CPU   5m15.18s WALL


   This run was terminated on:  18:31:18  24Jun2025            

=------------------------------------------------------------------------------=
   JOB DONE.
=------------------------------------------------------------------------------=
Note: The following floating-point exceptions are signalling: IEEE_INVALID_FLAG
