
     Program PWSCF v.7.2 starts on 24Jun2025 at 18:20:25 

     This program is part of the open-source Quantum ESPRESSO suite
     for quantum simulation of materials; please cite
         "P. Giannozzi et al., J. Phys.:Condens. Matter 21 395502 (2009);
         "P. Giannozzi et al., J. Phys.:Condens. Matter 29 465901 (2017);
         "P. Giannozzi et al., J. Chem. Phys. 152 154105 (2020);
          URL http://www.quantum-espresso.org", 
     in publications or presentations arising from this work. More details at
     http://www.quantum-espresso.org/quote

     Parallel version (MPI), running on     8 processors

     MPI processes distributed on     1 nodes
     91160 MiB available memory on the printing compute node when the environment starts

     Reading input from /home/jvc/QEspresso7.2/ZnO_DataBase/scf_025_NOSYM.in/scf-6.43-1.58-0.25-3.in

     Current dimensions of program PWSCF are:
     Max number of different atomic species (ntypx) = 10
     Max number of k-points (npk) =  40000
     Max angular momentum in pseudopotentials (lmaxx) =  4
     file Zn.upf: wavefunction(s)  3D renormalized

     R & G space division:  proc/nbgrp/npool/nimage =       8
     Subspace diagonalization in iterative solution of the eigenvalue problem:
     a serial algorithm will be used


     Parallelization info
     --------------------
     sticks:   dense  smooth     PW     G-vecs:    dense   smooth      PW
     Min         143      71     20                 6229     2189     360
     Max         145      73     21                 6232     2190     367
     Sum        1147     571    163                49835    17513    2899

     Using Slab Decomposition



     bravais-lattice index     =            0
     lattice parameter (alat)  =       6.4260  a.u.
     unit-cell volume          =     367.6779 (a.u.)^3
     number of atoms/cell      =            4
     number of atomic types    =            2
     number of electrons       =        36.00
     number of Kohn-Sham states=           18
     kinetic-energy cutoff     =      50.0000  Ry
     charge density cutoff     =     400.0000  Ry
     scf convergence threshold =      1.0E-08
     mixing beta               =       0.3000
     number of iterations used =            8  plain     mixing
     Exchange-correlation= PBE
                           (   1   4   3   4   0   0   0)

     celldm(1)=   6.425974  celldm(2)=   0.000000  celldm(3)=   0.000000
     celldm(4)=   0.000000  celldm(5)=   0.000000  celldm(6)=   0.000000

     crystal axes: (cart. coord. in units of alat)
               a(1) = (   1.000000   0.000000   0.000000 )  
               a(2) = (  -0.500000   0.866025   0.000000 )  
               a(3) = (   0.000000   0.000000   1.600000 )  

     reciprocal axes: (cart. coord. in units 2 pi/alat)
               b(1) = (  1.000000  0.577350 -0.000000 )  
               b(2) = (  0.000000  1.154701  0.000000 )  
               b(3) = (  0.000000 -0.000000  0.625000 )  


     PseudoPot. # 1 for Zn read from file:
     ./pseudos/Zn.upf
     MD5 check sum: 7f56cabf9682ed8c977c2f7d0c5985c5
     Pseudo is Ultrasoft + core correction, Zval = 12.0
     Generated using &quot;atomic&quot; code by A. Dal Corso  v.6.2.2
     Using radial grid of 1201 points,  6 beta functions with: 
                l(1) =   0
                l(2) =   0
                l(3) =   1
                l(4) =   1
                l(5) =   2
                l(6) =   2
     Q(r) pseudized with 0 coefficients 


     PseudoPot. # 2 for O  read from file:
     ./pseudos/O.upf
     MD5 check sum: 91400c9766925bcf19f520983a725ff0
     Pseudo is Ultrasoft + core correction, Zval =  6.0
     Generated using &quot;atomic&quot; code by A. Dal Corso  v.6.3MaX
     Using radial grid of 1095 points,  4 beta functions with: 
                l(1) =   0
                l(2) =   0
                l(3) =   1
                l(4) =   1
     Q(r) pseudized with 0 coefficients 


     atomic species   valence    mass     pseudopotential
        Zn            12.00    63.38000     Zn( 1.00)
        O              6.00    15.99900     O ( 1.00)

     No symmetry found



   Cartesian axes

     site n.     atom                  positions (alat units)
         1           Zn  tau(   1) = (   0.7739211   0.1772893   1.1706971  )
         2           Zn  tau(   2) = (  -0.0818676   0.6112083   0.0779564  )
         3           O   tau(   3) = (   0.5785716   0.1131696   1.2768226  )
         4           O   tau(   4) = (  -0.1778513   0.6036152   0.2714468  )

     number of k points=   112

     Number of k-points >= 100: set verbosity='high' to print them.

     Dense  grid:    49835 G-vectors     FFT dimensions: (  45,  45,  72)

     Smooth grid:    17513 G-vectors     FFT dimensions: (  30,  30,  48)

     Estimated max dynamical RAM per process >      34.06 MB

     Estimated total dynamical RAM >     272.46 MB

     Check: negative core charge=   -0.000002

     Initial potential from superposition of free atoms

     starting charge      35.9925, renormalised to      36.0000
     Starting wfcs are   26 randomized atomic wfcs

     total cpu time spent up to now is        4.4 secs

     Self-consistent Calculation

     iteration #  1     ecut=    50.00 Ry     beta= 0.30
     Davidson diagonalization with overlap
     ethr =  1.00E-02,  avg # of iterations =  7.5

     total cpu time spent up to now is       15.8 secs

     total energy              =    -342.07174097 Ry
     estimated scf accuracy    <       1.14554209 Ry

     iteration #  2     ecut=    50.00 Ry     beta= 0.30
     Davidson diagonalization with overlap
     ethr =  3.18E-03,  avg # of iterations =  2.1

     total cpu time spent up to now is       22.3 secs

     total energy              =    -342.02756331 Ry
     estimated scf accuracy    <       0.33986006 Ry

     iteration #  3     ecut=    50.00 Ry     beta= 0.30
     Davidson diagonalization with overlap
     ethr =  9.44E-04,  avg # of iterations =  6.0

     total cpu time spent up to now is       32.4 secs

     total energy              =    -342.18152681 Ry
     estimated scf accuracy    <       0.23475320 Ry

     iteration #  4     ecut=    50.00 Ry     beta= 0.30
     Davidson diagonalization with overlap
     ethr =  6.52E-04,  avg # of iterations =  1.7

     total cpu time spent up to now is       37.8 secs

     total energy              =    -342.12002432 Ry
     estimated scf accuracy    <       0.10420193 Ry

     iteration #  5     ecut=    50.00 Ry     beta= 0.30
     Davidson diagonalization with overlap
     ethr =  2.89E-04,  avg # of iterations =  6.2

     total cpu time spent up to now is       48.4 secs

     total energy              =    -342.17378061 Ry
     estimated scf accuracy    <       0.11538321 Ry

     iteration #  6     ecut=    50.00 Ry     beta= 0.30
     Davidson diagonalization with overlap
     ethr =  2.89E-04,  avg # of iterations =  1.7

     total cpu time spent up to now is       53.7 secs

     total energy              =    -342.15278826 Ry
     estimated scf accuracy    <       0.04133982 Ry

     iteration #  7     ecut=    50.00 Ry     beta= 0.30
     Davidson diagonalization with overlap
     ethr =  1.15E-04,  avg # of iterations =  5.9

     total cpu time spent up to now is       63.9 secs

     total energy              =    -342.18035212 Ry
     estimated scf accuracy    <       0.03027075 Ry

     iteration #  8     ecut=    50.00 Ry     beta= 0.30
     Davidson diagonalization with overlap
     ethr =  8.41E-05,  avg # of iterations =  1.1

     total cpu time spent up to now is       69.0 secs

     total energy              =    -342.17316591 Ry
     estimated scf accuracy    <       0.01727987 Ry

     iteration #  9     ecut=    50.00 Ry     beta= 0.30
     Davidson diagonalization with overlap
     ethr =  4.80E-05,  avg # of iterations =  3.8

     total cpu time spent up to now is       75.8 secs

     total energy              =    -342.17666527 Ry
     estimated scf accuracy    <       0.00052344 Ry

     iteration # 10     ecut=    50.00 Ry     beta= 0.30
     Davidson diagonalization with overlap
     ethr =  1.45E-06,  avg # of iterations =  7.7

     total cpu time spent up to now is       89.0 secs

     total energy              =    -342.17831001 Ry
     estimated scf accuracy    <       0.00111540 Ry

     iteration # 11     ecut=    50.00 Ry     beta= 0.30
     Davidson diagonalization with overlap
     ethr =  1.45E-06,  avg # of iterations =  1.0

     total cpu time spent up to now is       93.8 secs

     total energy              =    -342.17811495 Ry
     estimated scf accuracy    <       0.00079322 Ry

     iteration # 12     ecut=    50.00 Ry     beta= 0.30
     Davidson diagonalization with overlap
     ethr =  1.45E-06,  avg # of iterations =  2.0

     total cpu time spent up to now is       99.4 secs

     total energy              =    -342.17812148 Ry
     estimated scf accuracy    <       0.00030851 Ry

     iteration # 13     ecut=    50.00 Ry     beta= 0.30
     Davidson diagonalization with overlap
     ethr =  8.57E-07,  avg # of iterations =  2.2

     total cpu time spent up to now is      105.0 secs

     total energy              =    -342.17812095 Ry
     estimated scf accuracy    <       0.00016493 Ry

     iteration # 14     ecut=    50.00 Ry     beta= 0.30
     Davidson diagonalization with overlap
     ethr =  4.58E-07,  avg # of iterations =  3.3

     total cpu time spent up to now is      111.1 secs

     total energy              =    -342.17813519 Ry
     estimated scf accuracy    <       0.00005611 Ry

     iteration # 15     ecut=    50.00 Ry     beta= 0.30
     Davidson diagonalization with overlap
     ethr =  1.56E-07,  avg # of iterations =  4.9

     total cpu time spent up to now is      118.5 secs

     total energy              =    -342.17815340 Ry
     estimated scf accuracy    <       0.00000498 Ry

     iteration # 16     ecut=    50.00 Ry     beta= 0.30
     Davidson diagonalization with overlap
     ethr =  1.38E-08,  avg # of iterations =  4.1

     total cpu time spent up to now is      125.1 secs

     total energy              =    -342.17815405 Ry
     estimated scf accuracy    <       0.00000403 Ry

     iteration # 17     ecut=    50.00 Ry     beta= 0.30
     Davidson diagonalization with overlap
     ethr =  1.12E-08,  avg # of iterations =  1.3

     total cpu time spent up to now is      130.0 secs

     total energy              =    -342.17815315 Ry
     estimated scf accuracy    <       0.00000319 Ry

     iteration # 18     ecut=    50.00 Ry     beta= 0.30
     Davidson diagonalization with overlap
     ethr =  8.85E-09,  avg # of iterations =  2.6

     total cpu time spent up to now is      135.7 secs

     total energy              =    -342.17815305 Ry
     estimated scf accuracy    <       0.00000099 Ry

     iteration # 19     ecut=    50.00 Ry     beta= 0.30
     Davidson diagonalization with overlap
     ethr =  2.75E-09,  avg # of iterations =  6.3

     total cpu time spent up to now is      144.9 secs

     total energy              =    -342.17815349 Ry
     estimated scf accuracy    <       0.00000049 Ry

     iteration # 20     ecut=    50.00 Ry     beta= 0.30
     Davidson diagonalization with overlap
     ethr =  1.37E-09,  avg # of iterations =  1.8

     total cpu time spent up to now is      150.0 secs

     total energy              =    -342.17815340 Ry
     estimated scf accuracy    <       0.00000018 Ry

     iteration # 21     ecut=    50.00 Ry     beta= 0.30
     Davidson diagonalization with overlap
     ethr =  4.99E-10,  avg # of iterations =  7.8

     total cpu time spent up to now is      162.3 secs

     total energy              =    -342.17815366 Ry
     estimated scf accuracy    <       0.00000079 Ry

     iteration # 22     ecut=    50.00 Ry     beta= 0.30
     Davidson diagonalization with overlap
     ethr =  4.99E-10,  avg # of iterations =  1.1

     total cpu time spent up to now is      167.0 secs

     total energy              =    -342.17815354 Ry
     estimated scf accuracy    <       0.00000066 Ry

     iteration # 23     ecut=    50.00 Ry     beta= 0.30
     Davidson diagonalization with overlap
     ethr =  4.99E-10,  avg # of iterations =  2.2

     total cpu time spent up to now is      172.6 secs

     total energy              =    -342.17815327 Ry
     estimated scf accuracy    <       0.00000037 Ry

     iteration # 24     ecut=    50.00 Ry     beta= 0.30
     Davidson diagonalization with overlap
     ethr =  4.99E-10,  avg # of iterations =  8.2

     total cpu time spent up to now is      185.6 secs

     total energy              =    -342.17815345 Ry
     estimated scf accuracy    <       0.00000070 Ry

     iteration # 25     ecut=    50.00 Ry     beta= 0.30
     Davidson diagonalization with overlap
     ethr =  4.99E-10,  avg # of iterations =  4.5

     total cpu time spent up to now is      193.5 secs

     total energy              =    -342.17815348 Ry
     estimated scf accuracy    <       0.00000009 Ry

     iteration # 26     ecut=    50.00 Ry     beta= 0.30
     Davidson diagonalization with overlap
     ethr =  2.42E-10,  avg # of iterations =  5.3

     total cpu time spent up to now is      201.0 secs

     End of self-consistent calculation

     Number of k-points >= 100: set verbosity='high' to print the bands.

     highest occupied level (ev):     8.2701

!    total energy              =    -342.17815350 Ry
     estimated scf accuracy    <          5.2E-10 Ry

     The total energy is the sum of the following terms:
     one-electron contribution =    -335.20680319 Ry
     hartree contribution      =     199.09822327 Ry
     xc contribution           =    -113.54001647 Ry
     ewald contribution        =     -92.52955711 Ry

     convergence has been achieved in  26 iterations

     Forces acting on atoms (cartesian axes, Ry/au):

     atom    1 type  1   force =    18.67536314    6.07518664  -10.34378326
     atom    2 type  1   force =    12.29993742    1.03181506  -24.58316116
     atom    3 type  2   force =   -18.64144251   -6.08514373    9.97320729
     atom    4 type  2   force =   -12.33385805   -1.02185796   24.95373713
     The non-local contrib.  to forces
     atom    1 type  1   force =    -6.03566490   -1.98143336    3.29340089
     atom    2 type  1   force =    -4.59569419   -0.38046366    9.09105081
     atom    3 type  2   force =     1.51012499    0.31262688   -1.01327068
     atom    4 type  2   force =     1.36303809    0.04242184   -2.61335001
     The ionic contribution  to forces
     atom    1 type  1   force =    51.19141986   15.06555360  -49.76042308
     atom    2 type  1   force =    30.65919482    1.55918792  -41.26416840
     atom    3 type  2   force =   -50.25698545  -14.38337425   17.16391873
     atom    4 type  2   force =   -31.59362923   -2.24136727   73.86067275
     The local contribution  to forces
     atom    1 type  1   force =   -25.75765342   -6.77301474   35.71779283
     atom    2 type  1   force =   -13.31356770   -0.11777437    6.70519100
     atom    3 type  2   force =    30.07546219    7.97495428   -6.16367123
     atom    4 type  2   force =    17.87635544    1.17562324  -46.25170946
     The core correction contribution to forces
     atom    1 type  1   force =    -0.72268973   -0.23590791    0.40543342
     atom    2 type  1   force =    -0.44998062   -0.02914217    0.88472340
     atom    3 type  2   force =     0.02998236    0.01065397   -0.01378979
     atom    4 type  2   force =     0.02040422    0.00146603   -0.04193940
     The Hubbard contrib.    to forces
     atom    1 type  1   force =     0.00000000    0.00000000    0.00000000
     atom    2 type  1   force =     0.00000000    0.00000000    0.00000000
     atom    3 type  2   force =     0.00000000    0.00000000    0.00000000
     atom    4 type  2   force =     0.00000000    0.00000000    0.00000000
     The SCF correction term to forces
     atom    1 type  1   force =    -0.00003519   -0.00000968   -0.00001658
     atom    2 type  1   force =    -0.00000141    0.00000862    0.00001276
     atom    3 type  2   force =    -0.00001312   -0.00000335   -0.00000901
     atom    4 type  2   force =    -0.00001309   -0.00000054    0.00003399

     Total force =    50.092018     Total SCF correction =     0.000059

     Writing all to output data dir ./ZnO_ANN.save/

     init_run     :      3.85s CPU      3.95s WALL (       1 calls)
     electrons    :    193.15s CPU    196.63s WALL (       1 calls)
     forces       :      1.26s CPU      1.27s WALL (       1 calls)

     Called by init_run:
     wfcinit      :      2.78s CPU      2.84s WALL (       1 calls)
     potinit      :      0.41s CPU      0.41s WALL (       1 calls)
     hinit0       :      0.58s CPU      0.59s WALL (       1 calls)

     Called by electrons:
     c_bands      :    170.94s CPU    173.96s WALL (      26 calls)
     sum_band     :     19.96s CPU     20.37s WALL (      26 calls)
     v_of_rho     :      0.52s CPU      0.55s WALL (      27 calls)
     newd         :      1.67s CPU      1.70s WALL (      27 calls)
     mix_rho      :      0.08s CPU      0.09s WALL (      26 calls)

     Called by c_bands:
     init_us_2    :      1.59s CPU      1.61s WALL (    6048 calls)
     init_us_2:cp :      1.57s CPU      1.59s WALL (    6048 calls)
     cegterg      :    166.14s CPU    169.09s WALL (    2912 calls)

     Called by *egterg:
     cdiaghg      :     16.06s CPU     16.19s WALL (   14377 calls)
     h_psi        :     99.71s CPU    101.99s WALL (   14489 calls)
     s_psi        :     13.40s CPU     13.49s WALL (   14489 calls)
     g_psi        :      0.34s CPU      0.35s WALL (   11465 calls)

     Called by h_psi:
     h_psi:calbec :     13.74s CPU     14.20s WALL (   14489 calls)
     vloc_psi     :     72.23s CPU     73.95s WALL (   14489 calls)
     add_vuspsi   :     13.41s CPU     13.52s WALL (   14489 calls)

     General routines
     calbec       :     18.79s CPU     19.36s WALL (   17849 calls)
     fft          :      0.52s CPU      0.56s WALL (     360 calls)
     ffts         :      0.16s CPU      0.16s WALL (      53 calls)
     fftw         :     72.66s CPU     74.37s WALL (  372166 calls)
     interpolate  :      0.18s CPU      0.18s WALL (      27 calls)

     Parallel routines

     PWSCF        :   3m18.99s CPU   3m22.87s WALL


   This run was terminated on:  18:23:48  24Jun2025            

=------------------------------------------------------------------------------=
   JOB DONE.
=------------------------------------------------------------------------------=
Note: The following floating-point exceptions are signalling: IEEE_INVALID_FLAG
