
     Program PWSCF v.7.2 starts on 24Jun2025 at 16:38: 2 

     This program is part of the open-source Quantum ESPRESSO suite
     for quantum simulation of materials; please cite
         "P. Giannozzi et al., J. Phys.:Condens. Matter 21 395502 (2009);
         "P. Giannozzi et al., J. Phys.:Condens. Matter 29 465901 (2017);
         "P. Giannozzi et al., J. Chem. Phys. 152 154105 (2020);
          URL http://www.quantum-espresso.org", 
     in publications or presentations arising from this work. More details at
     http://www.quantum-espresso.org/quote

     Parallel version (MPI), running on     8 processors

     MPI processes distributed on     1 nodes
     91081 MiB available memory on the printing compute node when the environment starts

     Reading input from /home/jvc/QEspresso7.2/ZnO_DataBase/scf_025_NOSYM.in/scf-6.06-1.71-0.25-5.in

     Current dimensions of program PWSCF are:
     Max number of different atomic species (ntypx) = 10
     Max number of k-points (npk) =  40000
     Max angular momentum in pseudopotentials (lmaxx) =  4
     file Zn.upf: wavefunction(s)  3D renormalized

     R & G space division:  proc/nbgrp/npool/nimage =       8
     Subspace diagonalization in iterative solution of the eigenvalue problem:
     a serial algorithm will be used


     Parallelization info
     --------------------
     sticks:   dense  smooth     PW     G-vecs:    dense   smooth      PW
     Min         126      63     18                 5206     1840     312
     Max         127      65     19                 5211     1843     317
     Sum        1015     511    151                41671    14737    2527

     Using Slab Decomposition



     bravais-lattice index     =            0
     lattice parameter (alat)  =       6.0552  a.u.
     unit-cell volume          =     307.6421 (a.u.)^3
     number of atoms/cell      =            4
     number of atomic types    =            2
     number of electrons       =        36.00
     number of Kohn-Sham states=           18
     kinetic-energy cutoff     =      50.0000  Ry
     charge density cutoff     =     400.0000  Ry
     scf convergence threshold =      1.0E-08
     mixing beta               =       0.3000
     number of iterations used =            8  plain     mixing
     Exchange-correlation= PBE
                           (   1   4   3   4   0   0   0)

     celldm(1)=   6.055245  celldm(2)=   0.000000  celldm(3)=   0.000000
     celldm(4)=   0.000000  celldm(5)=   0.000000  celldm(6)=   0.000000

     crystal axes: (cart. coord. in units of alat)
               a(1) = (   1.000000   0.000000   0.000000 )  
               a(2) = (  -0.500000   0.866025   0.000000 )  
               a(3) = (   0.000000   0.000000   1.600000 )  

     reciprocal axes: (cart. coord. in units 2 pi/alat)
               b(1) = (  1.000000  0.577350 -0.000000 )  
               b(2) = (  0.000000  1.154701  0.000000 )  
               b(3) = (  0.000000 -0.000000  0.625000 )  


     PseudoPot. # 1 for Zn read from file:
     ./pseudos/Zn.upf
     MD5 check sum: 7f56cabf9682ed8c977c2f7d0c5985c5
     Pseudo is Ultrasoft + core correction, Zval = 12.0
     Generated using &quot;atomic&quot; code by A. Dal Corso  v.6.2.2
     Using radial grid of 1201 points,  6 beta functions with: 
                l(1) =   0
                l(2) =   0
                l(3) =   1
                l(4) =   1
                l(5) =   2
                l(6) =   2
     Q(r) pseudized with 0 coefficients 


     PseudoPot. # 2 for O  read from file:
     ./pseudos/O.upf
     MD5 check sum: 91400c9766925bcf19f520983a725ff0
     Pseudo is Ultrasoft + core correction, Zval =  6.0
     Generated using &quot;atomic&quot; code by A. Dal Corso  v.6.3MaX
     Using radial grid of 1095 points,  4 beta functions with: 
                l(1) =   0
                l(2) =   0
                l(3) =   1
                l(4) =   1
     Q(r) pseudized with 0 coefficients 


     atomic species   valence    mass     pseudopotential
        Zn            12.00    63.38000     Zn( 1.00)
        O              6.00    15.99900     O ( 1.00)

     No symmetry found



   Cartesian axes

     site n.     atom                  positions (alat units)
         1           Zn  tau(   1) = (   0.5594070   0.3969559   1.0960683  )
         2           Zn  tau(   2) = (  -0.0662383   0.7328615   0.0740520  )
         3           O   tau(   3) = (   0.7105082   0.2742470   1.4533007  )
         4           O   tau(   4) = (   0.1404700   0.4129918   0.3426894  )

     number of k points=   112

     Number of k-points >= 100: set verbosity='high' to print them.

     Dense  grid:    41671 G-vectors     FFT dimensions: (  40,  40,  64)

     Smooth grid:    14737 G-vectors     FFT dimensions: (  27,  27,  45)

     Estimated max dynamical RAM per process >      28.83 MB

     Estimated total dynamical RAM >     230.62 MB

     Check: negative core charge=   -0.000002

     Initial potential from superposition of free atoms

     starting charge      35.9925, renormalised to      36.0000
     Starting wfcs are   26 randomized atomic wfcs

     total cpu time spent up to now is        3.9 secs

     Self-consistent Calculation

     iteration #  1     ecut=    50.00 Ry     beta= 0.30
     Davidson diagonalization with overlap
     ethr =  1.00E-02,  avg # of iterations =  2.2

     total cpu time spent up to now is        9.2 secs

     total energy              =    -360.17354419 Ry
     estimated scf accuracy    <       1.60039023 Ry

     iteration #  2     ecut=    50.00 Ry     beta= 0.30
     Davidson diagonalization with overlap
     ethr =  4.45E-03,  avg # of iterations =  3.2

     total cpu time spent up to now is       14.9 secs

     total energy              =    -360.30841274 Ry
     estimated scf accuracy    <       0.21007064 Ry

     iteration #  3     ecut=    50.00 Ry     beta= 0.30
     Davidson diagonalization with overlap
     c_bands:  1 eigenvalues not converged
     ethr =  5.84E-04,  avg # of iterations = 11.2

     total cpu time spent up to now is       28.5 secs

     total energy              =    -360.37801367 Ry
     estimated scf accuracy    <       0.83196036 Ry

     iteration #  4     ecut=    50.00 Ry     beta= 0.30
     Davidson diagonalization with overlap
     ethr =  5.84E-04,  avg # of iterations =  8.4

     total cpu time spent up to now is       38.1 secs

     total energy              =    -360.54350964 Ry
     estimated scf accuracy    <       0.02320714 Ry

     iteration #  5     ecut=    50.00 Ry     beta= 0.30
     Davidson diagonalization with overlap
     c_bands:  2 eigenvalues not converged
     ethr =  6.45E-05,  avg # of iterations =  4.8

     total cpu time spent up to now is       44.6 secs

     total energy              =    -360.54094570 Ry
     estimated scf accuracy    <       0.01490625 Ry

     iteration #  6     ecut=    50.00 Ry     beta= 0.30
     Davidson diagonalization with overlap
     c_bands:  1 eigenvalues not converged
     ethr =  4.14E-05,  avg # of iterations = 10.3

     total cpu time spent up to now is       54.9 secs

     total energy              =    -360.54167957 Ry
     estimated scf accuracy    <       0.04964468 Ry

     iteration #  7     ecut=    50.00 Ry     beta= 0.30
     Davidson diagonalization with overlap
     ethr =  4.14E-05,  avg # of iterations =  6.9

     total cpu time spent up to now is       62.5 secs

     total energy              =    -360.54794327 Ry
     estimated scf accuracy    <       0.00104615 Ry

     iteration #  8     ecut=    50.00 Ry     beta= 0.30
     Davidson diagonalization with overlap
     c_bands:  1 eigenvalues not converged
     ethr =  2.91E-06,  avg # of iterations =  6.9

     total cpu time spent up to now is       70.6 secs

     total energy              =    -360.54834079 Ry
     estimated scf accuracy    <       0.00044782 Ry

     iteration #  9     ecut=    50.00 Ry     beta= 0.30
     Davidson diagonalization with overlap
     ethr =  1.24E-06,  avg # of iterations =  3.9

     total cpu time spent up to now is       77.2 secs

     total energy              =    -360.54845502 Ry
     estimated scf accuracy    <       0.00009818 Ry

     iteration # 10     ecut=    50.00 Ry     beta= 0.30
     Davidson diagonalization with overlap
     ethr =  2.73E-07,  avg # of iterations =  4.8

     total cpu time spent up to now is       84.1 secs

     total energy              =    -360.54847151 Ry
     estimated scf accuracy    <       0.00017556 Ry

     iteration # 11     ecut=    50.00 Ry     beta= 0.30
     Davidson diagonalization with overlap
     ethr =  2.73E-07,  avg # of iterations =  2.1

     total cpu time spent up to now is       89.2 secs

     total energy              =    -360.54842658 Ry
     estimated scf accuracy    <       0.00015903 Ry

     iteration # 12     ecut=    50.00 Ry     beta= 0.30
     Davidson diagonalization with overlap
     c_bands:  1 eigenvalues not converged
     ethr =  2.73E-07,  avg # of iterations =  6.7

     total cpu time spent up to now is       96.0 secs

     total energy              =    -360.54845160 Ry
     estimated scf accuracy    <       0.00000302 Ry

     iteration # 13     ecut=    50.00 Ry     beta= 0.30
     Davidson diagonalization with overlap
     c_bands:  1 eigenvalues not converged
     ethr =  8.40E-09,  avg # of iterations = 11.3

     total cpu time spent up to now is      109.3 secs

     total energy              =    -360.54845638 Ry
     estimated scf accuracy    <       0.00001903 Ry

     iteration # 14     ecut=    50.00 Ry     beta= 0.30
     Davidson diagonalization with overlap
     ethr =  8.40E-09,  avg # of iterations =  4.9

     total cpu time spent up to now is      115.4 secs

     total energy              =    -360.54845266 Ry
     estimated scf accuracy    <       0.00000758 Ry

     iteration # 15     ecut=    50.00 Ry     beta= 0.30
     Davidson diagonalization with overlap
     c_bands:  1 eigenvalues not converged
     ethr =  8.40E-09,  avg # of iterations = 12.6

     total cpu time spent up to now is      128.8 secs

     total energy              =    -360.54845718 Ry
     estimated scf accuracy    <       0.00001711 Ry

     iteration # 16     ecut=    50.00 Ry     beta= 0.30
     Davidson diagonalization with overlap
     ethr =  8.40E-09,  avg # of iterations =  2.1

     total cpu time spent up to now is      133.7 secs

     total energy              =    -360.54845438 Ry
     estimated scf accuracy    <       0.00001273 Ry

     iteration # 17     ecut=    50.00 Ry     beta= 0.30
     Davidson diagonalization with overlap
     ethr =  8.40E-09,  avg # of iterations =  9.0

     total cpu time spent up to now is      142.7 secs

     total energy              =    -360.54845651 Ry
     estimated scf accuracy    <       0.00000023 Ry

     iteration # 18     ecut=    50.00 Ry     beta= 0.30
     Davidson diagonalization with overlap
     c_bands:  1 eigenvalues not converged
     c_bands:  1 eigenvalues not converged
     ethr =  6.44E-10,  avg # of iterations =  6.1

     total cpu time spent up to now is      149.9 secs

     total energy              =    -360.54845657 Ry
     estimated scf accuracy    <       0.00000011 Ry

     iteration # 19     ecut=    50.00 Ry     beta= 0.30
     Davidson diagonalization with overlap
     ethr =  3.04E-10,  avg # of iterations =  4.4

     total cpu time spent up to now is      156.4 secs

     End of self-consistent calculation

     Number of k-points >= 100: set verbosity='high' to print the bands.

     highest occupied level (ev):     9.1077

!    total energy              =    -360.54845659 Ry
     estimated scf accuracy    <          2.0E-09 Ry

     The total energy is the sum of the following terms:
     one-electron contribution =    -200.57291210 Ry
     hartree contribution      =     141.03243610 Ry
     xc contribution           =    -110.08144633 Ry
     ewald contribution        =    -190.92653427 Ry

     convergence has been achieved in  19 iterations

     Forces acting on atoms (cartesian axes, Ry/au):

     atom    1 type  1   force =    -0.62082243    0.47494562   -1.55837998
     atom    2 type  1   force =    -0.28082233    0.42076112   -0.09456299
     atom    3 type  2   force =     0.58098506   -0.47098065    1.16187516
     atom    4 type  2   force =     0.32065971   -0.42472609    0.49106781
     The non-local contrib.  to forces
     atom    1 type  1   force =    -0.36423809    0.38027451   -0.78664479
     atom    2 type  1   force =    -0.60957893    0.49387716   -0.81162441
     atom    3 type  2   force =    -0.62518689    0.25158611   -0.90470825
     atom    4 type  2   force =    -0.10001014    0.42725836   -0.17478447
     The ionic contribution  to forces
     atom    1 type  1   force =    -6.83190016    5.22379470  -34.80859671
     atom    2 type  1   force =    -4.30995514    5.89221691   10.73456634
     atom    3 type  2   force =     6.88385901   -5.26946609    6.97524042
     atom    4 type  2   force =     4.25799628   -5.84654552   17.09878995
     The local contribution  to forces
     atom    1 type  1   force =     6.49952444   -5.06478365   33.85503753
     atom    2 type  1   force =     4.57529905   -5.90181169  -10.05570253
     atom    3 type  2   force =    -5.68029402    4.54666672   -4.91099648
     atom    4 type  2   force =    -3.83630460    4.99600046  -16.43095973
     The core correction contribution to forces
     atom    1 type  1   force =     0.07575376   -0.06431974    0.18165626
     atom    2 type  1   force =     0.06335843   -0.06345765    0.03821357
     atom    3 type  2   force =     0.00263265    0.00021072    0.00242504
     atom    4 type  2   force =    -0.00099749   -0.00145809   -0.00194675
     The Hubbard contrib.    to forces
     atom    1 type  1   force =     0.00000000    0.00000000    0.00000000
     atom    2 type  1   force =     0.00000000    0.00000000    0.00000000
     atom    3 type  2   force =     0.00000000    0.00000000    0.00000000
     atom    4 type  2   force =     0.00000000    0.00000000    0.00000000
     The SCF correction term to forces
     atom    1 type  1   force =     0.00005353   -0.00003298    0.00019265
     atom    2 type  1   force =     0.00007018   -0.00007639    0.00000894
     atom    3 type  2   force =    -0.00000977    0.00000910   -0.00006065
     atom    4 type  2   force =    -0.00000842    0.00000593   -0.00000627

     Total force =     2.395426     Total SCF correction =     0.000236

     Writing all to output data dir ./ZnO_ANN.save/

     init_run     :      3.35s CPU      3.43s WALL (       1 calls)
     electrons    :    149.58s CPU    152.54s WALL (       1 calls)
     forces       :      1.11s CPU      1.13s WALL (       1 calls)

     Called by init_run:
     wfcinit      :      2.49s CPU      2.53s WALL (       1 calls)
     potinit      :      0.26s CPU      0.26s WALL (       1 calls)
     hinit0       :      0.54s CPU      0.55s WALL (       1 calls)

     Called by electrons:
     c_bands      :    134.79s CPU    137.36s WALL (      19 calls)
     sum_band     :     13.42s CPU     13.78s WALL (      19 calls)
     v_of_rho     :      0.28s CPU      0.30s WALL (      20 calls)
     newd         :      1.07s CPU      1.09s WALL (      20 calls)
     mix_rho      :      0.05s CPU      0.05s WALL (      19 calls)

     Called by c_bands:
     init_us_2    :      0.95s CPU      0.97s WALL (    4480 calls)
     init_us_2:cp :      0.93s CPU      0.96s WALL (    4480 calls)
     cegterg      :    131.87s CPU    134.38s WALL (    2128 calls)

     Called by *egterg:
     cdiaghg      :     17.91s CPU     18.08s WALL (   15755 calls)
     h_psi        :     76.37s CPU     78.27s WALL (   15867 calls)
     s_psi        :      9.51s CPU      9.59s WALL (   15867 calls)
     g_psi        :      0.25s CPU      0.26s WALL (   13627 calls)

     Called by h_psi:
     h_psi:calbec :      9.88s CPU     10.22s WALL (   15867 calls)
     vloc_psi     :     56.71s CPU     58.16s WALL (   15867 calls)
     add_vuspsi   :      9.48s CPU      9.59s WALL (   15867 calls)

     General routines
     calbec       :     13.21s CPU     13.65s WALL (   18443 calls)
     fft          :      0.45s CPU      0.47s WALL (     269 calls)
     ffts         :      0.08s CPU      0.08s WALL (      39 calls)
     fftw         :     58.19s CPU     59.70s WALL (  299550 calls)
     interpolate  :      0.08s CPU      0.09s WALL (      20 calls)

     Parallel routines

     PWSCF        :   2m34.76s CPU   2m38.01s WALL


   This run was terminated on:  16:40:40  24Jun2025            

=------------------------------------------------------------------------------=
   JOB DONE.
=------------------------------------------------------------------------------=
Note: The following floating-point exceptions are signalling: IEEE_INVALID_FLAG
