
     Program PWSCF v.7.2 starts on 24Jun2025 at 19:51:52 

     This program is part of the open-source Quantum ESPRESSO suite
     for quantum simulation of materials; please cite
         "P. Giannozzi et al., J. Phys.:Condens. Matter 21 395502 (2009);
         "P. Giannozzi et al., J. Phys.:Condens. Matter 29 465901 (2017);
         "P. Giannozzi et al., J. Chem. Phys. 152 154105 (2020);
          URL http://www.quantum-espresso.org", 
     in publications or presentations arising from this work. More details at
     http://www.quantum-espresso.org/quote

     Parallel version (MPI), running on     8 processors

     MPI processes distributed on     1 nodes
     90763 MiB available memory on the printing compute node when the environment starts

     Reading input from /home/jvc/QEspresso7.2/ZnO_DataBase/scf_025_NOSYM.in/scf-6.67-1.55-0.25-3.in

     Current dimensions of program PWSCF are:
     Max number of different atomic species (ntypx) = 10
     Max number of k-points (npk) =  40000
     Max angular momentum in pseudopotentials (lmaxx) =  4
     file Zn.upf: wavefunction(s)  3D renormalized

     R & G space division:  proc/nbgrp/npool/nimage =       8
     Subspace diagonalization in iterative solution of the eigenvalue problem:
     a serial algorithm will be used


     Parallelization info
     --------------------
     sticks:   dense  smooth     PW     G-vecs:    dense   smooth      PW
     Min         154      75     23                 6952     2457     407
     Max         155      78     24                 6957     2461     412
     Sum        1237     613    187                55639    19669    3273

     Using Slab Decomposition



     bravais-lattice index     =            0
     lattice parameter (alat)  =       6.6731  a.u.
     unit-cell volume          =     411.7549 (a.u.)^3
     number of atoms/cell      =            4
     number of atomic types    =            2
     number of electrons       =        36.00
     number of Kohn-Sham states=           18
     kinetic-energy cutoff     =      50.0000  Ry
     charge density cutoff     =     400.0000  Ry
     scf convergence threshold =      1.0E-08
     mixing beta               =       0.3000
     number of iterations used =            8  plain     mixing
     Exchange-correlation= PBE
                           (   1   4   3   4   0   0   0)

     celldm(1)=   6.673127  celldm(2)=   0.000000  celldm(3)=   0.000000
     celldm(4)=   0.000000  celldm(5)=   0.000000  celldm(6)=   0.000000

     crystal axes: (cart. coord. in units of alat)
               a(1) = (   1.000000   0.000000   0.000000 )  
               a(2) = (  -0.500000   0.866025   0.000000 )  
               a(3) = (   0.000000   0.000000   1.600000 )  

     reciprocal axes: (cart. coord. in units 2 pi/alat)
               b(1) = (  1.000000  0.577350 -0.000000 )  
               b(2) = (  0.000000  1.154701  0.000000 )  
               b(3) = (  0.000000 -0.000000  0.625000 )  


     PseudoPot. # 1 for Zn read from file:
     ./pseudos/Zn.upf
     MD5 check sum: 7f56cabf9682ed8c977c2f7d0c5985c5
     Pseudo is Ultrasoft + core correction, Zval = 12.0
     Generated using &quot;atomic&quot; code by A. Dal Corso  v.6.2.2
     Using radial grid of 1201 points,  6 beta functions with: 
                l(1) =   0
                l(2) =   0
                l(3) =   1
                l(4) =   1
                l(5) =   2
                l(6) =   2
     Q(r) pseudized with 0 coefficients 


     PseudoPot. # 2 for O  read from file:
     ./pseudos/O.upf
     MD5 check sum: 91400c9766925bcf19f520983a725ff0
     Pseudo is Ultrasoft + core correction, Zval =  6.0
     Generated using &quot;atomic&quot; code by A. Dal Corso  v.6.3MaX
     Using radial grid of 1095 points,  4 beta functions with: 
                l(1) =   0
                l(2) =   0
                l(3) =   1
                l(4) =   1
     Q(r) pseudized with 0 coefficients 


     atomic species   valence    mass     pseudopotential
        Zn            12.00    63.38000     Zn( 1.00)
        O              6.00    15.99900     O ( 1.00)

     No symmetry found



   Cartesian axes

     site n.     atom                  positions (alat units)
         1           Zn  tau(   1) = (   0.5282263   0.3581302   0.9281795  )
         2           Zn  tau(   2) = (   0.0764467   0.7076738  -0.0511681  )
         3           O   tau(   3) = (   0.6245064   0.3849248   1.3457803  )
         4           O   tau(   4) = (   0.2407977   0.4257346   0.4643512  )

     number of k points=   112

     Number of k-points >= 100: set verbosity='high' to print them.

     Dense  grid:    55639 G-vectors     FFT dimensions: (  45,  45,  72)

     Smooth grid:    19669 G-vectors     FFT dimensions: (  32,  32,  50)

     Estimated max dynamical RAM per process >      37.53 MB

     Estimated total dynamical RAM >     300.20 MB

     Check: negative core charge=   -0.000002

     Initial potential from superposition of free atoms

     starting charge      35.9925, renormalised to      36.0000
     Starting wfcs are   26 randomized atomic wfcs

     total cpu time spent up to now is        4.5 secs

     Self-consistent Calculation

     iteration #  1     ecut=    50.00 Ry     beta= 0.30
     Davidson diagonalization with overlap
     ethr =  1.00E-02,  avg # of iterations =  2.0

     total cpu time spent up to now is       10.5 secs

     total energy              =    -361.07673570 Ry
     estimated scf accuracy    <       1.09953483 Ry

     iteration #  2     ecut=    50.00 Ry     beta= 0.30
     Davidson diagonalization with overlap
     ethr =  3.05E-03,  avg # of iterations =  2.8

     total cpu time spent up to now is       17.5 secs

     total energy              =    -361.22474944 Ry
     estimated scf accuracy    <       0.12440645 Ry

     iteration #  3     ecut=    50.00 Ry     beta= 0.30
     Davidson diagonalization with overlap
     c_bands:  1 eigenvalues not converged
     c_bands:  1 eigenvalues not converged
     c_bands:  1 eigenvalues not converged
     ethr =  3.46E-04,  avg # of iterations =  8.7

     total cpu time spent up to now is       29.9 secs

     total energy              =    -361.25487553 Ry
     estimated scf accuracy    <       0.29203623 Ry

     iteration #  4     ecut=    50.00 Ry     beta= 0.30
     Davidson diagonalization with overlap
     ethr =  3.46E-04,  avg # of iterations =  7.2

     total cpu time spent up to now is       39.8 secs

     total energy              =    -361.36344627 Ry
     estimated scf accuracy    <       0.07369304 Ry

     iteration #  5     ecut=    50.00 Ry     beta= 0.30
     Davidson diagonalization with overlap
     ethr =  2.05E-04,  avg # of iterations =  1.8

     total cpu time spent up to now is       45.6 secs

     total energy              =    -361.35093240 Ry
     estimated scf accuracy    <       0.09985062 Ry

     iteration #  6     ecut=    50.00 Ry     beta= 0.30
     Davidson diagonalization with overlap
     ethr =  2.05E-04,  avg # of iterations =  1.0

     total cpu time spent up to now is       50.9 secs

     total energy              =    -361.32331189 Ry
     estimated scf accuracy    <       0.07605859 Ry

     iteration #  7     ecut=    50.00 Ry     beta= 0.30
     Davidson diagonalization with overlap
     ethr =  2.05E-04,  avg # of iterations =  4.2

     total cpu time spent up to now is       57.6 secs

     total energy              =    -361.33175963 Ry
     estimated scf accuracy    <       0.00994068 Ry

     iteration #  8     ecut=    50.00 Ry     beta= 0.30
     Davidson diagonalization with overlap
     ethr =  2.76E-05,  avg # of iterations =  6.7

     total cpu time spent up to now is       66.0 secs

     total energy              =    -361.33587604 Ry
     estimated scf accuracy    <       0.00185396 Ry

     iteration #  9     ecut=    50.00 Ry     beta= 0.30
     Davidson diagonalization with overlap
     ethr =  5.15E-06,  avg # of iterations =  4.9

     total cpu time spent up to now is       73.1 secs

     total energy              =    -361.33608357 Ry
     estimated scf accuracy    <       0.00227537 Ry

     iteration # 10     ecut=    50.00 Ry     beta= 0.30
     Davidson diagonalization with overlap
     ethr =  5.15E-06,  avg # of iterations =  1.2

     total cpu time spent up to now is       78.4 secs

     total energy              =    -361.33866061 Ry
     estimated scf accuracy    <       0.00209764 Ry

     iteration # 11     ecut=    50.00 Ry     beta= 0.30
     Davidson diagonalization with overlap
     c_bands:  2 eigenvalues not converged
     ethr =  5.15E-06,  avg # of iterations = 12.1

     total cpu time spent up to now is       91.3 secs

     total energy              =    -361.35061065 Ry
     estimated scf accuracy    <       0.07060012 Ry

     iteration # 12     ecut=    50.00 Ry     beta= 0.30
     Davidson diagonalization with overlap
     ethr =  5.15E-06,  avg # of iterations =  5.7

     total cpu time spent up to now is       98.9 secs

     total energy              =    -361.36199974 Ry
     estimated scf accuracy    <       0.09710325 Ry

     iteration # 13     ecut=    50.00 Ry     beta= 0.30
     Davidson diagonalization with overlap
     c_bands:  2 eigenvalues not converged
     c_bands:  1 eigenvalues not converged
     c_bands:  1 eigenvalues not converged
     ethr =  5.15E-06,  avg # of iterations =  9.2

     total cpu time spent up to now is      110.5 secs

     total energy              =    -361.34455493 Ry
     estimated scf accuracy    <       0.19438650 Ry

     iteration # 14     ecut=    50.00 Ry     beta= 0.30
     Davidson diagonalization with overlap
     c_bands:  2 eigenvalues not converged
     c_bands:  1 eigenvalues not converged
     c_bands:  1 eigenvalues not converged
     c_bands:  1 eigenvalues not converged
     c_bands:  1 eigenvalues not converged
     c_bands:  1 eigenvalues not converged
     c_bands:  1 eigenvalues not converged
     ethr =  5.15E-06,  avg # of iterations =  9.0

     total cpu time spent up to now is      120.5 secs

     total energy              =    -361.33461780 Ry
     estimated scf accuracy    <       0.08370002 Ry

     iteration # 15     ecut=    50.00 Ry     beta= 0.30
     Davidson diagonalization with overlap
     c_bands:  2 eigenvalues not converged
     c_bands:  1 eigenvalues not converged
     c_bands:  2 eigenvalues not converged
     ethr =  5.15E-06,  avg # of iterations =  9.1

     total cpu time spent up to now is      130.6 secs

     total energy              =    -361.33711152 Ry
     estimated scf accuracy    <       0.01677133 Ry

     iteration # 16     ecut=    50.00 Ry     beta= 0.30
     Davidson diagonalization with overlap
     ethr =  5.15E-06,  avg # of iterations =  1.5

     total cpu time spent up to now is      136.2 secs

     total energy              =    -361.33219541 Ry
     estimated scf accuracy    <       0.01462023 Ry

     iteration # 17     ecut=    50.00 Ry     beta= 0.30
     Davidson diagonalization with overlap
     c_bands:  2 eigenvalues not converged
     ethr =  5.15E-06,  avg # of iterations =  9.6

     total cpu time spent up to now is      147.0 secs

     total energy              =    -361.33536151 Ry
     estimated scf accuracy    <       0.00164429 Ry

     iteration # 18     ecut=    50.00 Ry     beta= 0.30
     Davidson diagonalization with overlap
     ethr =  4.57E-06,  avg # of iterations =  5.8

     total cpu time spent up to now is      154.3 secs

     total energy              =    -361.33565086 Ry
     estimated scf accuracy    <       0.00008692 Ry

     iteration # 19     ecut=    50.00 Ry     beta= 0.30
     Davidson diagonalization with overlap
     c_bands:  1 eigenvalues not converged
     ethr =  2.41E-07,  avg # of iterations =  7.1

     total cpu time spent up to now is      164.5 secs

     total energy              =    -361.33572486 Ry
     estimated scf accuracy    <       0.00005690 Ry

     iteration # 20     ecut=    50.00 Ry     beta= 0.30
     Davidson diagonalization with overlap
     ethr =  1.58E-07,  avg # of iterations =  1.6

     total cpu time spent up to now is      170.1 secs

     total energy              =    -361.33569943 Ry
     estimated scf accuracy    <       0.00004616 Ry

     iteration # 21     ecut=    50.00 Ry     beta= 0.30
     Davidson diagonalization with overlap
     ethr =  1.28E-07,  avg # of iterations =  7.2

     total cpu time spent up to now is      179.4 secs

     total energy              =    -361.33572466 Ry
     estimated scf accuracy    <       0.00011807 Ry

     iteration # 22     ecut=    50.00 Ry     beta= 0.30
     Davidson diagonalization with overlap
     ethr =  1.28E-07,  avg # of iterations =  1.1

     total cpu time spent up to now is      184.4 secs

     total energy              =    -361.33571365 Ry
     estimated scf accuracy    <       0.00009686 Ry

     iteration # 23     ecut=    50.00 Ry     beta= 0.30
     Davidson diagonalization with overlap
     ethr =  1.28E-07,  avg # of iterations =  2.1

     total cpu time spent up to now is      190.2 secs

     total energy              =    -361.33573026 Ry
     estimated scf accuracy    <       0.00004401 Ry

     iteration # 24     ecut=    50.00 Ry     beta= 0.30
     Davidson diagonalization with overlap
     ethr =  1.22E-07,  avg # of iterations =  2.0

     total cpu time spent up to now is      195.9 secs

     total energy              =    -361.33573359 Ry
     estimated scf accuracy    <       0.00007308 Ry

     iteration # 25     ecut=    50.00 Ry     beta= 0.30
     Davidson diagonalization with overlap
     ethr =  1.22E-07,  avg # of iterations =  1.8

     total cpu time spent up to now is      201.4 secs

     total energy              =    -361.33570820 Ry
     estimated scf accuracy    <       0.00008570 Ry

     iteration # 26     ecut=    50.00 Ry     beta= 0.30
     Davidson diagonalization with overlap
     ethr =  1.22E-07,  avg # of iterations =  3.1

     total cpu time spent up to now is      207.5 secs

     total energy              =    -361.33571352 Ry
     estimated scf accuracy    <       0.00002345 Ry

     iteration # 27     ecut=    50.00 Ry     beta= 0.30
     Davidson diagonalization with overlap
     ethr =  6.51E-08,  avg # of iterations =  2.1

     total cpu time spent up to now is      213.2 secs

     total energy              =    -361.33570728 Ry
     estimated scf accuracy    <       0.00002075 Ry

     iteration # 28     ecut=    50.00 Ry     beta= 0.30
     Davidson diagonalization with overlap
     ethr =  5.76E-08,  avg # of iterations =  6.8

     total cpu time spent up to now is      221.1 secs

     total energy              =    -361.33571531 Ry
     estimated scf accuracy    <       0.00000397 Ry

     iteration # 29     ecut=    50.00 Ry     beta= 0.30
     Davidson diagonalization with overlap
     ethr =  1.10E-08,  avg # of iterations =  3.4

     total cpu time spent up to now is      227.1 secs

     total energy              =    -361.33571366 Ry
     estimated scf accuracy    <       0.00000741 Ry

     iteration # 30     ecut=    50.00 Ry     beta= 0.30
     Davidson diagonalization with overlap
     ethr =  1.10E-08,  avg # of iterations =  5.4

     total cpu time spent up to now is      233.8 secs

     total energy              =    -361.33571429 Ry
     estimated scf accuracy    <       0.00000109 Ry

     iteration # 31     ecut=    50.00 Ry     beta= 0.30
     Davidson diagonalization with overlap
     ethr =  3.02E-09,  avg # of iterations =  4.9

     total cpu time spent up to now is      240.1 secs

     total energy              =    -361.33571445 Ry
     estimated scf accuracy    <       0.00000059 Ry

     iteration # 32     ecut=    50.00 Ry     beta= 0.30
     Davidson diagonalization with overlap
     ethr =  1.64E-09,  avg # of iterations =  1.9

     total cpu time spent up to now is      245.6 secs

     total energy              =    -361.33571445 Ry
     estimated scf accuracy    <       0.00000057 Ry

     iteration # 33     ecut=    50.00 Ry     beta= 0.30
     Davidson diagonalization with overlap
     ethr =  1.59E-09,  avg # of iterations =  1.2

     total cpu time spent up to now is      250.8 secs

     total energy              =    -361.33571435 Ry
     estimated scf accuracy    <       0.00000051 Ry

     iteration # 34     ecut=    50.00 Ry     beta= 0.30
     Davidson diagonalization with overlap
     ethr =  1.43E-09,  avg # of iterations =  3.3

     total cpu time spent up to now is      256.7 secs

     total energy              =    -361.33571438 Ry
     estimated scf accuracy    <       0.00000018 Ry

     iteration # 35     ecut=    50.00 Ry     beta= 0.30
     Davidson diagonalization with overlap
     ethr =  5.00E-10,  avg # of iterations =  5.6

     total cpu time spent up to now is      263.4 secs

     total energy              =    -361.33571441 Ry
     estimated scf accuracy    <       0.00000006 Ry

     iteration # 36     ecut=    50.00 Ry     beta= 0.30
     Davidson diagonalization with overlap
     ethr =  1.59E-10,  avg # of iterations =  4.2

     total cpu time spent up to now is      269.7 secs

     total energy              =    -361.33571442 Ry
     estimated scf accuracy    <       0.00000004 Ry

     iteration # 37     ecut=    50.00 Ry     beta= 0.30
     Davidson diagonalization with overlap
     ethr =  1.10E-10,  avg # of iterations =  1.3

     total cpu time spent up to now is      274.7 secs

     total energy              =    -361.33571443 Ry
     estimated scf accuracy    <       0.00000004 Ry

     iteration # 38     ecut=    50.00 Ry     beta= 0.30
     Davidson diagonalization with overlap
     ethr =  1.05E-10,  avg # of iterations =  5.6

     total cpu time spent up to now is      281.4 secs

     total energy              =    -361.33571444 Ry
     estimated scf accuracy    <       0.00000011 Ry

     iteration # 39     ecut=    50.00 Ry     beta= 0.30
     Davidson diagonalization with overlap
     ethr =  1.05E-10,  avg # of iterations =  1.7

     total cpu time spent up to now is      286.7 secs

     total energy              =    -361.33571443 Ry
     estimated scf accuracy    <       0.00000013 Ry

     iteration # 40     ecut=    50.00 Ry     beta= 0.30
     Davidson diagonalization with overlap
     ethr =  1.05E-10,  avg # of iterations =  2.0

     total cpu time spent up to now is      292.4 secs

     total energy              =    -361.33571443 Ry
     estimated scf accuracy    <       0.00000011 Ry

     iteration # 41     ecut=    50.00 Ry     beta= 0.30
     Davidson diagonalization with overlap
     ethr =  1.05E-10,  avg # of iterations =  1.8

     total cpu time spent up to now is      298.0 secs

     total energy              =    -361.33571444 Ry
     estimated scf accuracy    <       0.00000010 Ry

     iteration # 42     ecut=    50.00 Ry     beta= 0.30
     Davidson diagonalization with overlap
     ethr =  1.05E-10,  avg # of iterations =  1.8

     total cpu time spent up to now is      303.6 secs

     total energy              =    -361.33571443 Ry
     estimated scf accuracy    <       0.00000014 Ry

     iteration # 43     ecut=    50.00 Ry     beta= 0.30
     Davidson diagonalization with overlap
     ethr =  1.05E-10,  avg # of iterations =  1.1

     total cpu time spent up to now is      308.8 secs

     total energy              =    -361.33571442 Ry
     estimated scf accuracy    <       0.00000011 Ry

     iteration # 44     ecut=    50.00 Ry     beta= 0.30
     Davidson diagonalization with overlap
     ethr =  1.05E-10,  avg # of iterations =  2.3

     total cpu time spent up to now is      314.7 secs

     total energy              =    -361.33571439 Ry
     estimated scf accuracy    <       0.00000008 Ry

     iteration # 45     ecut=    50.00 Ry     beta= 0.30
     Davidson diagonalization with overlap
     c_bands:  1 eigenvalues not converged
     ethr =  1.05E-10,  avg # of iterations =  7.2

     total cpu time spent up to now is      323.7 secs

     total energy              =    -361.33571441 Ry
     estimated scf accuracy    <       0.00000003 Ry

     iteration # 46     ecut=    50.00 Ry     beta= 0.30
     Davidson diagonalization with overlap
     ethr =  9.35E-11,  avg # of iterations =  2.7

     total cpu time spent up to now is      329.7 secs

     total energy              =    -361.33571441 Ry
     estimated scf accuracy    <       0.00000001 Ry

     iteration # 47     ecut=    50.00 Ry     beta= 0.30
     Davidson diagonalization with overlap
     ethr =  2.82E-11,  avg # of iterations =  7.4

     total cpu time spent up to now is      338.0 secs

     End of self-consistent calculation

     Number of k-points >= 100: set verbosity='high' to print the bands.

     highest occupied level (ev):     5.2387

!    total energy              =    -361.33571441 Ry
     estimated scf accuracy    <          3.8E-09 Ry

     The total energy is the sum of the following terms:
     one-electron contribution =    -198.00425785 Ry
     hartree contribution      =     135.76342945 Ry
     xc contribution           =    -109.24782969 Ry
     ewald contribution        =    -189.84705633 Ry

     convergence has been achieved in  47 iterations

     Forces acting on atoms (cartesian axes, Ry/au):

     atom    1 type  1   force =    -0.14316429    0.00043899   -0.60544200
     atom    2 type  1   force =     0.01519447   -0.02162903    0.10699165
     atom    3 type  2   force =     0.12239972    0.01930411    0.47195102
     atom    4 type  2   force =     0.00557010    0.00188593    0.02649933
     The non-local contrib.  to forces
     atom    1 type  1   force =     0.03070068   -0.19847103   -0.32539683
     atom    2 type  1   force =    -0.02930722    0.06002639   -0.28525988
     atom    3 type  2   force =     0.00170565   -0.23362885   -0.82445744
     atom    4 type  2   force =     0.37307161    0.20508509    0.32606298
     The ionic contribution  to forces
     atom    1 type  1   force =    -0.02979285   -1.09717468  -16.73838202
     atom    2 type  1   force =    -0.10986312    0.36675936    8.57739823
     atom    3 type  2   force =     2.12477252    1.51862610    9.02441686
     atom    4 type  2   force =    -1.98511655   -0.78821078   -0.86343306
     The local contribution  to forces
     atom    1 type  1   force =    -0.14931265    1.27933345   16.37605814
     atom    2 type  1   force =     0.15550325   -0.44762463   -8.18696989
     atom    3 type  2   force =    -2.00320698   -1.26766711   -7.73252461
     atom    4 type  2   force =     1.62120084    0.58709335    0.56686171
     The core correction contribution to forces
     atom    1 type  1   force =     0.00521312    0.01675521    0.08216442
     atom    2 type  1   force =    -0.00113182   -0.00080288    0.00190917
     atom    3 type  2   force =    -0.00086741    0.00197611    0.00453692
     atom    4 type  2   force =    -0.00359006   -0.00208161   -0.00300882
     The Hubbard contrib.    to forces
     atom    1 type  1   force =     0.00000000    0.00000000    0.00000000
     atom    2 type  1   force =     0.00000000    0.00000000    0.00000000
     atom    3 type  2   force =     0.00000000    0.00000000    0.00000000
     atom    4 type  2   force =     0.00000000    0.00000000    0.00000000
     The SCF correction term to forces
     atom    1 type  1   force =     0.00002944   -0.00000389    0.00011035
     atom    2 type  1   force =    -0.00000458    0.00001279   -0.00008992
     atom    3 type  2   force =    -0.00000201   -0.00000207   -0.00002464
     atom    4 type  2   force =     0.00000630   -0.00000006    0.00001259

     Total force =     0.798768     Total SCF correction =     0.000149

     Writing all to output data dir ./ZnO_ANN.save/

     init_run     :      3.94s CPU      4.04s WALL (       1 calls)
     electrons    :    328.21s CPU    333.55s WALL (       1 calls)
     forces       :      1.38s CPU      1.40s WALL (       1 calls)

     Called by init_run:
     wfcinit      :      2.91s CPU      2.96s WALL (       1 calls)
     potinit      :      0.37s CPU      0.38s WALL (       1 calls)
     hinit0       :      0.57s CPU      0.58s WALL (       1 calls)

     Called by electrons:
     c_bands      :    285.01s CPU    289.47s WALL (      47 calls)
     sum_band     :     38.62s CPU     39.40s WALL (      47 calls)
     v_of_rho     :      0.96s CPU      1.03s WALL (      48 calls)
     newd         :      3.42s CPU      3.46s WALL (      48 calls)
     mix_rho      :      0.16s CPU      0.18s WALL (      47 calls)

     Called by c_bands:
     init_us_2    :      2.95s CPU      2.99s WALL (   10752 calls)
     init_us_2:cp :      2.91s CPU      2.96s WALL (   10752 calls)
     cegterg      :    275.25s CPU    279.58s WALL (    5264 calls)

     Called by *egterg:
     cdiaghg      :     28.33s CPU     28.57s WALL (   27905 calls)
     h_psi        :    158.42s CPU    161.68s WALL (   28017 calls)
     s_psi        :     20.51s CPU     20.66s WALL (   28017 calls)
     g_psi        :      0.55s CPU      0.56s WALL (   22641 calls)

     Called by h_psi:
     h_psi:calbec :     24.33s CPU     24.96s WALL (   28017 calls)
     vloc_psi     :    112.91s CPU    115.39s WALL (   28017 calls)
     add_vuspsi   :     20.60s CPU     20.76s WALL (   28017 calls)

     General routines
     calbec       :     34.05s CPU     34.91s WALL (   33729 calls)
     fft          :      1.14s CPU      1.24s WALL (     633 calls)
     ffts         :      0.14s CPU      0.15s WALL (      95 calls)
     fftw         :    116.58s CPU    119.11s WALL (  587958 calls)
     interpolate  :      0.18s CPU      0.19s WALL (      48 calls)

     Parallel routines

     PWSCF        :   5m34.28s CPU   5m40.06s WALL


   This run was terminated on:  19:57:32  24Jun2025            

=------------------------------------------------------------------------------=
   JOB DONE.
=------------------------------------------------------------------------------=
Note: The following floating-point exceptions are signalling: IEEE_INVALID_FLAG
