
     Program PWSCF v.7.2 starts on 24Jun2025 at 15:45:33 

     This program is part of the open-source Quantum ESPRESSO suite
     for quantum simulation of materials; please cite
         "P. Giannozzi et al., J. Phys.:Condens. Matter 21 395502 (2009);
         "P. Giannozzi et al., J. Phys.:Condens. Matter 29 465901 (2017);
         "P. Giannozzi et al., J. Chem. Phys. 152 154105 (2020);
          URL http://www.quantum-espresso.org", 
     in publications or presentations arising from this work. More details at
     http://www.quantum-espresso.org/quote

     Parallel version (MPI), running on     8 processors

     MPI processes distributed on     1 nodes
     91105 MiB available memory on the printing compute node when the environment starts

     Reading input from /home/jvc/QEspresso7.2/ZnO_DataBase/scf_025_NOSYM.in/scf-5.93-1.49-0.25-5.in

     Current dimensions of program PWSCF are:
     Max number of different atomic species (ntypx) = 10
     Max number of k-points (npk) =  40000
     Max angular momentum in pseudopotentials (lmaxx) =  4
     file Zn.upf: wavefunction(s)  3D renormalized

     R & G space division:  proc/nbgrp/npool/nimage =       8
     Subspace diagonalization in iterative solution of the eigenvalue problem:
     a serial algorithm will be used


     Parallelization info
     --------------------
     sticks:   dense  smooth     PW     G-vecs:    dense   smooth      PW
     Min         119      62     18                 4887     1734     288
     Max         120      63     19                 4898     1737     293
     Sum         955     499    151                39127    13885    2333

     Using Slab Decomposition



     bravais-lattice index     =            0
     lattice parameter (alat)  =       5.9317  a.u.
     unit-cell volume          =     289.1886 (a.u.)^3
     number of atoms/cell      =            4
     number of atomic types    =            2
     number of electrons       =        36.00
     number of Kohn-Sham states=           18
     kinetic-energy cutoff     =      50.0000  Ry
     charge density cutoff     =     400.0000  Ry
     scf convergence threshold =      1.0E-08
     mixing beta               =       0.3000
     number of iterations used =            8  plain     mixing
     Exchange-correlation= PBE
                           (   1   4   3   4   0   0   0)

     celldm(1)=   5.931669  celldm(2)=   0.000000  celldm(3)=   0.000000
     celldm(4)=   0.000000  celldm(5)=   0.000000  celldm(6)=   0.000000

     crystal axes: (cart. coord. in units of alat)
               a(1) = (   1.000000   0.000000   0.000000 )  
               a(2) = (  -0.500000   0.866025   0.000000 )  
               a(3) = (   0.000000   0.000000   1.600000 )  

     reciprocal axes: (cart. coord. in units 2 pi/alat)
               b(1) = (  1.000000  0.577350 -0.000000 )  
               b(2) = (  0.000000  1.154701  0.000000 )  
               b(3) = (  0.000000 -0.000000  0.625000 )  


     PseudoPot. # 1 for Zn read from file:
     ./pseudos/Zn.upf
     MD5 check sum: 7f56cabf9682ed8c977c2f7d0c5985c5
     Pseudo is Ultrasoft + core correction, Zval = 12.0
     Generated using &quot;atomic&quot; code by A. Dal Corso  v.6.2.2
     Using radial grid of 1201 points,  6 beta functions with: 
                l(1) =   0
                l(2) =   0
                l(3) =   1
                l(4) =   1
                l(5) =   2
                l(6) =   2
     Q(r) pseudized with 0 coefficients 


     PseudoPot. # 2 for O  read from file:
     ./pseudos/O.upf
     MD5 check sum: 91400c9766925bcf19f520983a725ff0
     Pseudo is Ultrasoft + core correction, Zval =  6.0
     Generated using &quot;atomic&quot; code by A. Dal Corso  v.6.3MaX
     Using radial grid of 1095 points,  4 beta functions with: 
                l(1) =   0
                l(2) =   0
                l(3) =   1
                l(4) =   1
     Q(r) pseudized with 0 coefficients 


     atomic species   valence    mass     pseudopotential
        Zn            12.00    63.38000     Zn( 1.00)
        O              6.00    15.99900     O ( 1.00)

     No symmetry found



   Cartesian axes

     site n.     atom                  positions (alat units)
         1           Zn  tau(   1) = (   0.7364048   0.1912271   0.5372226  )
         2           Zn  tau(   2) = (   0.0912750   0.7620760   0.2333494  )
         3           O   tau(   3) = (   0.2049696   0.4075032   1.3427684  )
         4           O   tau(   4) = (   0.1096017   0.5076518   0.6586298  )

     number of k points=   112

     Number of k-points >= 100: set verbosity='high' to print them.

     Dense  grid:    39127 G-vectors     FFT dimensions: (  40,  40,  64)

     Smooth grid:    13885 G-vectors     FFT dimensions: (  27,  27,  45)

     Estimated max dynamical RAM per process >      27.34 MB

     Estimated total dynamical RAM >     218.72 MB

     Check: negative core charge=   -0.000002

     Initial potential from superposition of free atoms

     starting charge      35.9925, renormalised to      36.0000
     Starting wfcs are   26 randomized atomic wfcs

     total cpu time spent up to now is        3.8 secs

     Self-consistent Calculation

     iteration #  1     ecut=    50.00 Ry     beta= 0.30
     Davidson diagonalization with overlap
     ethr =  1.00E-02,  avg # of iterations =  2.0

     total cpu time spent up to now is        9.0 secs

     total energy              =    -359.48919833 Ry
     estimated scf accuracy    <       1.14561868 Ry

     iteration #  2     ecut=    50.00 Ry     beta= 0.30
     Davidson diagonalization with overlap
     ethr =  3.18E-03,  avg # of iterations =  7.2

     total cpu time spent up to now is       15.7 secs

     total energy              =    -359.73310546 Ry
     estimated scf accuracy    <       0.32267633 Ry

     iteration #  3     ecut=    50.00 Ry     beta= 0.30
     Davidson diagonalization with overlap
     ethr =  8.96E-04,  avg # of iterations =  3.8

     total cpu time spent up to now is       21.2 secs

     total energy              =    -359.74743390 Ry
     estimated scf accuracy    <       0.10665801 Ry

     iteration #  4     ecut=    50.00 Ry     beta= 0.30
     Davidson diagonalization with overlap
     ethr =  2.96E-04,  avg # of iterations = 10.3

     total cpu time spent up to now is       29.9 secs

     total energy              =    -359.82860372 Ry
     estimated scf accuracy    <       0.30144540 Ry

     iteration #  5     ecut=    50.00 Ry     beta= 0.30
     Davidson diagonalization with overlap
     ethr =  2.96E-04,  avg # of iterations =  1.1

     total cpu time spent up to now is       33.8 secs

     total energy              =    -359.73258867 Ry
     estimated scf accuracy    <       0.21828782 Ry

     iteration #  6     ecut=    50.00 Ry     beta= 0.30
     Davidson diagonalization with overlap
     ethr =  2.96E-04,  avg # of iterations =  8.2

     total cpu time spent up to now is       40.9 secs

     total energy              =    -359.81347014 Ry
     estimated scf accuracy    <       0.44239146 Ry

     iteration #  7     ecut=    50.00 Ry     beta= 0.30
     Davidson diagonalization with overlap
     ethr =  2.96E-04,  avg # of iterations =  1.9

     total cpu time spent up to now is       45.2 secs

     total energy              =    -359.72813448 Ry
     estimated scf accuracy    <       0.31670318 Ry

     iteration #  8     ecut=    50.00 Ry     beta= 0.30
     Davidson diagonalization with overlap
     ethr =  2.96E-04,  avg # of iterations =  8.0

     total cpu time spent up to now is       52.5 secs

     total energy              =    -359.84393112 Ry
     estimated scf accuracy    <       0.11557378 Ry

     iteration #  9     ecut=    50.00 Ry     beta= 0.30
     Davidson diagonalization with overlap
     ethr =  2.96E-04,  avg # of iterations =  1.0

     total cpu time spent up to now is       56.3 secs

     total energy              =    -359.84156343 Ry
     estimated scf accuracy    <       0.11715568 Ry

     iteration # 10     ecut=    50.00 Ry     beta= 0.30
     Davidson diagonalization with overlap
     ethr =  2.96E-04,  avg # of iterations =  1.0

     total cpu time spent up to now is       60.2 secs

     total energy              =    -359.85211826 Ry
     estimated scf accuracy    <       0.11268850 Ry

     iteration # 11     ecut=    50.00 Ry     beta= 0.30
     Davidson diagonalization with overlap
     ethr =  2.96E-04,  avg # of iterations =  1.1

     total cpu time spent up to now is       64.1 secs

     total energy              =    -359.83743204 Ry
     estimated scf accuracy    <       0.13635650 Ry

     iteration # 12     ecut=    50.00 Ry     beta= 0.30
     Davidson diagonalization with overlap
     ethr =  2.96E-04,  avg # of iterations =  1.0

     total cpu time spent up to now is       68.0 secs

     total energy              =    -359.82997440 Ry
     estimated scf accuracy    <       0.11535285 Ry

     iteration # 13     ecut=    50.00 Ry     beta= 0.30
     Davidson diagonalization with overlap
     ethr =  2.96E-04,  avg # of iterations =  1.3

     total cpu time spent up to now is       72.0 secs

     total energy              =    -359.82935997 Ry
     estimated scf accuracy    <       0.07838547 Ry

     iteration # 14     ecut=    50.00 Ry     beta= 0.30
     Davidson diagonalization with overlap
     ethr =  2.18E-04,  avg # of iterations =  1.0

     total cpu time spent up to now is       76.0 secs

     total energy              =    -359.82217318 Ry
     estimated scf accuracy    <       0.07268748 Ry

     iteration # 15     ecut=    50.00 Ry     beta= 0.30
     Davidson diagonalization with overlap
     ethr =  2.02E-04,  avg # of iterations =  1.4

     total cpu time spent up to now is       80.0 secs

     total energy              =    -359.81830444 Ry
     estimated scf accuracy    <       0.05033428 Ry

     iteration # 16     ecut=    50.00 Ry     beta= 0.30
     Davidson diagonalization with overlap
     ethr =  1.40E-04,  avg # of iterations =  6.0

     total cpu time spent up to now is       85.2 secs

     total energy              =    -359.82768537 Ry
     estimated scf accuracy    <       0.01314751 Ry

     iteration # 17     ecut=    50.00 Ry     beta= 0.30
     Davidson diagonalization with overlap
     ethr =  3.65E-05,  avg # of iterations =  6.3

     total cpu time spent up to now is       91.4 secs

     total energy              =    -359.82033845 Ry
     estimated scf accuracy    <       0.02128197 Ry

     iteration # 18     ecut=    50.00 Ry     beta= 0.30
     Davidson diagonalization with overlap
     ethr =  3.65E-05,  avg # of iterations =  2.7

     total cpu time spent up to now is       97.4 secs

     total energy              =    -359.82165428 Ry
     estimated scf accuracy    <       0.00343913 Ry

     iteration # 19     ecut=    50.00 Ry     beta= 0.30
     Davidson diagonalization with overlap
     ethr =  9.55E-06,  avg # of iterations =  7.6

     total cpu time spent up to now is      106.8 secs

     total energy              =    -359.82424896 Ry
     estimated scf accuracy    <       0.00361653 Ry

     iteration # 20     ecut=    50.00 Ry     beta= 0.30
     Davidson diagonalization with overlap
     ethr =  9.55E-06,  avg # of iterations =  7.4

     total cpu time spent up to now is      114.6 secs

     total energy              =    -359.82334318 Ry
     estimated scf accuracy    <       0.02367113 Ry

     iteration # 21     ecut=    50.00 Ry     beta= 0.30
     Davidson diagonalization with overlap
     ethr =  9.55E-06,  avg # of iterations =  2.2

     total cpu time spent up to now is      119.6 secs

     total energy              =    -359.82134900 Ry
     estimated scf accuracy    <       0.01709106 Ry

     iteration # 22     ecut=    50.00 Ry     beta= 0.30
     Davidson diagonalization with overlap
     ethr =  9.55E-06,  avg # of iterations =  7.4

     total cpu time spent up to now is      127.0 secs

     total energy              =    -359.82335735 Ry
     estimated scf accuracy    <       0.00076196 Ry

     iteration # 23     ecut=    50.00 Ry     beta= 0.30
     Davidson diagonalization with overlap
     ethr =  2.12E-06,  avg # of iterations =  7.2

     total cpu time spent up to now is      134.2 secs

     total energy              =    -359.82371531 Ry
     estimated scf accuracy    <       0.00350101 Ry

     iteration # 24     ecut=    50.00 Ry     beta= 0.30
     Davidson diagonalization with overlap
     ethr =  2.12E-06,  avg # of iterations =  1.4

     total cpu time spent up to now is      138.7 secs

     total energy              =    -359.82237628 Ry
     estimated scf accuracy    <       0.00379057 Ry

     iteration # 25     ecut=    50.00 Ry     beta= 0.30
     Davidson diagonalization with overlap
     c_bands:  2 eigenvalues not converged
     ethr =  2.12E-06,  avg # of iterations =  8.3

     total cpu time spent up to now is      147.0 secs

     total energy              =    -359.82313345 Ry
     estimated scf accuracy    <       0.00046231 Ry

     iteration # 26     ecut=    50.00 Ry     beta= 0.30
     Davidson diagonalization with overlap
     ethr =  1.28E-06,  avg # of iterations =  1.4

     total cpu time spent up to now is      151.5 secs

     total energy              =    -359.82304423 Ry
     estimated scf accuracy    <       0.00034784 Ry

     iteration # 27     ecut=    50.00 Ry     beta= 0.30
     Davidson diagonalization with overlap
     ethr =  9.66E-07,  avg # of iterations =  6.4

     total cpu time spent up to now is      157.8 secs

     total energy              =    -359.82312231 Ry
     estimated scf accuracy    <       0.00002946 Ry

     iteration # 28     ecut=    50.00 Ry     beta= 0.30
     Davidson diagonalization with overlap
     c_bands:  1 eigenvalues not converged
     ethr =  8.18E-08,  avg # of iterations =  6.2

     total cpu time spent up to now is      164.9 secs

     total energy              =    -359.82311592 Ry
     estimated scf accuracy    <       0.00005703 Ry

     iteration # 29     ecut=    50.00 Ry     beta= 0.30
     Davidson diagonalization with overlap
     ethr =  8.18E-08,  avg # of iterations =  7.7

     total cpu time spent up to now is      172.3 secs

     total energy              =    -359.82312603 Ry
     estimated scf accuracy    <       0.00000813 Ry

     iteration # 30     ecut=    50.00 Ry     beta= 0.30
     Davidson diagonalization with overlap
     ethr =  2.26E-08,  avg # of iterations =  7.7

     total cpu time spent up to now is      179.3 secs

     total energy              =    -359.82312874 Ry
     estimated scf accuracy    <       0.00000349 Ry

     iteration # 31     ecut=    50.00 Ry     beta= 0.30
     Davidson diagonalization with overlap
     ethr =  9.69E-09,  avg # of iterations =  2.0

     total cpu time spent up to now is      184.1 secs

     total energy              =    -359.82312832 Ry
     estimated scf accuracy    <       0.00000387 Ry

     iteration # 32     ecut=    50.00 Ry     beta= 0.30
     Davidson diagonalization with overlap
     ethr =  9.69E-09,  avg # of iterations =  1.9

     total cpu time spent up to now is      188.9 secs

     total energy              =    -359.82312773 Ry
     estimated scf accuracy    <       0.00000216 Ry

     iteration # 33     ecut=    50.00 Ry     beta= 0.30
     Davidson diagonalization with overlap
     ethr =  6.01E-09,  avg # of iterations =  7.9

     total cpu time spent up to now is      196.1 secs

     total energy              =    -359.82312826 Ry
     estimated scf accuracy    <       0.00000157 Ry

     iteration # 34     ecut=    50.00 Ry     beta= 0.30
     Davidson diagonalization with overlap
     ethr =  4.36E-09,  avg # of iterations =  1.2

     total cpu time spent up to now is      200.5 secs

     total energy              =    -359.82312796 Ry
     estimated scf accuracy    <       0.00000084 Ry

     iteration # 35     ecut=    50.00 Ry     beta= 0.30
     Davidson diagonalization with overlap
     ethr =  2.34E-09,  avg # of iterations =  7.7

     total cpu time spent up to now is      208.2 secs

     total energy              =    -359.82312866 Ry
     estimated scf accuracy    <       0.00000227 Ry

     iteration # 36     ecut=    50.00 Ry     beta= 0.30
     Davidson diagonalization with overlap
     ethr =  2.34E-09,  avg # of iterations =  1.0

     total cpu time spent up to now is      212.5 secs

     total energy              =    -359.82312828 Ry
     estimated scf accuracy    <       0.00000201 Ry

     iteration # 37     ecut=    50.00 Ry     beta= 0.30
     Davidson diagonalization with overlap
     ethr =  2.34E-09,  avg # of iterations =  6.5

     total cpu time spent up to now is      218.7 secs

     total energy              =    -359.82312840 Ry
     estimated scf accuracy    <       0.00000019 Ry

     iteration # 38     ecut=    50.00 Ry     beta= 0.30
     Davidson diagonalization with overlap
     ethr =  5.32E-10,  avg # of iterations =  5.6

     total cpu time spent up to now is      225.1 secs

     End of self-consistent calculation

     Number of k-points >= 100: set verbosity='high' to print the bands.

     highest occupied level (ev):     9.8600

!    total energy              =    -359.82312846 Ry
     estimated scf accuracy    <          8.0E-10 Ry

     The total energy is the sum of the following terms:
     one-electron contribution =    -224.07931311 Ry
     hartree contribution      =     152.47004679 Ry
     xc contribution           =    -110.44742112 Ry
     ewald contribution        =    -177.76644102 Ry

     convergence has been achieved in  38 iterations

     Forces acting on atoms (cartesian axes, Ry/au):

     atom    1 type  1   force =     0.54114231    1.48452922    1.67114868
     atom    2 type  1   force =    -0.82951111   -1.35511943   -2.30536374
     atom    3 type  2   force =     0.03540480   -0.05232256    0.14241234
     atom    4 type  2   force =     0.25296400   -0.07708723    0.49180272
     The non-local contrib.  to forces
     atom    1 type  1   force =    -0.85292971   -1.19566145   -1.19887094
     atom    2 type  1   force =     0.44691881    1.63124397    1.39347192
     atom    3 type  2   force =    -0.00170635    0.20366772    0.96481096
     atom    4 type  2   force =    -0.39144863    0.39974646   -1.32780621
     The ionic contribution  to forces
     atom    1 type  1   force =     3.57023966   14.54266562   26.85732425
     atom    2 type  1   force =    -8.66791554   -9.08082837  -39.08807053
     atom    3 type  2   force =     0.85960487   -2.15404564   -8.31989714
     atom    4 type  2   force =     4.23807101   -3.30779161   20.55064341
     The local contribution  to forces
     atom    1 type  1   force =    -2.18525909  -11.80371239  -23.91431453
     atom    2 type  1   force =     7.34850080    6.08542811   35.25869004
     atom    3 type  2   force =    -0.82216641    1.89943216    7.50669538
     atom    4 type  2   force =    -3.59559570    2.83405363  -18.73908865
     The core correction contribution to forces
     atom    1 type  1   force =     0.00908034   -0.05876556   -0.07307507
     atom    2 type  1   force =     0.04298619    0.00902742    0.13049264
     atom    3 type  2   force =    -0.00032192   -0.00137380   -0.00911025
     atom    4 type  2   force =     0.00194162   -0.00309189    0.00802620
     The Hubbard contrib.    to forces
     atom    1 type  1   force =     0.00000000    0.00000000    0.00000000
     atom    2 type  1   force =     0.00000000    0.00000000    0.00000000
     atom    3 type  2   force =     0.00000000    0.00000000    0.00000000
     atom    4 type  2   force =     0.00000000    0.00000000    0.00000000
     The SCF correction term to forces
     atom    1 type  1   force =     0.00001101    0.00000826    0.00011255
     atom    2 type  1   force =    -0.00000148    0.00001469    0.00007978
     atom    3 type  2   force =    -0.00000550    0.00000226   -0.00005903
     atom    4 type  2   force =    -0.00000441    0.00000143    0.00005555

     Total force =     3.669416     Total SCF correction =     0.000161

     Writing all to output data dir ./ZnO_ANN.save/

     init_run     :      3.28s CPU      3.36s WALL (       1 calls)
     electrons    :    216.90s CPU    221.30s WALL (       1 calls)
     forces       :      1.02s CPU      1.04s WALL (       1 calls)

     Called by init_run:
     wfcinit      :      2.45s CPU      2.50s WALL (       1 calls)
     potinit      :      0.24s CPU      0.25s WALL (       1 calls)
     hinit0       :      0.51s CPU      0.53s WALL (       1 calls)

     Called by electrons:
     c_bands      :    189.35s CPU    193.10s WALL (      38 calls)
     sum_band     :     25.02s CPU     25.60s WALL (      38 calls)
     v_of_rho     :      0.53s CPU      0.56s WALL (      39 calls)
     newd         :      1.92s CPU      1.95s WALL (      39 calls)
     mix_rho      :      0.09s CPU      0.10s WALL (      38 calls)

     Called by c_bands:
     init_us_2    :      1.64s CPU      1.66s WALL (    8736 calls)
     init_us_2:cp :      1.61s CPU      1.64s WALL (    8736 calls)
     cegterg      :    183.85s CPU    187.51s WALL (    4256 calls)

     Called by *egterg:
     cdiaghg      :     24.11s CPU     24.36s WALL (   23306 calls)
     h_psi        :    110.04s CPU    112.70s WALL (   23418 calls)
     s_psi        :     12.05s CPU     12.19s WALL (   23418 calls)
     g_psi        :      0.32s CPU      0.33s WALL (   19050 calls)

     Called by h_psi:
     h_psi:calbec :     14.06s CPU     14.55s WALL (   23418 calls)
     vloc_psi     :     83.54s CPU     85.60s WALL (   23418 calls)
     add_vuspsi   :     12.05s CPU     12.18s WALL (   23418 calls)

     General routines
     calbec       :     19.75s CPU     20.41s WALL (   28122 calls)
     fft          :      0.58s CPU      0.64s WALL (     516 calls)
     ffts         :      0.09s CPU      0.09s WALL (      77 calls)
     fftw         :     89.09s CPU     91.28s WALL (  476740 calls)
     interpolate  :      0.10s CPU      0.10s WALL (      39 calls)

     Parallel routines

     PWSCF        :   3m41.92s CPU   3m46.58s WALL


   This run was terminated on:  15:49:19  24Jun2025            

=------------------------------------------------------------------------------=
   JOB DONE.
=------------------------------------------------------------------------------=
Note: The following floating-point exceptions are signalling: IEEE_INVALID_FLAG
