
     Program PWSCF v.7.2 starts on 24Jun2025 at 18: 0: 0 

     This program is part of the open-source Quantum ESPRESSO suite
     for quantum simulation of materials; please cite
         "P. Giannozzi et al., J. Phys.:Condens. Matter 21 395502 (2009);
         "P. Giannozzi et al., J. Phys.:Condens. Matter 29 465901 (2017);
         "P. Giannozzi et al., J. Chem. Phys. 152 154105 (2020);
          URL http://www.quantum-espresso.org", 
     in publications or presentations arising from this work. More details at
     http://www.quantum-espresso.org/quote

     Parallel version (MPI), running on     8 processors

     MPI processes distributed on     1 nodes
     90906 MiB available memory on the printing compute node when the environment starts

     Reading input from /home/jvc/QEspresso7.2/ZnO_DataBase/scf_025_NOSYM.in/scf-6.30-1.74-0.25-5.in

     Current dimensions of program PWSCF are:
     Max number of different atomic species (ntypx) = 10
     Max number of k-points (npk) =  40000
     Max angular momentum in pseudopotentials (lmaxx) =  4
     file Zn.upf: wavefunction(s)  3D renormalized

     R & G space division:  proc/nbgrp/npool/nimage =       8
     Subspace diagonalization in iterative solution of the eigenvalue problem:
     a serial algorithm will be used


     Parallelization info
     --------------------
     sticks:   dense  smooth     PW     G-vecs:    dense   smooth      PW
     Min         137      68     20                 5853     2068     346
     Max         138      69     21                 5856     2075     353
     Sum        1099     547    163                46835    16563    2791

     Using Slab Decomposition



     bravais-lattice index     =            0
     lattice parameter (alat)  =       6.3024  a.u.
     unit-cell volume          =     346.8711 (a.u.)^3
     number of atoms/cell      =            4
     number of atomic types    =            2
     number of electrons       =        36.00
     number of Kohn-Sham states=           18
     kinetic-energy cutoff     =      50.0000  Ry
     charge density cutoff     =     400.0000  Ry
     scf convergence threshold =      1.0E-08
     mixing beta               =       0.3000
     number of iterations used =            8  plain     mixing
     Exchange-correlation= PBE
                           (   1   4   3   4   0   0   0)

     celldm(1)=   6.302398  celldm(2)=   0.000000  celldm(3)=   0.000000
     celldm(4)=   0.000000  celldm(5)=   0.000000  celldm(6)=   0.000000

     crystal axes: (cart. coord. in units of alat)
               a(1) = (   1.000000   0.000000   0.000000 )  
               a(2) = (  -0.500000   0.866025   0.000000 )  
               a(3) = (   0.000000   0.000000   1.600000 )  

     reciprocal axes: (cart. coord. in units 2 pi/alat)
               b(1) = (  1.000000  0.577350 -0.000000 )  
               b(2) = (  0.000000  1.154701  0.000000 )  
               b(3) = (  0.000000 -0.000000  0.625000 )  


     PseudoPot. # 1 for Zn read from file:
     ./pseudos/Zn.upf
     MD5 check sum: 7f56cabf9682ed8c977c2f7d0c5985c5
     Pseudo is Ultrasoft + core correction, Zval = 12.0
     Generated using &quot;atomic&quot; code by A. Dal Corso  v.6.2.2
     Using radial grid of 1201 points,  6 beta functions with: 
                l(1) =   0
                l(2) =   0
                l(3) =   1
                l(4) =   1
                l(5) =   2
                l(6) =   2
     Q(r) pseudized with 0 coefficients 


     PseudoPot. # 2 for O  read from file:
     ./pseudos/O.upf
     MD5 check sum: 91400c9766925bcf19f520983a725ff0
     Pseudo is Ultrasoft + core correction, Zval =  6.0
     Generated using &quot;atomic&quot; code by A. Dal Corso  v.6.3MaX
     Using radial grid of 1095 points,  4 beta functions with: 
                l(1) =   0
                l(2) =   0
                l(3) =   1
                l(4) =   1
     Q(r) pseudized with 0 coefficients 


     atomic species   valence    mass     pseudopotential
        Zn            12.00    63.38000     Zn( 1.00)
        O              6.00    15.99900     O ( 1.00)

     No symmetry found



   Cartesian axes

     site n.     atom                  positions (alat units)
         1           Zn  tau(   1) = (   0.4760296   0.2700451   1.0045124  )
         2           Zn  tau(   2) = (  -0.2326808   0.6193167   0.1262089  )
         3           O   tau(   3) = (   0.5684902   0.3013757   1.1771033  )
         4           O   tau(   4) = (  -0.1222630   0.6832874   0.4430585  )

     number of k points=   112

     Number of k-points >= 100: set verbosity='high' to print them.

     Dense  grid:    46835 G-vectors     FFT dimensions: (  45,  45,  72)

     Smooth grid:    16563 G-vectors     FFT dimensions: (  30,  30,  45)

     Estimated max dynamical RAM per process >      32.29 MB

     Estimated total dynamical RAM >     258.31 MB

     Check: negative core charge=   -0.000002

     Initial potential from superposition of free atoms

     starting charge      35.9925, renormalised to      36.0000
     Starting wfcs are   26 randomized atomic wfcs

     total cpu time spent up to now is        4.2 secs

     Self-consistent Calculation

     iteration #  1     ecut=    50.00 Ry     beta= 0.30
     Davidson diagonalization with overlap
     ethr =  1.00E-02,  avg # of iterations =  5.6

     total cpu time spent up to now is       13.8 secs

     total energy              =    -344.71274152 Ry
     estimated scf accuracy    <       1.58921452 Ry

     iteration #  2     ecut=    50.00 Ry     beta= 0.30
     Davidson diagonalization with overlap
     ethr =  4.41E-03,  avg # of iterations =  2.0

     total cpu time spent up to now is       19.4 secs

     total energy              =    -344.53114951 Ry
     estimated scf accuracy    <       0.43978929 Ry

     iteration #  3     ecut=    50.00 Ry     beta= 0.30
     Davidson diagonalization with overlap
     ethr =  1.22E-03,  avg # of iterations =  8.3

     total cpu time spent up to now is       30.1 secs

     total energy              =    -345.09864090 Ry
     estimated scf accuracy    <       1.70903885 Ry

     iteration #  4     ecut=    50.00 Ry     beta= 0.30
     Davidson diagonalization with overlap
     ethr =  1.22E-03,  avg # of iterations =  1.0

     total cpu time spent up to now is       34.9 secs

     total energy              =    -344.72425782 Ry
     estimated scf accuracy    <       1.49333031 Ry

     iteration #  5     ecut=    50.00 Ry     beta= 0.30
     Davidson diagonalization with overlap
     ethr =  1.22E-03,  avg # of iterations =  5.3

     total cpu time spent up to now is       42.7 secs

     total energy              =    -344.83201229 Ry
     estimated scf accuracy    <       0.12104423 Ry

     iteration #  6     ecut=    50.00 Ry     beta= 0.30
     Davidson diagonalization with overlap
     ethr =  3.36E-04,  avg # of iterations =  4.8

     total cpu time spent up to now is       49.8 secs

     total energy              =    -344.85751686 Ry
     estimated scf accuracy    <       0.01189805 Ry

     iteration #  7     ecut=    50.00 Ry     beta= 0.30
     Davidson diagonalization with overlap
     ethr =  3.31E-05,  avg # of iterations =  7.4

     total cpu time spent up to now is       61.9 secs

     total energy              =    -344.85461404 Ry
     estimated scf accuracy    <       0.08047254 Ry

     iteration #  8     ecut=    50.00 Ry     beta= 0.30
     Davidson diagonalization with overlap
     ethr =  3.31E-05,  avg # of iterations =  5.2

     total cpu time spent up to now is       70.6 secs

     total energy              =    -344.85760714 Ry
     estimated scf accuracy    <       0.00805247 Ry

     iteration #  9     ecut=    50.00 Ry     beta= 0.30
     Davidson diagonalization with overlap
     ethr =  2.24E-05,  avg # of iterations =  5.6

     total cpu time spent up to now is       78.8 secs

     total energy              =    -344.86009200 Ry
     estimated scf accuracy    <       0.00342216 Ry

     iteration # 10     ecut=    50.00 Ry     beta= 0.30
     Davidson diagonalization with overlap
     ethr =  9.51E-06,  avg # of iterations =  4.7

     total cpu time spent up to now is       85.8 secs

     total energy              =    -344.86085389 Ry
     estimated scf accuracy    <       0.00007066 Ry

     iteration # 11     ecut=    50.00 Ry     beta= 0.30
     Davidson diagonalization with overlap
     ethr =  1.96E-07,  avg # of iterations =  6.2

     total cpu time spent up to now is       95.8 secs

     total energy              =    -344.86093508 Ry
     estimated scf accuracy    <       0.00004597 Ry

     iteration # 12     ecut=    50.00 Ry     beta= 0.30
     Davidson diagonalization with overlap
     ethr =  1.28E-07,  avg # of iterations =  1.4

     total cpu time spent up to now is      100.8 secs

     total energy              =    -344.86092975 Ry
     estimated scf accuracy    <       0.00003316 Ry

     iteration # 13     ecut=    50.00 Ry     beta= 0.30
     Davidson diagonalization with overlap
     ethr =  9.21E-08,  avg # of iterations =  2.1

     total cpu time spent up to now is      106.3 secs

     total energy              =    -344.86093070 Ry
     estimated scf accuracy    <       0.00001229 Ry

     iteration # 14     ecut=    50.00 Ry     beta= 0.30
     Davidson diagonalization with overlap
     ethr =  3.41E-08,  avg # of iterations =  3.7

     total cpu time spent up to now is      112.5 secs

     total energy              =    -344.86093078 Ry
     estimated scf accuracy    <       0.00000433 Ry

     iteration # 15     ecut=    50.00 Ry     beta= 0.30
     Davidson diagonalization with overlap
     ethr =  1.20E-08,  avg # of iterations =  5.4

     total cpu time spent up to now is      120.4 secs

     total energy              =    -344.86093244 Ry
     estimated scf accuracy    <       0.00000017 Ry

     iteration # 16     ecut=    50.00 Ry     beta= 0.30
     Davidson diagonalization with overlap
     ethr =  4.67E-10,  avg # of iterations =  5.2

     total cpu time spent up to now is      128.5 secs

     total energy              =    -344.86093248 Ry
     estimated scf accuracy    <       0.00000010 Ry

     iteration # 17     ecut=    50.00 Ry     beta= 0.30
     Davidson diagonalization with overlap
     ethr =  2.65E-10,  avg # of iterations =  5.2

     total cpu time spent up to now is      136.2 secs

     End of self-consistent calculation

     Number of k-points >= 100: set verbosity='high' to print the bands.

     highest occupied level (ev):     7.7118

!    total energy              =    -344.86093251 Ry
     estimated scf accuracy    <          7.3E-09 Ry

     The total energy is the sum of the following terms:
     one-electron contribution =    -250.69044322 Ry
     hartree contribution      =     159.13512258 Ry
     xc contribution           =    -112.56747720 Ry
     ewald contribution        =    -140.73813467 Ry

     convergence has been achieved in  17 iterations

     Forces acting on atoms (cartesian axes, Ry/au):

     atom    1 type  1   force =   -17.91868758   -6.09917973  -33.45217359
     atom    2 type  1   force =    -1.17306927   -0.71177524   -3.35090706
     atom    3 type  2   force =    17.91860214    6.11544388   33.46772499
     atom    4 type  2   force =     1.17315470    0.69551109    3.33535567
     The non-local contrib.  to forces
     atom    1 type  1   force =     7.87783314    2.66862826   14.98892967
     atom    2 type  1   force =    -0.23776445   -0.13501955   -0.77872526
     atom    3 type  2   force =    -2.15329085   -0.46909099   -3.72725173
     atom    4 type  2   force =    -0.41130410   -0.13943977   -1.21167402
     The ionic contribution  to forces
     atom    1 type  1   force =   -41.67915022  -13.66826397  -79.24073275
     atom    2 type  1   force =    -7.35081082   -3.59737766  -17.64311282
     atom    3 type  2   force =    40.59155590   12.98910914   74.58384528
     atom    4 type  2   force =     8.43840514    4.27653250   22.30000029
     The local contribution  to forces
     atom    1 type  1   force =    15.30781455    4.70737220   29.72962591
     atom    2 type  1   force =     6.31416290    2.96821574   14.78159803
     atom    3 type  2   force =   -20.47776086   -6.38867459  -37.30981674
     atom    4 type  2   force =    -6.85259004   -3.44001909  -17.74986046
     The core correction contribution to forces
     atom    1 type  1   force =     0.57470689    0.19303250    1.06977032
     atom    2 type  1   force =     0.10148066    0.05250366    0.28971539
     atom    3 type  2   force =    -0.04184138   -0.01589083   -0.07896107
     atom    4 type  2   force =    -0.00134485   -0.00157547   -0.00305886
     The Hubbard contrib.    to forces
     atom    1 type  1   force =     0.00000000    0.00000000    0.00000000
     atom    2 type  1   force =     0.00000000    0.00000000    0.00000000
     atom    3 type  2   force =     0.00000000    0.00000000    0.00000000
     atom    4 type  2   force =     0.00000000    0.00000000    0.00000000
     The SCF correction term to forces
     atom    1 type  1   force =     0.00012256    0.00004755    0.00025004
     atom    2 type  1   force =    -0.00012305   -0.00010117   -0.00036563
     atom    3 type  2   force =    -0.00004616   -0.00001259   -0.00007398
     atom    4 type  2   force =     0.00000306    0.00000919   -0.00003451

     Total force =    54.607571     Total SCF correction =     0.000498

     Writing all to output data dir ./ZnO_ANN.save/

     init_run     :      3.61s CPU      3.73s WALL (       1 calls)
     electrons    :    129.79s CPU    132.05s WALL (       1 calls)
     forces       :      1.20s CPU      1.21s WALL (       1 calls)

     Called by init_run:
     wfcinit      :      2.67s CPU      2.74s WALL (       1 calls)
     potinit      :      0.32s CPU      0.32s WALL (       1 calls)
     hinit0       :      0.54s CPU      0.56s WALL (       1 calls)

     Called by electrons:
     c_bands      :    115.37s CPU    117.30s WALL (      17 calls)
     sum_band     :     12.99s CPU     13.27s WALL (      17 calls)
     v_of_rho     :      0.34s CPU      0.37s WALL (      18 calls)
     newd         :      1.09s CPU      1.12s WALL (      18 calls)
     mix_rho      :      0.05s CPU      0.05s WALL (      17 calls)

     Called by c_bands:
     init_us_2    :      0.93s CPU      0.94s WALL (    4032 calls)
     init_us_2:cp :      0.91s CPU      0.93s WALL (    4032 calls)
     cegterg      :    112.43s CPU    114.32s WALL (    1904 calls)

     Called by *egterg:
     cdiaghg      :     11.70s CPU     11.78s WALL (   10775 calls)
     h_psi        :     67.65s CPU     69.15s WALL (   10887 calls)
     s_psi        :      7.52s CPU      7.57s WALL (   10887 calls)
     g_psi        :      0.22s CPU      0.22s WALL (    8871 calls)

     Called by h_psi:
     h_psi:calbec :      9.02s CPU      9.32s WALL (   10887 calls)
     vloc_psi     :     50.91s CPU     52.03s WALL (   10887 calls)
     add_vuspsi   :      7.52s CPU      7.60s WALL (   10887 calls)

     General routines
     calbec       :     12.41s CPU     12.80s WALL (   13239 calls)
     fft          :      0.45s CPU      0.48s WALL (     243 calls)
     ffts         :      0.11s CPU      0.11s WALL (      35 calls)
     fftw         :     51.97s CPU     53.12s WALL (  251024 calls)
     interpolate  :      0.12s CPU      0.13s WALL (      18 calls)

     Parallel routines

     PWSCF        :   2m15.34s CPU   2m17.99s WALL


   This run was terminated on:  18: 2:18  24Jun2025            

=------------------------------------------------------------------------------=
   JOB DONE.
=------------------------------------------------------------------------------=
Note: The following floating-point exceptions are signalling: IEEE_INVALID_FLAG
