
     Program PWSCF v.7.2 starts on 24Jun2025 at 17:24:38 

     This program is part of the open-source Quantum ESPRESSO suite
     for quantum simulation of materials; please cite
         "P. Giannozzi et al., J. Phys.:Condens. Matter 21 395502 (2009);
         "P. Giannozzi et al., J. Phys.:Condens. Matter 29 465901 (2017);
         "P. Giannozzi et al., J. Chem. Phys. 152 154105 (2020);
          URL http://www.quantum-espresso.org", 
     in publications or presentations arising from this work. More details at
     http://www.quantum-espresso.org/quote

     Parallel version (MPI), running on     8 processors

     MPI processes distributed on     1 nodes
     90939 MiB available memory on the printing compute node when the environment starts

     Reading input from /home/jvc/QEspresso7.2/ZnO_DataBase/scf_025_NOSYM.in/scf-6.30-1.45-0.25-2.in

     Current dimensions of program PWSCF are:
     Max number of different atomic species (ntypx) = 10
     Max number of k-points (npk) =  40000
     Max angular momentum in pseudopotentials (lmaxx) =  4
     file Zn.upf: wavefunction(s)  3D renormalized

     R & G space division:  proc/nbgrp/npool/nimage =       8
     Subspace diagonalization in iterative solution of the eigenvalue problem:
     a serial algorithm will be used


     Parallelization info
     --------------------
     sticks:   dense  smooth     PW     G-vecs:    dense   smooth      PW
     Min         137      68     20                 5853     2068     346
     Max         138      69     21                 5856     2075     353
     Sum        1099     547    163                46835    16563    2791

     Using Slab Decomposition



     bravais-lattice index     =            0
     lattice parameter (alat)  =       6.3024  a.u.
     unit-cell volume          =     346.8711 (a.u.)^3
     number of atoms/cell      =            4
     number of atomic types    =            2
     number of electrons       =        36.00
     number of Kohn-Sham states=           18
     kinetic-energy cutoff     =      50.0000  Ry
     charge density cutoff     =     400.0000  Ry
     scf convergence threshold =      1.0E-08
     mixing beta               =       0.3000
     number of iterations used =            8  plain     mixing
     Exchange-correlation= PBE
                           (   1   4   3   4   0   0   0)

     celldm(1)=   6.302398  celldm(2)=   0.000000  celldm(3)=   0.000000
     celldm(4)=   0.000000  celldm(5)=   0.000000  celldm(6)=   0.000000

     crystal axes: (cart. coord. in units of alat)
               a(1) = (   1.000000   0.000000   0.000000 )  
               a(2) = (  -0.500000   0.866025   0.000000 )  
               a(3) = (   0.000000   0.000000   1.600000 )  

     reciprocal axes: (cart. coord. in units 2 pi/alat)
               b(1) = (  1.000000  0.577350 -0.000000 )  
               b(2) = (  0.000000  1.154701  0.000000 )  
               b(3) = (  0.000000 -0.000000  0.625000 )  


     PseudoPot. # 1 for Zn read from file:
     ./pseudos/Zn.upf
     MD5 check sum: 7f56cabf9682ed8c977c2f7d0c5985c5
     Pseudo is Ultrasoft + core correction, Zval = 12.0
     Generated using &quot;atomic&quot; code by A. Dal Corso  v.6.2.2
     Using radial grid of 1201 points,  6 beta functions with: 
                l(1) =   0
                l(2) =   0
                l(3) =   1
                l(4) =   1
                l(5) =   2
                l(6) =   2
     Q(r) pseudized with 0 coefficients 


     PseudoPot. # 2 for O  read from file:
     ./pseudos/O.upf
     MD5 check sum: 91400c9766925bcf19f520983a725ff0
     Pseudo is Ultrasoft + core correction, Zval =  6.0
     Generated using &quot;atomic&quot; code by A. Dal Corso  v.6.3MaX
     Using radial grid of 1095 points,  4 beta functions with: 
                l(1) =   0
                l(2) =   0
                l(3) =   1
                l(4) =   1
     Q(r) pseudized with 0 coefficients 


     atomic species   valence    mass     pseudopotential
        Zn            12.00    63.38000     Zn( 1.00)
        O              6.00    15.99900     O ( 1.00)

     No symmetry found



   Cartesian axes

     site n.     atom                  positions (alat units)
         1           Zn  tau(   1) = (   0.8450431   0.0753127   0.6625534  )
         2           Zn  tau(   2) = (  -0.1606266   0.7183907   0.3965315  )
         3           O   tau(   3) = (   0.6635964   0.3692883   1.4408387  )
         4           O   tau(   4) = (  -0.2539954   0.7118579   0.7894158  )

     number of k points=   112

     Number of k-points >= 100: set verbosity='high' to print them.

     Dense  grid:    46835 G-vectors     FFT dimensions: (  45,  45,  72)

     Smooth grid:    16563 G-vectors     FFT dimensions: (  30,  30,  45)

     Estimated max dynamical RAM per process >      32.29 MB

     Estimated total dynamical RAM >     258.31 MB

     Check: negative core charge=   -0.000003

     Initial potential from superposition of free atoms

     starting charge      35.9925, renormalised to      36.0000
     Starting wfcs are   26 randomized atomic wfcs

     total cpu time spent up to now is        4.2 secs

     Self-consistent Calculation

     iteration #  1     ecut=    50.00 Ry     beta= 0.30
     Davidson diagonalization with overlap
     ethr =  1.00E-02,  avg # of iterations =  2.0

     total cpu time spent up to now is       10.0 secs

     total energy              =    -360.03732145 Ry
     estimated scf accuracy    <       1.53338145 Ry

     iteration #  2     ecut=    50.00 Ry     beta= 0.30
     Davidson diagonalization with overlap
     ethr =  4.26E-03,  avg # of iterations =  8.0

     total cpu time spent up to now is       18.5 secs

     total energy              =    -360.26875489 Ry
     estimated scf accuracy    <       1.78946614 Ry

     iteration #  3     ecut=    50.00 Ry     beta= 0.30
     Davidson diagonalization with overlap
     ethr =  4.26E-03,  avg # of iterations =  1.4

     total cpu time spent up to now is       23.6 secs

     total energy              =    -359.76079495 Ry
     estimated scf accuracy    <       1.01743986 Ry

     iteration #  4     ecut=    50.00 Ry     beta= 0.30
     Davidson diagonalization with overlap
     ethr =  2.83E-03,  avg # of iterations =  8.8

     total cpu time spent up to now is       36.2 secs

     total energy              =    -360.71028035 Ry
     estimated scf accuracy    <       3.05766158 Ry

     iteration #  5     ecut=    50.00 Ry     beta= 0.30
     Davidson diagonalization with overlap
     ethr =  2.83E-03,  avg # of iterations =  1.7

     total cpu time spent up to now is       41.4 secs

     total energy              =    -360.46202822 Ry
     estimated scf accuracy    <       1.99123980 Ry

     iteration #  6     ecut=    50.00 Ry     beta= 0.30
     Davidson diagonalization with overlap
     ethr =  2.83E-03,  avg # of iterations =  2.2

     total cpu time spent up to now is       47.0 secs

     total energy              =    -360.54632154 Ry
     estimated scf accuracy    <       1.11887605 Ry

     iteration #  7     ecut=    50.00 Ry     beta= 0.30
     Davidson diagonalization with overlap
     ethr =  2.83E-03,  avg # of iterations =  1.1

     total cpu time spent up to now is       51.9 secs

     total energy              =    -361.06768268 Ry
     estimated scf accuracy    <       1.04186967 Ry

     iteration #  8     ecut=    50.00 Ry     beta= 0.30
     Davidson diagonalization with overlap
     ethr =  2.83E-03,  avg # of iterations =  2.0

     total cpu time spent up to now is       57.4 secs

     total energy              =    -361.22313477 Ry
     estimated scf accuracy    <       2.02662187 Ry

     iteration #  9     ecut=    50.00 Ry     beta= 0.30
     Davidson diagonalization with overlap
     ethr =  2.83E-03,  avg # of iterations =  2.9

     total cpu time spent up to now is       63.1 secs

     total energy              =    -360.13489862 Ry
     estimated scf accuracy    <       2.81875137 Ry

     iteration # 10     ecut=    50.00 Ry     beta= 0.30
     Davidson diagonalization with overlap
     ethr =  2.83E-03,  avg # of iterations =  9.3

     total cpu time spent up to now is       71.9 secs

     total energy              =    -360.78330339 Ry
     estimated scf accuracy    <       1.43128091 Ry

     iteration # 11     ecut=    50.00 Ry     beta= 0.30
     Davidson diagonalization with overlap
     ethr =  2.83E-03,  avg # of iterations =  1.0

     total cpu time spent up to now is       76.8 secs

     total energy              =    -360.60256704 Ry
     estimated scf accuracy    <       1.67817780 Ry

     iteration # 12     ecut=    50.00 Ry     beta= 0.30
     Davidson diagonalization with overlap
     ethr =  2.83E-03,  avg # of iterations =  1.0

     total cpu time spent up to now is       81.5 secs

     total energy              =    -360.86283156 Ry
     estimated scf accuracy    <       1.40369653 Ry

     iteration # 13     ecut=    50.00 Ry     beta= 0.30
     Davidson diagonalization with overlap
     ethr =  2.83E-03,  avg # of iterations =  1.1

     total cpu time spent up to now is       86.2 secs

     total energy              =    -361.21449008 Ry
     estimated scf accuracy    <       1.85407229 Ry

     iteration # 14     ecut=    50.00 Ry     beta= 0.30
     Davidson diagonalization with overlap
     ethr =  2.83E-03,  avg # of iterations =  8.8

     total cpu time spent up to now is       93.9 secs

     total energy              =    -365.00113841 Ry
     estimated scf accuracy    <      10.62177691 Ry

     iteration # 15     ecut=    50.00 Ry     beta= 0.30
     Davidson diagonalization with overlap
     ethr =  2.83E-03,  avg # of iterations =  8.2

     total cpu time spent up to now is      101.4 secs

     total energy              =    -363.38578018 Ry
     estimated scf accuracy    <      24.04928557 Ry

     iteration # 16     ecut=    50.00 Ry     beta= 0.30
     Davidson diagonalization with overlap
     ethr =  2.83E-03,  avg # of iterations =  2.0

     total cpu time spent up to now is      106.7 secs

     total energy              =    -362.23663774 Ry
     estimated scf accuracy    <      20.04954222 Ry

     iteration # 17     ecut=    50.00 Ry     beta= 0.30
     Davidson diagonalization with overlap
     ethr =  2.83E-03,  avg # of iterations =  2.4

     total cpu time spent up to now is      112.0 secs

     total energy              =    -359.61551772 Ry
     estimated scf accuracy    <      17.72883851 Ry

     iteration # 18     ecut=    50.00 Ry     beta= 0.30
     Davidson diagonalization with overlap
     ethr =  2.83E-03,  avg # of iterations =  8.5

     total cpu time spent up to now is      120.4 secs

     total energy              =    -359.09267690 Ry
     estimated scf accuracy    <       1.87891604 Ry

     iteration # 19     ecut=    50.00 Ry     beta= 0.30
     Davidson diagonalization with overlap
     ethr =  2.83E-03,  avg # of iterations = 10.9

     total cpu time spent up to now is      134.4 secs

     total energy              =    -359.69483339 Ry
     estimated scf accuracy    <       7.21363726 Ry

     iteration # 20     ecut=    50.00 Ry     beta= 0.30
     Davidson diagonalization with overlap
     ethr =  2.83E-03,  avg # of iterations =  7.0

     total cpu time spent up to now is      142.5 secs

     total energy              =    -360.48341120 Ry
     estimated scf accuracy    <       0.36776871 Ry

     iteration # 21     ecut=    50.00 Ry     beta= 0.30
     Davidson diagonalization with overlap
     ethr =  1.02E-03,  avg # of iterations =  2.3

     total cpu time spent up to now is      147.8 secs

     total energy              =    -360.63839934 Ry
     estimated scf accuracy    <       0.32041182 Ry

     iteration # 22     ecut=    50.00 Ry     beta= 0.30
     Davidson diagonalization with overlap
     ethr =  8.90E-04,  avg # of iterations =  4.7

     total cpu time spent up to now is      154.2 secs

     total energy              =    -360.64821978 Ry
     estimated scf accuracy    <       0.92727715 Ry

     iteration # 23     ecut=    50.00 Ry     beta= 0.30
     Davidson diagonalization with overlap
     ethr =  8.90E-04,  avg # of iterations =  1.0

     total cpu time spent up to now is      158.9 secs

     total energy              =    -360.78609586 Ry
     estimated scf accuracy    <       0.88004577 Ry

     iteration # 24     ecut=    50.00 Ry     beta= 0.30
     Davidson diagonalization with overlap
     ethr =  8.90E-04,  avg # of iterations =  2.0

     total cpu time spent up to now is      164.0 secs

     total energy              =    -360.89717299 Ry
     estimated scf accuracy    <       1.27236616 Ry

     iteration # 25     ecut=    50.00 Ry     beta= 0.30
     Davidson diagonalization with overlap
     ethr =  8.90E-04,  avg # of iterations =  1.9

     total cpu time spent up to now is      169.1 secs

     total energy              =    -360.24622811 Ry
     estimated scf accuracy    <       1.61913067 Ry

     iteration # 26     ecut=    50.00 Ry     beta= 0.30
     Davidson diagonalization with overlap
     ethr =  8.90E-04,  avg # of iterations =  8.7

     total cpu time spent up to now is      177.5 secs

     total energy              =    -360.51074221 Ry
     estimated scf accuracy    <       0.35209051 Ry

     iteration # 27     ecut=    50.00 Ry     beta= 0.30
     Davidson diagonalization with overlap
     ethr =  8.90E-04,  avg # of iterations =  1.0

     total cpu time spent up to now is      182.1 secs

     total energy              =    -360.58679125 Ry
     estimated scf accuracy    <       0.28280048 Ry

     iteration # 28     ecut=    50.00 Ry     beta= 0.30
     Davidson diagonalization with overlap
     ethr =  7.86E-04,  avg # of iterations =  1.2

     total cpu time spent up to now is      186.8 secs

     total energy              =    -360.61325506 Ry
     estimated scf accuracy    <       0.41394993 Ry

     iteration # 29     ecut=    50.00 Ry     beta= 0.30
     Davidson diagonalization with overlap
     ethr =  7.86E-04,  avg # of iterations =  2.1

     total cpu time spent up to now is      192.0 secs

     total energy              =    -360.70119996 Ry
     estimated scf accuracy    <       0.63601758 Ry

     iteration # 30     ecut=    50.00 Ry     beta= 0.30
     Davidson diagonalization with overlap
     ethr =  7.86E-04,  avg # of iterations =  7.6

     total cpu time spent up to now is      199.1 secs

     total energy              =    -360.90946110 Ry
     estimated scf accuracy    <       2.69033663 Ry

     iteration # 31     ecut=    50.00 Ry     beta= 0.30
     Davidson diagonalization with overlap
     ethr =  7.86E-04,  avg # of iterations =  4.0

     total cpu time spent up to now is      204.8 secs

     total energy              =    -360.95948362 Ry
     estimated scf accuracy    <       4.10253984 Ry

     iteration # 32     ecut=    50.00 Ry     beta= 0.30
     Davidson diagonalization with overlap
     ethr =  7.86E-04,  avg # of iterations =  1.6

     total cpu time spent up to now is      209.6 secs

     total energy              =    -360.83852812 Ry
     estimated scf accuracy    <       4.31089197 Ry

     iteration # 33     ecut=    50.00 Ry     beta= 0.30
     Davidson diagonalization with overlap
     ethr =  7.86E-04,  avg # of iterations =  1.1

     total cpu time spent up to now is      214.2 secs

     total energy              =    -360.34034600 Ry
     estimated scf accuracy    <       4.10366115 Ry

     iteration # 34     ecut=    50.00 Ry     beta= 0.30
     Davidson diagonalization with overlap
     ethr =  7.86E-04,  avg # of iterations =  8.0

     total cpu time spent up to now is      222.1 secs

     total energy              =    -360.45994333 Ry
     estimated scf accuracy    <       0.38008206 Ry

     iteration # 35     ecut=    50.00 Ry     beta= 0.30
     Davidson diagonalization with overlap
     ethr =  7.86E-04,  avg # of iterations =  1.4

     total cpu time spent up to now is      226.8 secs

     total energy              =    -360.47432465 Ry
     estimated scf accuracy    <       0.26001708 Ry

     iteration # 36     ecut=    50.00 Ry     beta= 0.30
     Davidson diagonalization with overlap
     ethr =  7.22E-04,  avg # of iterations =  1.1

     total cpu time spent up to now is      231.5 secs

     total energy              =    -360.46703235 Ry
     estimated scf accuracy    <       0.25561067 Ry

     iteration # 37     ecut=    50.00 Ry     beta= 0.30
     Davidson diagonalization with overlap
     ethr =  7.10E-04,  avg # of iterations =  1.5

     total cpu time spent up to now is      236.3 secs

     total energy              =    -360.49934401 Ry
     estimated scf accuracy    <       0.20324770 Ry

     iteration # 38     ecut=    50.00 Ry     beta= 0.30
     Davidson diagonalization with overlap
     ethr =  5.65E-04,  avg # of iterations =  1.0

     total cpu time spent up to now is      241.0 secs

     total energy              =    -360.63547761 Ry
     estimated scf accuracy    <       0.23541587 Ry

     iteration # 39     ecut=    50.00 Ry     beta= 0.30
     Davidson diagonalization with overlap
     ethr =  5.65E-04,  avg # of iterations =  8.8

     total cpu time spent up to now is      249.1 secs

     total energy              =    -360.79042728 Ry
     estimated scf accuracy    <       3.13926378 Ry

     iteration # 40     ecut=    50.00 Ry     beta= 0.30
     Davidson diagonalization with overlap
     ethr =  5.65E-04,  avg # of iterations =  1.2

     total cpu time spent up to now is      253.8 secs

     total energy              =    -360.79522426 Ry
     estimated scf accuracy    <       3.20912049 Ry

     iteration # 41     ecut=    50.00 Ry     beta= 0.30
     Davidson diagonalization with overlap
     ethr =  5.65E-04,  avg # of iterations =  1.0

     total cpu time spent up to now is      258.3 secs

     total energy              =    -360.69321513 Ry
     estimated scf accuracy    <       3.22930149 Ry

     iteration # 42     ecut=    50.00 Ry     beta= 0.30
     Davidson diagonalization with overlap
     ethr =  5.65E-04,  avg # of iterations =  1.0

     total cpu time spent up to now is      262.9 secs

     total energy              =    -360.66324908 Ry
     estimated scf accuracy    <       3.04166102 Ry

     iteration # 43     ecut=    50.00 Ry     beta= 0.30
     Davidson diagonalization with overlap
     ethr =  5.65E-04,  avg # of iterations =  1.1

     total cpu time spent up to now is      267.5 secs

     total energy              =    -360.76184634 Ry
     estimated scf accuracy    <       2.88077803 Ry

     iteration # 44     ecut=    50.00 Ry     beta= 0.30
     Davidson diagonalization with overlap
     ethr =  5.65E-04,  avg # of iterations =  1.0

     total cpu time spent up to now is      272.1 secs

     total energy              =    -360.17339012 Ry
     estimated scf accuracy    <       3.02668003 Ry

     iteration # 45     ecut=    50.00 Ry     beta= 0.30
     Davidson diagonalization with overlap
     ethr =  5.65E-04,  avg # of iterations =  9.6

     total cpu time spent up to now is      280.6 secs

     total energy              =    -360.48062647 Ry
     estimated scf accuracy    <       0.08034777 Ry

     iteration # 46     ecut=    50.00 Ry     beta= 0.30
     Davidson diagonalization with overlap
     ethr =  2.23E-04,  avg # of iterations =  8.0

     total cpu time spent up to now is      288.6 secs

     total energy              =    -360.46557564 Ry
     estimated scf accuracy    <       0.23784657 Ry

     iteration # 47     ecut=    50.00 Ry     beta= 0.30
     Davidson diagonalization with overlap
     ethr =  2.23E-04,  avg # of iterations =  7.9

     total cpu time spent up to now is      296.4 secs

     total energy              =    -360.50492605 Ry
     estimated scf accuracy    <       0.08293673 Ry

     iteration # 48     ecut=    50.00 Ry     beta= 0.30
     Davidson diagonalization with overlap
     ethr =  2.23E-04,  avg # of iterations =  1.1

     total cpu time spent up to now is      301.2 secs

     total energy              =    -360.49839032 Ry
     estimated scf accuracy    <       0.04968733 Ry

     iteration # 49     ecut=    50.00 Ry     beta= 0.30
     Davidson diagonalization with overlap
     ethr =  1.38E-04,  avg # of iterations =  8.3

     total cpu time spent up to now is      309.1 secs

     total energy              =    -360.52099877 Ry
     estimated scf accuracy    <       0.04274916 Ry

     iteration # 50     ecut=    50.00 Ry     beta= 0.30
     Davidson diagonalization with overlap
     ethr =  1.19E-04,  avg # of iterations =  1.6

     total cpu time spent up to now is      314.3 secs

     total energy              =    -360.51850478 Ry
     estimated scf accuracy    <       0.05335052 Ry

     iteration # 51     ecut=    50.00 Ry     beta= 0.30
     Davidson diagonalization with overlap
     ethr =  1.19E-04,  avg # of iterations =  1.0

     total cpu time spent up to now is      319.3 secs

     total energy              =    -360.51215408 Ry
     estimated scf accuracy    <       0.04871162 Ry

     iteration # 52     ecut=    50.00 Ry     beta= 0.30
     Davidson diagonalization with overlap
     ethr =  1.19E-04,  avg # of iterations =  1.0

     total cpu time spent up to now is      324.2 secs

     total energy              =    -360.51245983 Ry
     estimated scf accuracy    <       0.03419269 Ry

     iteration # 53     ecut=    50.00 Ry     beta= 0.30
     Davidson diagonalization with overlap
     ethr =  9.50E-05,  avg # of iterations =  1.0

     total cpu time spent up to now is      328.8 secs

     total energy              =    -360.51177747 Ry
     estimated scf accuracy    <       0.03214831 Ry

     iteration # 54     ecut=    50.00 Ry     beta= 0.30
     Davidson diagonalization with overlap
     ethr =  8.93E-05,  avg # of iterations =  1.0

     total cpu time spent up to now is      333.5 secs

     total energy              =    -360.51185427 Ry
     estimated scf accuracy    <       0.02681429 Ry

     iteration # 55     ecut=    50.00 Ry     beta= 0.30
     Davidson diagonalization with overlap
     ethr =  7.45E-05,  avg # of iterations =  1.8

     total cpu time spent up to now is      338.5 secs

     total energy              =    -360.51317467 Ry
     estimated scf accuracy    <       0.02104976 Ry

     iteration # 56     ecut=    50.00 Ry     beta= 0.30
     Davidson diagonalization with overlap
     ethr =  5.85E-05,  avg # of iterations =  1.3

     total cpu time spent up to now is      343.3 secs

     total energy              =    -360.51263420 Ry
     estimated scf accuracy    <       0.01996846 Ry

     iteration # 57     ecut=    50.00 Ry     beta= 0.30
     Davidson diagonalization with overlap
     ethr =  5.55E-05,  avg # of iterations =  1.0

     total cpu time spent up to now is      348.0 secs

     total energy              =    -360.51338075 Ry
     estimated scf accuracy    <       0.01701764 Ry

     iteration # 58     ecut=    50.00 Ry     beta= 0.30
     Davidson diagonalization with overlap
     ethr =  4.73E-05,  avg # of iterations =  1.2

     total cpu time spent up to now is      352.8 secs

     total energy              =    -360.51061458 Ry
     estimated scf accuracy    <       0.01572343 Ry

     iteration # 59     ecut=    50.00 Ry     beta= 0.30
     Davidson diagonalization with overlap
     ethr =  4.37E-05,  avg # of iterations =  4.5

     total cpu time spent up to now is      358.6 secs

     total energy              =    -360.51211979 Ry
     estimated scf accuracy    <       0.00130076 Ry

     iteration # 60     ecut=    50.00 Ry     beta= 0.30
     Davidson diagonalization with overlap
     c_bands:  2 eigenvalues not converged
     c_bands:  2 eigenvalues not converged
     c_bands:  1 eigenvalues not converged
     c_bands:  1 eigenvalues not converged
     c_bands:  2 eigenvalues not converged
     ethr =  3.61E-06,  avg # of iterations =  9.7

     total cpu time spent up to now is      367.4 secs

     total energy              =    -360.51600241 Ry
     estimated scf accuracy    <       0.01699402 Ry

     iteration # 61     ecut=    50.00 Ry     beta= 0.30
     Davidson diagonalization with overlap
     ethr =  3.61E-06,  avg # of iterations =  1.5

     total cpu time spent up to now is      372.2 secs

     total energy              =    -360.51607712 Ry
     estimated scf accuracy    <       0.01599740 Ry

     iteration # 62     ecut=    50.00 Ry     beta= 0.30
     Davidson diagonalization with overlap
     ethr =  3.61E-06,  avg # of iterations =  1.0

     total cpu time spent up to now is      376.9 secs

     total energy              =    -360.51472325 Ry
     estimated scf accuracy    <       0.01540370 Ry

     iteration # 63     ecut=    50.00 Ry     beta= 0.30
     Davidson diagonalization with overlap
     ethr =  3.61E-06,  avg # of iterations =  8.0

     total cpu time spent up to now is      384.1 secs

     total energy              =    -360.51502898 Ry
     estimated scf accuracy    <       0.00356152 Ry

     iteration # 64     ecut=    50.00 Ry     beta= 0.30
     Davidson diagonalization with overlap
     ethr =  3.61E-06,  avg # of iterations =  1.8

     total cpu time spent up to now is      389.1 secs

     total energy              =    -360.51522857 Ry
     estimated scf accuracy    <       0.00291268 Ry

     iteration # 65     ecut=    50.00 Ry     beta= 0.30
     Davidson diagonalization with overlap
     ethr =  3.61E-06,  avg # of iterations =  1.0

     total cpu time spent up to now is      393.7 secs

     total energy              =    -360.51514801 Ry
     estimated scf accuracy    <       0.00319942 Ry

     iteration # 66     ecut=    50.00 Ry     beta= 0.30
     Davidson diagonalization with overlap
     ethr =  3.61E-06,  avg # of iterations =  1.2

     total cpu time spent up to now is      398.4 secs

     total energy              =    -360.51489788 Ry
     estimated scf accuracy    <       0.00298175 Ry

     iteration # 67     ecut=    50.00 Ry     beta= 0.30
     Davidson diagonalization with overlap
     ethr =  3.61E-06,  avg # of iterations =  2.1

     total cpu time spent up to now is      403.4 secs

     total energy              =    -360.51517319 Ry
     estimated scf accuracy    <       0.00172566 Ry

     iteration # 68     ecut=    50.00 Ry     beta= 0.30
     Davidson diagonalization with overlap
     ethr =  3.61E-06,  avg # of iterations =  1.0

     total cpu time spent up to now is      408.0 secs

     total energy              =    -360.51500821 Ry
     estimated scf accuracy    <       0.00212299 Ry

     iteration # 69     ecut=    50.00 Ry     beta= 0.30
     Davidson diagonalization with overlap
     ethr =  3.61E-06,  avg # of iterations =  1.0

     total cpu time spent up to now is      412.6 secs

     total energy              =    -360.51489434 Ry
     estimated scf accuracy    <       0.00180085 Ry

     iteration # 70     ecut=    50.00 Ry     beta= 0.30
     Davidson diagonalization with overlap
     ethr =  3.61E-06,  avg # of iterations =  1.9

     total cpu time spent up to now is      417.8 secs

     total energy              =    -360.51469016 Ry
     estimated scf accuracy    <       0.00120247 Ry

     iteration # 71     ecut=    50.00 Ry     beta= 0.30
     Davidson diagonalization with overlap
     ethr =  3.34E-06,  avg # of iterations =  8.3

     total cpu time spent up to now is      425.2 secs

     total energy              =    -360.51497406 Ry
     estimated scf accuracy    <       0.00043205 Ry

     iteration # 72     ecut=    50.00 Ry     beta= 0.30
     Davidson diagonalization with overlap
     ethr =  1.20E-06,  avg # of iterations =  2.6

     total cpu time spent up to now is      430.5 secs

     total energy              =    -360.51493099 Ry
     estimated scf accuracy    <       0.00043160 Ry

     iteration # 73     ecut=    50.00 Ry     beta= 0.30
     Davidson diagonalization with overlap
     ethr =  1.20E-06,  avg # of iterations =  4.6

     total cpu time spent up to now is      436.4 secs

     total energy              =    -360.51495972 Ry
     estimated scf accuracy    <       0.00006310 Ry

     iteration # 74     ecut=    50.00 Ry     beta= 0.30
     Davidson diagonalization with overlap
     ethr =  1.75E-07,  avg # of iterations =  7.3

     total cpu time spent up to now is      443.9 secs

     total energy              =    -360.51499512 Ry
     estimated scf accuracy    <       0.00004862 Ry

     iteration # 75     ecut=    50.00 Ry     beta= 0.30
     Davidson diagonalization with overlap
     ethr =  1.35E-07,  avg # of iterations =  1.5

     total cpu time spent up to now is      448.9 secs

     total energy              =    -360.51499474 Ry
     estimated scf accuracy    <       0.00002675 Ry

     iteration # 76     ecut=    50.00 Ry     beta= 0.30
     Davidson diagonalization with overlap
     ethr =  7.43E-08,  avg # of iterations =  3.2

     total cpu time spent up to now is      454.5 secs

     total energy              =    -360.51499427 Ry
     estimated scf accuracy    <       0.00001133 Ry

     iteration # 77     ecut=    50.00 Ry     beta= 0.30
     Davidson diagonalization with overlap
     ethr =  3.15E-08,  avg # of iterations =  8.2

     total cpu time spent up to now is      462.3 secs

     total energy              =    -360.51499881 Ry
     estimated scf accuracy    <       0.00001668 Ry

     iteration # 78     ecut=    50.00 Ry     beta= 0.30
     Davidson diagonalization with overlap
     ethr =  3.15E-08,  avg # of iterations =  1.0

     total cpu time spent up to now is      467.0 secs

     total energy              =    -360.51499558 Ry
     estimated scf accuracy    <       0.00001228 Ry

     iteration # 79     ecut=    50.00 Ry     beta= 0.30
     Davidson diagonalization with overlap
     ethr =  3.15E-08,  avg # of iterations =  7.8

     total cpu time spent up to now is      474.7 secs

     total energy              =    -360.51499939 Ry
     estimated scf accuracy    <       0.00001375 Ry

     iteration # 80     ecut=    50.00 Ry     beta= 0.30
     Davidson diagonalization with overlap
     ethr =  3.15E-08,  avg # of iterations =  1.0

     total cpu time spent up to now is      479.4 secs

     total energy              =    -360.51499834 Ry
     estimated scf accuracy    <       0.00001128 Ry

     iteration # 81     ecut=    50.00 Ry     beta= 0.30
     Davidson diagonalization with overlap
     ethr =  3.13E-08,  avg # of iterations =  1.7

     total cpu time spent up to now is      484.5 secs

     total energy              =    -360.51499848 Ry
     estimated scf accuracy    <       0.00000753 Ry

     iteration # 82     ecut=    50.00 Ry     beta= 0.30
     Davidson diagonalization with overlap
     ethr =  2.09E-08,  avg # of iterations =  1.8

     total cpu time spent up to now is      489.7 secs

     total energy              =    -360.51499872 Ry
     estimated scf accuracy    <       0.00000618 Ry

     iteration # 83     ecut=    50.00 Ry     beta= 0.30
     Davidson diagonalization with overlap
     ethr =  1.72E-08,  avg # of iterations =  1.8

     total cpu time spent up to now is      494.9 secs

     total energy              =    -360.51499843 Ry
     estimated scf accuracy    <       0.00000504 Ry

     iteration # 84     ecut=    50.00 Ry     beta= 0.30
     Davidson diagonalization with overlap
     ethr =  1.40E-08,  avg # of iterations =  3.2

     total cpu time spent up to now is      500.4 secs

     total energy              =    -360.51499895 Ry
     estimated scf accuracy    <       0.00000174 Ry

     iteration # 85     ecut=    50.00 Ry     beta= 0.30
     Davidson diagonalization with overlap
     ethr =  4.83E-09,  avg # of iterations =  6.0

     total cpu time spent up to now is      507.1 secs

     total energy              =    -360.51499931 Ry
     estimated scf accuracy    <       0.00000003 Ry

     iteration # 86     ecut=    50.00 Ry     beta= 0.30
     Davidson diagonalization with overlap
     c_bands:  1 eigenvalues not converged
     c_bands:  2 eigenvalues not converged
     c_bands:  1 eigenvalues not converged
     c_bands:  2 eigenvalues not converged
     c_bands:  1 eigenvalues not converged
     c_bands:  3 eigenvalues not converged
     c_bands:  1 eigenvalues not converged
     c_bands:  1 eigenvalues not converged
     c_bands:  1 eigenvalues not converged
     ethr =  9.16E-11,  avg # of iterations = 12.9

     total cpu time spent up to now is      518.1 secs

     total energy              =    -360.51499946 Ry
     estimated scf accuracy    <       0.00000077 Ry

     iteration # 87     ecut=    50.00 Ry     beta= 0.30
     Davidson diagonalization with overlap
     ethr =  9.16E-11,  avg # of iterations =  1.6

     total cpu time spent up to now is      523.0 secs

     total energy              =    -360.51499947 Ry
     estimated scf accuracy    <       0.00000082 Ry

     iteration # 88     ecut=    50.00 Ry     beta= 0.30
     Davidson diagonalization with overlap
     ethr =  9.16E-11,  avg # of iterations =  1.0

     total cpu time spent up to now is      527.7 secs

     total energy              =    -360.51499944 Ry
     estimated scf accuracy    <       0.00000083 Ry

     iteration # 89     ecut=    50.00 Ry     beta= 0.30
     Davidson diagonalization with overlap
     ethr =  9.16E-11,  avg # of iterations =  1.0

     total cpu time spent up to now is      532.5 secs

     total energy              =    -360.51499940 Ry
     estimated scf accuracy    <       0.00000079 Ry

     iteration # 90     ecut=    50.00 Ry     beta= 0.30
     Davidson diagonalization with overlap
     ethr =  9.16E-11,  avg # of iterations =  6.4

     total cpu time spent up to now is      539.1 secs

     total energy              =    -360.51499940 Ry
     estimated scf accuracy    <       0.00000045 Ry

     iteration # 91     ecut=    50.00 Ry     beta= 0.30
     Davidson diagonalization with overlap
     ethr =  9.16E-11,  avg # of iterations =  1.5

     total cpu time spent up to now is      544.0 secs

     total energy              =    -360.51499939 Ry
     estimated scf accuracy    <       0.00000043 Ry

     iteration # 92     ecut=    50.00 Ry     beta= 0.30
     Davidson diagonalization with overlap
     ethr =  9.16E-11,  avg # of iterations =  2.1

     total cpu time spent up to now is      549.2 secs

     total energy              =    -360.51499938 Ry
     estimated scf accuracy    <       0.00000038 Ry

     iteration # 93     ecut=    50.00 Ry     beta= 0.30
     Davidson diagonalization with overlap
     ethr =  9.16E-11,  avg # of iterations =  4.1

     total cpu time spent up to now is      555.1 secs

     total energy              =    -360.51499934 Ry
     estimated scf accuracy    <       0.00000025 Ry

     iteration # 94     ecut=    50.00 Ry     beta= 0.30
     Davidson diagonalization with overlap
     ethr =  9.16E-11,  avg # of iterations =  8.4

     total cpu time spent up to now is      563.5 secs

     total energy              =    -360.51499937 Ry
     estimated scf accuracy    <       0.00000002 Ry

     iteration # 95     ecut=    50.00 Ry     beta= 0.30
     Davidson diagonalization with overlap
     ethr =  5.61E-11,  avg # of iterations =  1.1

     total cpu time spent up to now is      568.2 secs

     total energy              =    -360.51499937 Ry
     estimated scf accuracy    <       0.00000001 Ry

     iteration # 96     ecut=    50.00 Ry     beta= 0.30
     Davidson diagonalization with overlap
     ethr =  3.84E-11,  avg # of iterations =  8.4

     total cpu time spent up to now is      575.8 secs

     End of self-consistent calculation

     Number of k-points >= 100: set verbosity='high' to print the bands.

     highest occupied level (ev):     7.5500

!    total energy              =    -360.51499937 Ry
     estimated scf accuracy    <          6.6E-09 Ry

     The total energy is the sum of the following terms:
     one-electron contribution =    -239.54148708 Ry
     hartree contribution      =     156.84093674 Ry
     xc contribution           =    -109.66256243 Ry
     ewald contribution        =    -168.15188661 Ry

     convergence has been achieved in  96 iterations

     Forces acting on atoms (cartesian axes, Ry/au):

     atom    1 type  1   force =    -0.31757994    0.26268035    0.14222988
     atom    2 type  1   force =     0.32705923   -0.09071172   -1.65866879
     atom    3 type  2   force =     0.01420278   -0.00305141    0.13682390
     atom    4 type  2   force =    -0.02368207   -0.16891722    1.37961501
     The non-local contrib.  to forces
     atom    1 type  1   force =    -0.40255039    0.23689059   -0.10969055
     atom    2 type  1   force =     0.13408611    0.15234195   -0.23095416
     atom    3 type  2   force =     0.16022168    0.04642656    0.62893954
     atom    4 type  2   force =    -0.18127384    0.27092395   -1.62152592
     The ionic contribution  to forces
     atom    1 type  1   force =    -5.56265045    4.94031551   12.01315671
     atom    2 type  1   force =     4.70066231   -1.00366079  -34.60348535
     atom    3 type  2   force =    -0.74789509   -0.89519145   -4.39898619
     atom    4 type  2   force =     1.60988323   -3.04146326   26.98931483
     The local contribution  to forces
     atom    1 type  1   force =     5.59010463   -4.87463885  -11.75952310
     atom    2 type  1   force =    -4.46030296    0.76614180   32.99494004
     atom    3 type  2   force =     0.60354238    0.84590764    3.91343108
     atom    4 type  2   force =    -1.45349725    2.60294115  -23.99525722
     The core correction contribution to forces
     atom    1 type  1   force =     0.05752131   -0.03989440   -0.00182283
     atom    2 type  1   force =    -0.04737773   -0.00552676    0.18097748
     atom    3 type  2   force =    -0.00166422   -0.00019503   -0.00651119
     atom    4 type  2   force =     0.00121049   -0.00131355    0.00698198
     The Hubbard contrib.    to forces
     atom    1 type  1   force =     0.00000000    0.00000000    0.00000000
     atom    2 type  1   force =     0.00000000    0.00000000    0.00000000
     atom    3 type  2   force =     0.00000000    0.00000000    0.00000000
     atom    4 type  2   force =     0.00000000    0.00000000    0.00000000
     The SCF correction term to forces
     atom    1 type  1   force =    -0.00000600    0.00000599    0.00011576
     atom    2 type  1   force =    -0.00000948   -0.00000942   -0.00014068
     atom    3 type  2   force =    -0.00000294   -0.00000064   -0.00004323
     atom    4 type  2   force =    -0.00000566   -0.00000701    0.00010746

     Total force =     2.237818     Total SCF correction =     0.000217

     Writing all to output data dir ./ZnO_ANN.save/

     init_run     :      3.66s CPU      3.78s WALL (       1 calls)
     electrons    :    561.81s CPU    571.54s WALL (       1 calls)
     forces       :      1.23s CPU      1.24s WALL (       1 calls)

     Called by init_run:
     wfcinit      :      2.68s CPU      2.75s WALL (       1 calls)
     potinit      :      0.31s CPU      0.32s WALL (       1 calls)
     hinit0       :      0.59s CPU      0.60s WALL (       1 calls)

     Called by electrons:
     c_bands      :    481.42s CPU    489.46s WALL (      96 calls)
     sum_band     :     72.42s CPU     73.88s WALL (      96 calls)
     v_of_rho     :      1.90s CPU      2.02s WALL (      97 calls)
     newd         :      5.65s CPU      5.72s WALL (      97 calls)
     mix_rho      :      0.30s CPU      0.33s WALL (      96 calls)

     Called by c_bands:
     init_us_2    :      4.84s CPU      4.91s WALL (   21728 calls)
     init_us_2:cp :      4.77s CPU      4.85s WALL (   21728 calls)
     cegterg      :    464.80s CPU    472.60s WALL (   10752 calls)

     Called by *egterg:
     cdiaghg      :     48.12s CPU     48.54s WALL (   49518 calls)
     h_psi        :    281.22s CPU    286.93s WALL (   49630 calls)
     s_psi        :     30.17s CPU     30.43s WALL (   49630 calls)
     g_psi        :      0.84s CPU      0.85s WALL (   38766 calls)

     Called by h_psi:
     h_psi:calbec :     38.07s CPU     39.09s WALL (   49630 calls)
     vloc_psi     :    212.02s CPU    216.50s WALL (   49630 calls)
     add_vuspsi   :     30.24s CPU     30.46s WALL (   49630 calls)

     General routines
     calbec       :     54.09s CPU     55.54s WALL (   60830 calls)
     fft          :      1.78s CPU      1.95s WALL (    1270 calls)
     ffts         :      0.16s CPU      0.17s WALL (     193 calls)
     fftw         :    226.91s CPU    231.69s WALL ( 1125198 calls)
     interpolate  :      0.22s CPU      0.24s WALL (      97 calls)

     Parallel routines

     PWSCF        :   9m27.47s CPU   9m37.57s WALL


   This run was terminated on:  17:34:16  24Jun2025            

=------------------------------------------------------------------------------=
   JOB DONE.
=------------------------------------------------------------------------------=
Note: The following floating-point exceptions are signalling: IEEE_INVALID_FLAG
