
     Program PWSCF v.7.2 starts on 24Jun2025 at 16:19:23 

     This program is part of the open-source Quantum ESPRESSO suite
     for quantum simulation of materials; please cite
         "P. Giannozzi et al., J. Phys.:Condens. Matter 21 395502 (2009);
         "P. Giannozzi et al., J. Phys.:Condens. Matter 29 465901 (2017);
         "P. Giannozzi et al., J. Chem. Phys. 152 154105 (2020);
          URL http://www.quantum-espresso.org", 
     in publications or presentations arising from this work. More details at
     http://www.quantum-espresso.org/quote

     Parallel version (MPI), running on     8 processors

     MPI processes distributed on     1 nodes
     91131 MiB available memory on the printing compute node when the environment starts

     Reading input from /home/jvc/QEspresso7.2/ZnO_DataBase/scf_025_NOSYM.in/scf-6.06-1.52-0.25-5.in

     Current dimensions of program PWSCF are:
     Max number of different atomic species (ntypx) = 10
     Max number of k-points (npk) =  40000
     Max angular momentum in pseudopotentials (lmaxx) =  4
     file Zn.upf: wavefunction(s)  3D renormalized

     R & G space division:  proc/nbgrp/npool/nimage =       8
     Subspace diagonalization in iterative solution of the eigenvalue problem:
     a serial algorithm will be used


     Parallelization info
     --------------------
     sticks:   dense  smooth     PW     G-vecs:    dense   smooth      PW
     Min         126      63     18                 5206     1840     312
     Max         127      65     19                 5211     1843     317
     Sum        1015     511    151                41671    14737    2527

     Using Slab Decomposition



     bravais-lattice index     =            0
     lattice parameter (alat)  =       6.0552  a.u.
     unit-cell volume          =     307.6421 (a.u.)^3
     number of atoms/cell      =            4
     number of atomic types    =            2
     number of electrons       =        36.00
     number of Kohn-Sham states=           18
     kinetic-energy cutoff     =      50.0000  Ry
     charge density cutoff     =     400.0000  Ry
     scf convergence threshold =      1.0E-08
     mixing beta               =       0.3000
     number of iterations used =            8  plain     mixing
     Exchange-correlation= PBE
                           (   1   4   3   4   0   0   0)

     celldm(1)=   6.055245  celldm(2)=   0.000000  celldm(3)=   0.000000
     celldm(4)=   0.000000  celldm(5)=   0.000000  celldm(6)=   0.000000

     crystal axes: (cart. coord. in units of alat)
               a(1) = (   1.000000   0.000000   0.000000 )  
               a(2) = (  -0.500000   0.866025   0.000000 )  
               a(3) = (   0.000000   0.000000   1.600000 )  

     reciprocal axes: (cart. coord. in units 2 pi/alat)
               b(1) = (  1.000000  0.577350 -0.000000 )  
               b(2) = (  0.000000  1.154701  0.000000 )  
               b(3) = (  0.000000 -0.000000  0.625000 )  


     PseudoPot. # 1 for Zn read from file:
     ./pseudos/Zn.upf
     MD5 check sum: 7f56cabf9682ed8c977c2f7d0c5985c5
     Pseudo is Ultrasoft + core correction, Zval = 12.0
     Generated using &quot;atomic&quot; code by A. Dal Corso  v.6.2.2
     Using radial grid of 1201 points,  6 beta functions with: 
                l(1) =   0
                l(2) =   0
                l(3) =   1
                l(4) =   1
                l(5) =   2
                l(6) =   2
     Q(r) pseudized with 0 coefficients 


     PseudoPot. # 2 for O  read from file:
     ./pseudos/O.upf
     MD5 check sum: 91400c9766925bcf19f520983a725ff0
     Pseudo is Ultrasoft + core correction, Zval =  6.0
     Generated using &quot;atomic&quot; code by A. Dal Corso  v.6.3MaX
     Using radial grid of 1095 points,  4 beta functions with: 
                l(1) =   0
                l(2) =   0
                l(3) =   1
                l(4) =   1
     Q(r) pseudized with 0 coefficients 


     atomic species   valence    mass     pseudopotential
        Zn            12.00    63.38000     Zn( 1.00)
        O              6.00    15.99900     O ( 1.00)

     No symmetry found



   Cartesian axes

     site n.     atom                  positions (alat units)
         1           Zn  tau(   1) = (   0.4988256   0.4176583   1.0139085  )
         2           Zn  tau(   2) = (  -0.1595795   0.7370556   0.0152115  )
         3           O   tau(   3) = (   0.3986135   0.4440336   1.6360452  )
         4           O   tau(   4) = (  -0.2805521   0.7196831   0.6197645  )

     number of k points=   112

     Number of k-points >= 100: set verbosity='high' to print them.

     Dense  grid:    41671 G-vectors     FFT dimensions: (  40,  40,  64)

     Smooth grid:    14737 G-vectors     FFT dimensions: (  27,  27,  45)

     Estimated max dynamical RAM per process >      28.83 MB

     Estimated total dynamical RAM >     230.62 MB

     Check: negative core charge=   -0.000002

     Initial potential from superposition of free atoms

     starting charge      35.9925, renormalised to      36.0000
     Starting wfcs are   26 randomized atomic wfcs

     total cpu time spent up to now is        3.9 secs

     Self-consistent Calculation

     iteration #  1     ecut=    50.00 Ry     beta= 0.30
     Davidson diagonalization with overlap
     ethr =  1.00E-02,  avg # of iterations =  2.0

     total cpu time spent up to now is        9.0 secs

     total energy              =    -361.11714567 Ry
     estimated scf accuracy    <       0.96259407 Ry

     iteration #  2     ecut=    50.00 Ry     beta= 0.30
     Davidson diagonalization with overlap
     ethr =  2.67E-03,  avg # of iterations =  2.5

     total cpu time spent up to now is       15.0 secs

     total energy              =    -361.29512051 Ry
     estimated scf accuracy    <       0.07773344 Ry

     iteration #  3     ecut=    50.00 Ry     beta= 0.30
     Davidson diagonalization with overlap
     c_bands:  3 eigenvalues not converged
     c_bands:  1 eigenvalues not converged
     ethr =  2.16E-04,  avg # of iterations =  9.1

     total cpu time spent up to now is       27.7 secs

     total energy              =    -361.32591831 Ry
     estimated scf accuracy    <       0.19871976 Ry

     iteration #  4     ecut=    50.00 Ry     beta= 0.30
     Davidson diagonalization with overlap
     c_bands:  2 eigenvalues not converged
     ethr =  2.16E-04,  avg # of iterations =  5.8

     total cpu time spent up to now is       36.1 secs

     total energy              =    -361.38877832 Ry
     estimated scf accuracy    <       0.02222892 Ry

     iteration #  5     ecut=    50.00 Ry     beta= 0.30
     Davidson diagonalization with overlap
     ethr =  6.17E-05,  avg # of iterations =  5.7

     total cpu time spent up to now is       43.7 secs

     total energy              =    -361.36855785 Ry
     estimated scf accuracy    <       0.08970517 Ry

     iteration #  6     ecut=    50.00 Ry     beta= 0.30
     Davidson diagonalization with overlap
     ethr =  6.17E-05,  avg # of iterations =  5.3

     total cpu time spent up to now is       50.6 secs

     total energy              =    -361.37378465 Ry
     estimated scf accuracy    <       0.00790402 Ry

     iteration #  7     ecut=    50.00 Ry     beta= 0.30
     Davidson diagonalization with overlap
     ethr =  2.20E-05,  avg # of iterations =  4.9

     total cpu time spent up to now is       57.7 secs

     total energy              =    -361.37674747 Ry
     estimated scf accuracy    <       0.00024217 Ry

     iteration #  8     ecut=    50.00 Ry     beta= 0.30
     Davidson diagonalization with overlap
     c_bands:  2 eigenvalues not converged
     c_bands:  2 eigenvalues not converged
     c_bands:  2 eigenvalues not converged
     c_bands:  1 eigenvalues not converged
     c_bands:  1 eigenvalues not converged
     ethr =  6.73E-07,  avg # of iterations = 11.6

     total cpu time spent up to now is       71.0 secs

     total energy              =    -361.37700780 Ry
     estimated scf accuracy    <       0.00197156 Ry

     iteration #  9     ecut=    50.00 Ry     beta= 0.30
     Davidson diagonalization with overlap
     ethr =  6.73E-07,  avg # of iterations =  5.4

     total cpu time spent up to now is       79.1 secs

     total energy              =    -361.37699897 Ry
     estimated scf accuracy    <       0.00035442 Ry

     iteration # 10     ecut=    50.00 Ry     beta= 0.30
     Davidson diagonalization with overlap
     ethr =  6.73E-07,  avg # of iterations =  6.2

     total cpu time spent up to now is       87.1 secs

     total energy              =    -361.37711315 Ry
     estimated scf accuracy    <       0.00002140 Ry

     iteration # 11     ecut=    50.00 Ry     beta= 0.30
     Davidson diagonalization with overlap
     ethr =  5.94E-08,  avg # of iterations =  5.5

     total cpu time spent up to now is       94.0 secs

     total energy              =    -361.37710749 Ry
     estimated scf accuracy    <       0.00003817 Ry

     iteration # 12     ecut=    50.00 Ry     beta= 0.30
     Davidson diagonalization with overlap
     ethr =  5.94E-08,  avg # of iterations =  5.1

     total cpu time spent up to now is      100.3 secs

     total energy              =    -361.37711026 Ry
     estimated scf accuracy    <       0.00000362 Ry

     iteration # 13     ecut=    50.00 Ry     beta= 0.30
     Davidson diagonalization with overlap
     ethr =  1.01E-08,  avg # of iterations =  7.8

     total cpu time spent up to now is      111.5 secs

     total energy              =    -361.37711383 Ry
     estimated scf accuracy    <       0.00000524 Ry

     iteration # 14     ecut=    50.00 Ry     beta= 0.30
     Davidson diagonalization with overlap
     ethr =  1.01E-08,  avg # of iterations =  1.1

     total cpu time spent up to now is      116.0 secs

     total energy              =    -361.37711282 Ry
     estimated scf accuracy    <       0.00000312 Ry

     iteration # 15     ecut=    50.00 Ry     beta= 0.30
     Davidson diagonalization with overlap
     ethr =  8.66E-09,  avg # of iterations =  4.9

     total cpu time spent up to now is      122.7 secs

     total energy              =    -361.37711362 Ry
     estimated scf accuracy    <       0.00000002 Ry

     iteration # 16     ecut=    50.00 Ry     beta= 0.30
     Davidson diagonalization with overlap
     c_bands:  5 eigenvalues not converged
     c_bands:  2 eigenvalues not converged
     c_bands:  1 eigenvalues not converged
     c_bands:  2 eigenvalues not converged
     c_bands:  1 eigenvalues not converged
     c_bands:  1 eigenvalues not converged
     c_bands:  1 eigenvalues not converged
     c_bands:  1 eigenvalues not converged
     ethr =  5.32E-11,  avg # of iterations = 11.3

     total cpu time spent up to now is      138.5 secs

     total energy              =    -361.37711370 Ry
     estimated scf accuracy    <       0.00000027 Ry

     iteration # 17     ecut=    50.00 Ry     beta= 0.30
     Davidson diagonalization with overlap
     c_bands:  2 eigenvalues not converged
     ethr =  5.32E-11,  avg # of iterations =  6.0

     total cpu time spent up to now is      146.1 secs

     total energy              =    -361.37711368 Ry
     estimated scf accuracy    <       0.00000009 Ry

     iteration # 18     ecut=    50.00 Ry     beta= 0.30
     Davidson diagonalization with overlap
     ethr =  5.32E-11,  avg # of iterations =  7.6

     total cpu time spent up to now is      155.6 secs

     End of self-consistent calculation

     Number of k-points >= 100: set verbosity='high' to print the bands.

     highest occupied level (ev):     8.3613

!    total energy              =    -361.37711369 Ry
     estimated scf accuracy    <          1.3E-09 Ry

     The total energy is the sum of the following terms:
     one-electron contribution =    -154.48078047 Ry
     hartree contribution      =     118.62818770 Ry
     xc contribution           =    -109.56785286 Ry
     ewald contribution        =    -215.95666805 Ry

     convergence has been achieved in  18 iterations

     Forces acting on atoms (cartesian axes, Ry/au):

     atom    1 type  1   force =    -0.06184194   -0.06727657   -0.05352135
     atom    2 type  1   force =     0.15430938    0.05554611    0.08097648
     atom    3 type  2   force =    -0.15822328   -0.07017897   -0.09956456
     atom    4 type  2   force =     0.06575584    0.08190943    0.07210943
     The non-local contrib.  to forces
     atom    1 type  1   force =    -0.25216570   -0.38949544    0.62979457
     atom    2 type  1   force =     0.32867445    0.03789330   -0.48608001
     atom    3 type  2   force =     0.19393612   -0.11138444   -1.16524802
     atom    4 type  2   force =    -0.04404683   -0.28252806    0.69301247
     The ionic contribution  to forces
     atom    1 type  1   force =    -2.31830253   -3.44121784   -7.79698683
     atom    2 type  1   force =     4.32978451    0.93593468    2.84905984
     atom    3 type  2   force =    -3.62458194   -0.47485943    5.55539260
     atom    4 type  2   force =     1.61309997    2.98014259   -0.60746561
     The local contribution  to forces
     atom    1 type  1   force =     2.48910251    3.73054041    7.13552994
     atom    2 type  1   force =    -4.46859712   -0.91273350   -2.30389495
     atom    3 type  2   force =     3.27315653    0.51460878   -4.50073718
     atom    4 type  2   force =    -1.50311537   -2.61761100   -0.00674711
     The core correction contribution to forces
     atom    1 type  1   force =     0.01952000    0.03288024   -0.02170639
     atom    2 type  1   force =    -0.03554440   -0.00553901    0.02178215
     atom    3 type  2   force =    -0.00073176    0.00144445    0.01094385
     atom    4 type  2   force =    -0.00019662    0.00190062   -0.00672463
     The Hubbard contrib.    to forces
     atom    1 type  1   force =     0.00000000    0.00000000    0.00000000
     atom    2 type  1   force =     0.00000000    0.00000000    0.00000000
     atom    3 type  2   force =     0.00000000    0.00000000    0.00000000
     atom    4 type  2   force =     0.00000000    0.00000000    0.00000000
     The SCF correction term to forces
     atom    1 type  1   force =     0.00000191    0.00001872   -0.00015661
     atom    2 type  1   force =    -0.00000994   -0.00000669    0.00010549
     atom    3 type  2   force =    -0.00000410    0.00001434    0.00008022
     atom    4 type  2   force =     0.00001282    0.00000795    0.00003033

     Total force =     0.317450     Total SCF correction =     0.000210

     Writing all to output data dir ./ZnO_ANN.save/

     init_run     :      3.40s CPU      3.48s WALL (       1 calls)
     electrons    :    148.74s CPU    151.72s WALL (       1 calls)
     forces       :      1.06s CPU      1.07s WALL (       1 calls)

     Called by init_run:
     wfcinit      :      2.49s CPU      2.54s WALL (       1 calls)
     potinit      :      0.26s CPU      0.26s WALL (       1 calls)
     hinit0       :      0.58s CPU      0.59s WALL (       1 calls)

     Called by electrons:
     c_bands      :    134.91s CPU    137.56s WALL (      18 calls)
     sum_band     :     12.52s CPU     12.82s WALL (      18 calls)
     v_of_rho     :      0.26s CPU      0.28s WALL (      19 calls)
     newd         :      1.04s CPU      1.06s WALL (      19 calls)
     mix_rho      :      0.04s CPU      0.05s WALL (      18 calls)

     Called by c_bands:
     init_us_2    :      0.87s CPU      0.89s WALL (    4256 calls)
     init_us_2:cp :      0.86s CPU      0.87s WALL (    4256 calls)
     cegterg      :    132.20s CPU    134.81s WALL (    2016 calls)

     Called by *egterg:
     cdiaghg      :     15.86s CPU     16.00s WALL (   14093 calls)
     h_psi        :     77.44s CPU     79.37s WALL (   14205 calls)
     s_psi        :      8.91s CPU      9.01s WALL (   14205 calls)
     g_psi        :      0.26s CPU      0.26s WALL (   12077 calls)

     Called by h_psi:
     h_psi:calbec :     10.02s CPU     10.38s WALL (   14205 calls)
     vloc_psi     :     58.22s CPU     59.68s WALL (   14205 calls)
     add_vuspsi   :      8.93s CPU      9.04s WALL (   14205 calls)

     General routines
     calbec       :     13.23s CPU     13.68s WALL (   16669 calls)
     fft          :      0.48s CPU      0.51s WALL (     256 calls)
     ffts         :      0.07s CPU      0.08s WALL (      37 calls)
     fftw         :     59.41s CPU     60.88s WALL (  303212 calls)
     interpolate  :      0.08s CPU      0.08s WALL (      19 calls)

     Parallel routines

     PWSCF        :   2m33.94s CPU   2m37.20s WALL


   This run was terminated on:  16:22: 1  24Jun2025            

=------------------------------------------------------------------------------=
   JOB DONE.
=------------------------------------------------------------------------------=
Note: The following floating-point exceptions are signalling: IEEE_INVALID_FLAG
