
     Program PWSCF v.7.2 starts on 24Jun2025 at 17:15:27 

     This program is part of the open-source Quantum ESPRESSO suite
     for quantum simulation of materials; please cite
         "P. Giannozzi et al., J. Phys.:Condens. Matter 21 395502 (2009);
         "P. Giannozzi et al., J. Phys.:Condens. Matter 29 465901 (2017);
         "P. Giannozzi et al., J. Chem. Phys. 152 154105 (2020);
          URL http://www.quantum-espresso.org", 
     in publications or presentations arising from this work. More details at
     http://www.quantum-espresso.org/quote

     Parallel version (MPI), running on     8 processors

     MPI processes distributed on     1 nodes
     91007 MiB available memory on the printing compute node when the environment starts

     Reading input from /home/jvc/QEspresso7.2/ZnO_DataBase/scf_025_NOSYM.in/scf-6.18-1.71-0.25-2.in

     Current dimensions of program PWSCF are:
     Max number of different atomic species (ntypx) = 10
     Max number of k-points (npk) =  40000
     Max angular momentum in pseudopotentials (lmaxx) =  4
     file Zn.upf: wavefunction(s)  3D renormalized

     R & G space division:  proc/nbgrp/npool/nimage =       8
     Subspace diagonalization in iterative solution of the eigenvalue problem:
     a serial algorithm will be used


     Parallelization info
     --------------------
     sticks:   dense  smooth     PW     G-vecs:    dense   smooth      PW
     Min         130      64     20                 5518     1944     332
     Max         131      66     21                 5522     1946     337
     Sum        1045     517    163                44163    15561    2671

     Using Slab Decomposition



     bravais-lattice index     =            0
     lattice parameter (alat)  =       6.1788  a.u.
     unit-cell volume          =     326.8643 (a.u.)^3
     number of atoms/cell      =            4
     number of atomic types    =            2
     number of electrons       =        36.00
     number of Kohn-Sham states=           18
     kinetic-energy cutoff     =      50.0000  Ry
     charge density cutoff     =     400.0000  Ry
     scf convergence threshold =      1.0E-08
     mixing beta               =       0.3000
     number of iterations used =            8  plain     mixing
     Exchange-correlation= PBE
                           (   1   4   3   4   0   0   0)

     celldm(1)=   6.178821  celldm(2)=   0.000000  celldm(3)=   0.000000
     celldm(4)=   0.000000  celldm(5)=   0.000000  celldm(6)=   0.000000

     crystal axes: (cart. coord. in units of alat)
               a(1) = (   1.000000   0.000000   0.000000 )  
               a(2) = (  -0.500000   0.866025   0.000000 )  
               a(3) = (   0.000000   0.000000   1.600000 )  

     reciprocal axes: (cart. coord. in units 2 pi/alat)
               b(1) = (  1.000000  0.577350 -0.000000 )  
               b(2) = (  0.000000  1.154701  0.000000 )  
               b(3) = (  0.000000 -0.000000  0.625000 )  


     PseudoPot. # 1 for Zn read from file:
     ./pseudos/Zn.upf
     MD5 check sum: 7f56cabf9682ed8c977c2f7d0c5985c5
     Pseudo is Ultrasoft + core correction, Zval = 12.0
     Generated using &quot;atomic&quot; code by A. Dal Corso  v.6.2.2
     Using radial grid of 1201 points,  6 beta functions with: 
                l(1) =   0
                l(2) =   0
                l(3) =   1
                l(4) =   1
                l(5) =   2
                l(6) =   2
     Q(r) pseudized with 0 coefficients 


     PseudoPot. # 2 for O  read from file:
     ./pseudos/O.upf
     MD5 check sum: 91400c9766925bcf19f520983a725ff0
     Pseudo is Ultrasoft + core correction, Zval =  6.0
     Generated using &quot;atomic&quot; code by A. Dal Corso  v.6.3MaX
     Using radial grid of 1095 points,  4 beta functions with: 
                l(1) =   0
                l(2) =   0
                l(3) =   1
                l(4) =   1
     Q(r) pseudized with 0 coefficients 


     atomic species   valence    mass     pseudopotential
        Zn            12.00    63.38000     Zn( 1.00)
        O              6.00    15.99900     O ( 1.00)

     No symmetry found



   Cartesian axes

     site n.     atom                  positions (alat units)
         1           Zn  tau(   1) = (   0.4697241   0.1325490   0.8407234  )
         2           Zn  tau(   2) = (  -0.2215404   0.5828577  -0.1060928  )
         3           O   tau(   3) = (   0.3922503   0.2853188   1.1001727  )
         4           O   tau(   4) = (  -0.1971829   0.6657583   0.8867974  )

     number of k points=   112

     Number of k-points >= 100: set verbosity='high' to print them.

     Dense  grid:    44163 G-vectors     FFT dimensions: (  40,  40,  64)

     Smooth grid:    15561 G-vectors     FFT dimensions: (  27,  27,  45)

     Estimated max dynamical RAM per process >      30.35 MB

     Estimated total dynamical RAM >     242.82 MB

     Check: negative core charge=   -0.000002

     Initial potential from superposition of free atoms

     starting charge      35.9925, renormalised to      36.0000
     Starting wfcs are   26 randomized atomic wfcs

     total cpu time spent up to now is        4.1 secs

     Self-consistent Calculation

     iteration #  1     ecut=    50.00 Ry     beta= 0.30
     Davidson diagonalization with overlap
     ethr =  1.00E-02,  avg # of iterations =  3.7

     total cpu time spent up to now is       10.5 secs

     total energy              =    -357.43138542 Ry
     estimated scf accuracy    <       1.57352002 Ry

     iteration #  2     ecut=    50.00 Ry     beta= 0.30
     Davidson diagonalization with overlap
     ethr =  4.37E-03,  avg # of iterations =  2.1

     total cpu time spent up to now is       16.5 secs

     total energy              =    -357.44650751 Ry
     estimated scf accuracy    <       0.33302782 Ry

     iteration #  3     ecut=    50.00 Ry     beta= 0.30
     Davidson diagonalization with overlap
     ethr =  9.25E-04,  avg # of iterations =  7.3

     total cpu time spent up to now is       28.6 secs

     total energy              =    -357.70115525 Ry
     estimated scf accuracy    <       0.35292971 Ry

     iteration #  4     ecut=    50.00 Ry     beta= 0.30
     Davidson diagonalization with overlap
     ethr =  9.25E-04,  avg # of iterations =  1.4

     total cpu time spent up to now is       33.4 secs

     total energy              =    -357.62081784 Ry
     estimated scf accuracy    <       0.12042916 Ry

     iteration #  5     ecut=    50.00 Ry     beta= 0.30
     Davidson diagonalization with overlap
     c_bands:  1 eigenvalues not converged
     ethr =  3.35E-04,  avg # of iterations = 11.2

     total cpu time spent up to now is       48.5 secs

     total energy              =    -357.80830955 Ry
     estimated scf accuracy    <       0.61693482 Ry

     iteration #  6     ecut=    50.00 Ry     beta= 0.30
     Davidson diagonalization with overlap
     ethr =  3.35E-04,  avg # of iterations =  1.7

     total cpu time spent up to now is       53.4 secs

     total energy              =    -357.57691815 Ry
     estimated scf accuracy    <       0.44798423 Ry

     iteration #  7     ecut=    50.00 Ry     beta= 0.30
     Davidson diagonalization with overlap
     ethr =  3.35E-04,  avg # of iterations = 10.3

     total cpu time spent up to now is       66.1 secs

     total energy              =    -357.72374482 Ry
     estimated scf accuracy    <       0.09449415 Ry

     iteration #  8     ecut=    50.00 Ry     beta= 0.30
     Davidson diagonalization with overlap
     ethr =  2.62E-04,  avg # of iterations =  2.1

     total cpu time spent up to now is       71.2 secs

     total energy              =    -357.70230165 Ry
     estimated scf accuracy    <       0.03621908 Ry

     iteration #  9     ecut=    50.00 Ry     beta= 0.30
     Davidson diagonalization with overlap
     c_bands:  1 eigenvalues not converged
     ethr =  1.01E-04,  avg # of iterations = 11.6

     total cpu time spent up to now is       83.1 secs

     total energy              =    -357.74770991 Ry
     estimated scf accuracy    <       0.15192595 Ry

     iteration # 10     ecut=    50.00 Ry     beta= 0.30
     Davidson diagonalization with overlap
     ethr =  1.01E-04,  avg # of iterations =  1.4

     total cpu time spent up to now is       87.9 secs

     total energy              =    -357.70487527 Ry
     estimated scf accuracy    <       0.12460013 Ry

     iteration # 11     ecut=    50.00 Ry     beta= 0.30
     Davidson diagonalization with overlap
     ethr =  1.01E-04,  avg # of iterations =  8.8

     total cpu time spent up to now is       96.5 secs

     total energy              =    -357.72979711 Ry
     estimated scf accuracy    <       0.00059438 Ry

     iteration # 12     ecut=    50.00 Ry     beta= 0.30
     Davidson diagonalization with overlap
     c_bands:  1 eigenvalues not converged
     c_bands:  1 eigenvalues not converged
     ethr =  1.65E-06,  avg # of iterations = 10.8

     total cpu time spent up to now is      108.8 secs

     total energy              =    -357.73096894 Ry
     estimated scf accuracy    <       0.00184277 Ry

     iteration # 13     ecut=    50.00 Ry     beta= 0.30
     Davidson diagonalization with overlap
     ethr =  1.65E-06,  avg # of iterations =  3.4

     total cpu time spent up to now is      114.3 secs

     total energy              =    -357.73050580 Ry
     estimated scf accuracy    <       0.00085816 Ry

     iteration # 14     ecut=    50.00 Ry     beta= 0.30
     Davidson diagonalization with overlap
     c_bands:  1 eigenvalues not converged
     c_bands:  1 eigenvalues not converged
     c_bands:  1 eigenvalues not converged
     c_bands:  1 eigenvalues not converged
     c_bands:  1 eigenvalues not converged
     c_bands:  1 eigenvalues not converged
     c_bands:  1 eigenvalues not converged
     ethr =  1.65E-06,  avg # of iterations = 13.0

     total cpu time spent up to now is      127.8 secs

     total energy              =    -357.73139039 Ry
     estimated scf accuracy    <       0.00311681 Ry

     iteration # 15     ecut=    50.00 Ry     beta= 0.30
     Davidson diagonalization with overlap
     ethr =  1.65E-06,  avg # of iterations =  1.5

     total cpu time spent up to now is      132.7 secs

     total energy              =    -357.73039872 Ry
     estimated scf accuracy    <       0.00251264 Ry

     iteration # 16     ecut=    50.00 Ry     beta= 0.30
     Davidson diagonalization with overlap
     ethr =  1.65E-06,  avg # of iterations =  9.5

     total cpu time spent up to now is      143.4 secs

     total energy              =    -357.73096056 Ry
     estimated scf accuracy    <       0.00003624 Ry

     iteration # 17     ecut=    50.00 Ry     beta= 0.30
     Davidson diagonalization with overlap
     c_bands:  1 eigenvalues not converged
     c_bands:  1 eigenvalues not converged
     c_bands:  1 eigenvalues not converged
     c_bands:  1 eigenvalues not converged
     ethr =  1.01E-07,  avg # of iterations = 11.1

     total cpu time spent up to now is      155.9 secs

     total energy              =    -357.73104531 Ry
     estimated scf accuracy    <       0.00018863 Ry

     iteration # 18     ecut=    50.00 Ry     beta= 0.30
     Davidson diagonalization with overlap
     ethr =  1.01E-07,  avg # of iterations =  2.2

     total cpu time spent up to now is      161.0 secs

     total energy              =    -357.73101458 Ry
     estimated scf accuracy    <       0.00024009 Ry

     iteration # 19     ecut=    50.00 Ry     beta= 0.30
     Davidson diagonalization with overlap
     ethr =  1.01E-07,  avg # of iterations =  1.3

     total cpu time spent up to now is      165.7 secs

     total energy              =    -357.73102025 Ry
     estimated scf accuracy    <       0.00018330 Ry

     iteration # 20     ecut=    50.00 Ry     beta= 0.30
     Davidson diagonalization with overlap
     ethr =  1.01E-07,  avg # of iterations =  1.0

     total cpu time spent up to now is      170.3 secs

     total energy              =    -357.73097386 Ry
     estimated scf accuracy    <       0.00018887 Ry

     iteration # 21     ecut=    50.00 Ry     beta= 0.30
     Davidson diagonalization with overlap
     ethr =  1.01E-07,  avg # of iterations =  5.6

     total cpu time spent up to now is      177.3 secs

     total energy              =    -357.73097385 Ry
     estimated scf accuracy    <       0.00004414 Ry

     iteration # 22     ecut=    50.00 Ry     beta= 0.30
     Davidson diagonalization with overlap
     ethr =  1.01E-07,  avg # of iterations =  4.1

     total cpu time spent up to now is      183.5 secs

     total energy              =    -357.73097683 Ry
     estimated scf accuracy    <       0.00000681 Ry

     iteration # 23     ecut=    50.00 Ry     beta= 0.30
     Davidson diagonalization with overlap
     c_bands:  1 eigenvalues not converged
     c_bands:  1 eigenvalues not converged
     c_bands:  1 eigenvalues not converged
     c_bands:  1 eigenvalues not converged
     ethr =  1.89E-08,  avg # of iterations = 12.8

     total cpu time spent up to now is      195.8 secs

     total energy              =    -357.73098668 Ry
     estimated scf accuracy    <       0.00001926 Ry

     iteration # 24     ecut=    50.00 Ry     beta= 0.30
     Davidson diagonalization with overlap
     ethr =  1.89E-08,  avg # of iterations =  1.4

     total cpu time spent up to now is      200.5 secs

     total energy              =    -357.73098329 Ry
     estimated scf accuracy    <       0.00001562 Ry

     iteration # 25     ecut=    50.00 Ry     beta= 0.30
     Davidson diagonalization with overlap
     ethr =  1.89E-08,  avg # of iterations =  4.6

     total cpu time spent up to now is      206.4 secs

     total energy              =    -357.73098194 Ry
     estimated scf accuracy    <       0.00000434 Ry

     iteration # 26     ecut=    50.00 Ry     beta= 0.30
     Davidson diagonalization with overlap
     ethr =  1.21E-08,  avg # of iterations =  8.8

     total cpu time spent up to now is      215.6 secs

     total energy              =    -357.73098373 Ry
     estimated scf accuracy    <       0.00000276 Ry

     iteration # 27     ecut=    50.00 Ry     beta= 0.30
     Davidson diagonalization with overlap
     ethr =  7.66E-09,  avg # of iterations =  4.7

     total cpu time spent up to now is      221.4 secs

     total energy              =    -357.73098403 Ry
     estimated scf accuracy    <       0.00000021 Ry

     iteration # 28     ecut=    50.00 Ry     beta= 0.30
     Davidson diagonalization with overlap
     c_bands:  1 eigenvalues not converged
     ethr =  5.72E-10,  avg # of iterations =  9.8

     total cpu time spent up to now is      232.8 secs

     total energy              =    -357.73098411 Ry
     estimated scf accuracy    <       0.00000027 Ry

     iteration # 29     ecut=    50.00 Ry     beta= 0.30
     Davidson diagonalization with overlap
     c_bands:  1 eigenvalues not converged
     c_bands:  1 eigenvalues not converged
     c_bands:  1 eigenvalues not converged
     c_bands:  1 eigenvalues not converged
     c_bands:  1 eigenvalues not converged
     c_bands:  1 eigenvalues not converged
     c_bands:  1 eigenvalues not converged
     c_bands:  1 eigenvalues not converged
     c_bands:  1 eigenvalues not converged
     c_bands:  1 eigenvalues not converged
     ethr =  5.72E-10,  avg # of iterations = 14.0

     total cpu time spent up to now is      247.4 secs

     total energy              =    -357.73098460 Ry
     estimated scf accuracy    <       0.00000201 Ry

     iteration # 30     ecut=    50.00 Ry     beta= 0.30
     Davidson diagonalization with overlap
     ethr =  5.72E-10,  avg # of iterations =  1.4

     total cpu time spent up to now is      252.0 secs

     total energy              =    -357.73098425 Ry
     estimated scf accuracy    <       0.00000182 Ry

     iteration # 31     ecut=    50.00 Ry     beta= 0.30
     Davidson diagonalization with overlap
     ethr =  5.72E-10,  avg # of iterations =  7.3

     total cpu time spent up to now is      259.4 secs

     total energy              =    -357.73098435 Ry
     estimated scf accuracy    <       0.00000053 Ry

     iteration # 32     ecut=    50.00 Ry     beta= 0.30
     Davidson diagonalization with overlap
     ethr =  5.72E-10,  avg # of iterations =  1.1

     total cpu time spent up to now is      264.0 secs

     total energy              =    -357.73098432 Ry
     estimated scf accuracy    <       0.00000053 Ry

     iteration # 33     ecut=    50.00 Ry     beta= 0.30
     Davidson diagonalization with overlap
     ethr =  5.72E-10,  avg # of iterations =  1.6

     total cpu time spent up to now is      268.8 secs

     total energy              =    -357.73098431 Ry
     estimated scf accuracy    <       0.00000041 Ry

     iteration # 34     ecut=    50.00 Ry     beta= 0.30
     Davidson diagonalization with overlap
     ethr =  5.72E-10,  avg # of iterations =  1.1

     total cpu time spent up to now is      273.3 secs

     total energy              =    -357.73098430 Ry
     estimated scf accuracy    <       0.00000037 Ry

     iteration # 35     ecut=    50.00 Ry     beta= 0.30
     Davidson diagonalization with overlap
     ethr =  5.72E-10,  avg # of iterations =  1.0

     total cpu time spent up to now is      277.9 secs

     total energy              =    -357.73098425 Ry
     estimated scf accuracy    <       0.00000030 Ry

     iteration # 36     ecut=    50.00 Ry     beta= 0.30
     Davidson diagonalization with overlap
     ethr =  5.72E-10,  avg # of iterations =  2.1

     total cpu time spent up to now is      283.0 secs

     total energy              =    -357.73098420 Ry
     estimated scf accuracy    <       0.00000015 Ry

     iteration # 37     ecut=    50.00 Ry     beta= 0.30
     Davidson diagonalization with overlap
     ethr =  4.25E-10,  avg # of iterations =  7.7

     total cpu time spent up to now is      290.8 secs

     total energy              =    -357.73098425 Ry
     estimated scf accuracy    <       0.00000003 Ry

     iteration # 38     ecut=    50.00 Ry     beta= 0.30
     Davidson diagonalization with overlap
     ethr =  8.80E-11,  avg # of iterations =  4.6

     total cpu time spent up to now is      296.8 secs

     End of self-consistent calculation

     Number of k-points >= 100: set verbosity='high' to print the bands.

     highest occupied level (ev):    10.2652

!    total energy              =    -357.73098425 Ry
     estimated scf accuracy    <          9.2E-09 Ry

     The total energy is the sum of the following terms:
     one-electron contribution =    -255.91494377 Ry
     hartree contribution      =     166.00016665 Ry
     xc contribution           =    -110.88813365 Ry
     ewald contribution        =    -156.92807348 Ry

     convergence has been achieved in  38 iterations

     Forces acting on atoms (cartesian axes, Ry/au):

     atom    1 type  1   force =     2.78273843   -1.45635394   -6.31693488
     atom    2 type  1   force =     0.00201332   -0.01361826    0.15009846
     atom    3 type  2   force =    -1.82683255    3.55058691    6.08138491
     atom    4 type  2   force =    -0.95791920   -2.08061472    0.08545151
     The non-local contrib.  to forces
     atom    1 type  1   force =    -0.19015076    0.60070048    0.89072827
     atom    2 type  1   force =     0.11960600   -0.04129678   -0.31992319
     atom    3 type  2   force =     0.35623412   -0.59015990   -0.59089225
     atom    4 type  2   force =     0.74428955    1.12291813   -0.23376308
     The ionic contribution  to forces
     atom    1 type  1   force =    16.23574158   -0.16875048  -47.55324254
     atom    2 type  1   force =     0.94369981   -0.70018377   28.06260120
     atom    3 type  2   force =    -9.97342339   17.37601303   28.61040416
     atom    4 type  2   force =    -7.20601800  -16.50707878   -9.11976281
     The local contribution  to forces
     atom    1 type  1   force =   -13.07034175   -1.91154200   39.97232839
     atom    2 type  1   force =    -1.05470930    0.72775871  -27.57596039
     atom    3 type  2   force =     7.78722683  -13.22811343  -21.92336387
     atom    4 type  2   force =     5.50617099   13.30397399    9.43677247
     The core correction contribution to forces
     atom    1 type  1   force =    -0.19244015    0.02342757    0.37317325
     atom    2 type  1   force =    -0.00657364    0.00007023   -0.01635775
     atom    3 type  2   force =     0.00308903   -0.00710034   -0.01459678
     atom    4 type  2   force =    -0.00240533   -0.00047308    0.00221384
     The Hubbard contrib.    to forces
     atom    1 type  1   force =     0.00000000    0.00000000    0.00000000
     atom    2 type  1   force =     0.00000000    0.00000000    0.00000000
     atom    3 type  2   force =     0.00000000    0.00000000    0.00000000
     atom    4 type  2   force =     0.00000000    0.00000000    0.00000000
     The SCF correction term to forces
     atom    1 type  1   force =    -0.00010013   -0.00020873    0.00007639
     atom    2 type  1   force =    -0.00003919    0.00001413   -0.00026277
     atom    3 type  2   force =     0.00001121   -0.00007167   -0.00016771
     atom    4 type  2   force =     0.00001394    0.00002579   -0.00001027

     Total force =    10.390962     Total SCF correction =     0.000406

     Writing all to output data dir ./ZnO_ANN.save/

     init_run     :      3.52s CPU      3.60s WALL (       1 calls)
     electrons    :    287.26s CPU    292.73s WALL (       1 calls)
     forces       :      1.11s CPU      1.12s WALL (       1 calls)

     Called by init_run:
     wfcinit      :      2.55s CPU      2.60s WALL (       1 calls)
     potinit      :      0.27s CPU      0.27s WALL (       1 calls)
     hinit0       :      0.62s CPU      0.63s WALL (       1 calls)

     Called by electrons:
     c_bands      :    257.22s CPU    262.00s WALL (      38 calls)
     sum_band     :     27.20s CPU     27.82s WALL (      38 calls)
     v_of_rho     :      0.55s CPU      0.59s WALL (      39 calls)
     newd         :      2.19s CPU      2.22s WALL (      39 calls)
     mix_rho      :      0.10s CPU      0.11s WALL (      38 calls)

     Called by c_bands:
     init_us_2    :      2.00s CPU      2.04s WALL (    8736 calls)
     init_us_2:cp :      1.97s CPU      2.01s WALL (    8736 calls)
     cegterg      :    251.14s CPU    255.80s WALL (    4256 calls)

     Called by *egterg:
     cdiaghg      :     31.72s CPU     32.05s WALL (   27679 calls)
     h_psi        :    146.10s CPU    149.47s WALL (   27791 calls)
     s_psi        :     18.67s CPU     18.83s WALL (   27791 calls)
     g_psi        :      0.49s CPU      0.50s WALL (   23423 calls)

     Called by h_psi:
     h_psi:calbec :     19.22s CPU     19.89s WALL (   27791 calls)
     vloc_psi     :    107.64s CPU    110.17s WALL (   27791 calls)
     add_vuspsi   :     18.73s CPU     18.90s WALL (   27791 calls)

     General routines
     calbec       :     25.59s CPU     26.43s WALL (   32495 calls)
     fft          :      0.65s CPU      0.70s WALL (     516 calls)
     ffts         :      0.09s CPU      0.09s WALL (      77 calls)
     fftw         :    110.78s CPU    113.42s WALL (  563994 calls)
     interpolate  :      0.10s CPU      0.11s WALL (      39 calls)

     Parallel routines

     PWSCF        :   4m52.61s CPU   4m58.37s WALL


   This run was terminated on:  17:20:25  24Jun2025            

=------------------------------------------------------------------------------=
   JOB DONE.
=------------------------------------------------------------------------------=
Note: The following floating-point exceptions are signalling: IEEE_INVALID_FLAG
