
     Program PWSCF v.7.2 starts on 24Jun2025 at 17:12: 7 

     This program is part of the open-source Quantum ESPRESSO suite
     for quantum simulation of materials; please cite
         "P. Giannozzi et al., J. Phys.:Condens. Matter 21 395502 (2009);
         "P. Giannozzi et al., J. Phys.:Condens. Matter 29 465901 (2017);
         "P. Giannozzi et al., J. Chem. Phys. 152 154105 (2020);
          URL http://www.quantum-espresso.org", 
     in publications or presentations arising from this work. More details at
     http://www.quantum-espresso.org/quote

     Parallel version (MPI), running on     8 processors

     MPI processes distributed on     1 nodes
     91301 MiB available memory on the printing compute node when the environment starts

     Reading input from /home/jvc/QEspresso7.2/ZnO_DataBase/scf_025_NOSYM.in/scf-6.18-1.68-0.25-4.in

     Current dimensions of program PWSCF are:
     Max number of different atomic species (ntypx) = 10
     Max number of k-points (npk) =  40000
     Max angular momentum in pseudopotentials (lmaxx) =  4
     file Zn.upf: wavefunction(s)  3D renormalized

     R & G space division:  proc/nbgrp/npool/nimage =       8
     Subspace diagonalization in iterative solution of the eigenvalue problem:
     a serial algorithm will be used


     Parallelization info
     --------------------
     sticks:   dense  smooth     PW     G-vecs:    dense   smooth      PW
     Min         130      64     20                 5518     1944     332
     Max         131      66     21                 5522     1946     337
     Sum        1045     517    163                44163    15561    2671

     Using Slab Decomposition



     bravais-lattice index     =            0
     lattice parameter (alat)  =       6.1788  a.u.
     unit-cell volume          =     326.8643 (a.u.)^3
     number of atoms/cell      =            4
     number of atomic types    =            2
     number of electrons       =        36.00
     number of Kohn-Sham states=           18
     kinetic-energy cutoff     =      50.0000  Ry
     charge density cutoff     =     400.0000  Ry
     scf convergence threshold =      1.0E-08
     mixing beta               =       0.3000
     number of iterations used =            8  plain     mixing
     Exchange-correlation= PBE
                           (   1   4   3   4   0   0   0)

     celldm(1)=   6.178821  celldm(2)=   0.000000  celldm(3)=   0.000000
     celldm(4)=   0.000000  celldm(5)=   0.000000  celldm(6)=   0.000000

     crystal axes: (cart. coord. in units of alat)
               a(1) = (   1.000000   0.000000   0.000000 )  
               a(2) = (  -0.500000   0.866025   0.000000 )  
               a(3) = (   0.000000   0.000000   1.600000 )  

     reciprocal axes: (cart. coord. in units 2 pi/alat)
               b(1) = (  1.000000  0.577350 -0.000000 )  
               b(2) = (  0.000000  1.154701  0.000000 )  
               b(3) = (  0.000000 -0.000000  0.625000 )  


     PseudoPot. # 1 for Zn read from file:
     ./pseudos/Zn.upf
     MD5 check sum: 7f56cabf9682ed8c977c2f7d0c5985c5
     Pseudo is Ultrasoft + core correction, Zval = 12.0
     Generated using &quot;atomic&quot; code by A. Dal Corso  v.6.2.2
     Using radial grid of 1201 points,  6 beta functions with: 
                l(1) =   0
                l(2) =   0
                l(3) =   1
                l(4) =   1
                l(5) =   2
                l(6) =   2
     Q(r) pseudized with 0 coefficients 


     PseudoPot. # 2 for O  read from file:
     ./pseudos/O.upf
     MD5 check sum: 91400c9766925bcf19f520983a725ff0
     Pseudo is Ultrasoft + core correction, Zval =  6.0
     Generated using &quot;atomic&quot; code by A. Dal Corso  v.6.3MaX
     Using radial grid of 1095 points,  4 beta functions with: 
                l(1) =   0
                l(2) =   0
                l(3) =   1
                l(4) =   1
     Q(r) pseudized with 0 coefficients 


     atomic species   valence    mass     pseudopotential
        Zn            12.00    63.38000     Zn( 1.00)
        O              6.00    15.99900     O ( 1.00)

     No symmetry found



   Cartesian axes

     site n.     atom                  positions (alat units)
         1           Zn  tau(   1) = (   0.7010387   0.1298645   0.6123378  )
         2           Zn  tau(   2) = (   0.1898533   0.4671176   0.0790963  )
         3           O   tau(   3) = (   0.4295918   0.4984622   1.1149841  )
         4           O   tau(   4) = (  -0.1499208   0.6343048   0.7464767  )

     number of k points=   112

     Number of k-points >= 100: set verbosity='high' to print them.

     Dense  grid:    44163 G-vectors     FFT dimensions: (  40,  40,  64)

     Smooth grid:    15561 G-vectors     FFT dimensions: (  27,  27,  45)

     Estimated max dynamical RAM per process >      30.35 MB

     Estimated total dynamical RAM >     242.82 MB

     Check: negative core charge=   -0.000002

     Initial potential from superposition of free atoms

     starting charge      35.9925, renormalised to      36.0000
     Starting wfcs are   26 randomized atomic wfcs

     total cpu time spent up to now is        4.0 secs

     Self-consistent Calculation

     iteration #  1     ecut=    50.00 Ry     beta= 0.30
     Davidson diagonalization with overlap
     ethr =  1.00E-02,  avg # of iterations =  2.0

     total cpu time spent up to now is        9.0 secs

     total energy              =    -360.77146416 Ry
     estimated scf accuracy    <       1.14252643 Ry

     iteration #  2     ecut=    50.00 Ry     beta= 0.30
     Davidson diagonalization with overlap
     ethr =  3.17E-03,  avg # of iterations =  6.4

     total cpu time spent up to now is       16.6 secs

     total energy              =    -361.11610776 Ry
     estimated scf accuracy    <       0.35135253 Ry

     iteration #  3     ecut=    50.00 Ry     beta= 0.30
     Davidson diagonalization with overlap
     ethr =  9.76E-04,  avg # of iterations =  2.2

     total cpu time spent up to now is       21.9 secs

     total energy              =    -361.04745047 Ry
     estimated scf accuracy    <       0.16191584 Ry

     iteration #  4     ecut=    50.00 Ry     beta= 0.30
     Davidson diagonalization with overlap
     ethr =  4.50E-04,  avg # of iterations = 10.5

     total cpu time spent up to now is       33.9 secs

     total energy              =    -361.20864879 Ry
     estimated scf accuracy    <       0.59464625 Ry

     iteration #  5     ecut=    50.00 Ry     beta= 0.30
     Davidson diagonalization with overlap
     ethr =  4.50E-04,  avg # of iterations =  1.2

     total cpu time spent up to now is       38.6 secs

     total energy              =    -361.24154417 Ry
     estimated scf accuracy    <       0.45213185 Ry

     iteration #  6     ecut=    50.00 Ry     beta= 0.30
     Davidson diagonalization with overlap
     ethr =  4.50E-04,  avg # of iterations =  1.0

     total cpu time spent up to now is       43.2 secs

     total energy              =    -360.99832677 Ry
     estimated scf accuracy    <       0.49785014 Ry

     iteration #  7     ecut=    50.00 Ry     beta= 0.30
     Davidson diagonalization with overlap
     ethr =  4.50E-04,  avg # of iterations = 10.6

     total cpu time spent up to now is       53.4 secs

     total energy              =    -361.24508805 Ry
     estimated scf accuracy    <       0.53116055 Ry

     iteration #  8     ecut=    50.00 Ry     beta= 0.30
     Davidson diagonalization with overlap
     ethr =  4.50E-04,  avg # of iterations =  1.0

     total cpu time spent up to now is       58.0 secs

     total energy              =    -361.03198499 Ry
     estimated scf accuracy    <       0.53180243 Ry

     iteration #  9     ecut=    50.00 Ry     beta= 0.30
     Davidson diagonalization with overlap
     ethr =  4.50E-04,  avg # of iterations =  9.5

     total cpu time spent up to now is       68.2 secs

     total energy              =    -361.18117418 Ry
     estimated scf accuracy    <       0.11330452 Ry

     iteration # 10     ecut=    50.00 Ry     beta= 0.30
     Davidson diagonalization with overlap
     ethr =  3.15E-04,  avg # of iterations =  1.2

     total cpu time spent up to now is       72.8 secs

     total energy              =    -361.15127904 Ry
     estimated scf accuracy    <       0.09500763 Ry

     iteration # 11     ecut=    50.00 Ry     beta= 0.30
     Davidson diagonalization with overlap
     ethr =  2.64E-04,  avg # of iterations =  3.9

     total cpu time spent up to now is       78.7 secs

     total energy              =    -361.16010523 Ry
     estimated scf accuracy    <       0.00776769 Ry

     iteration # 12     ecut=    50.00 Ry     beta= 0.30
     Davidson diagonalization with overlap
     ethr =  2.16E-05,  avg # of iterations = 11.1

     total cpu time spent up to now is       89.7 secs

     total energy              =    -361.17846909 Ry
     estimated scf accuracy    <       0.03740652 Ry

     iteration # 13     ecut=    50.00 Ry     beta= 0.30
     Davidson diagonalization with overlap
     ethr =  2.16E-05,  avg # of iterations =  2.0

     total cpu time spent up to now is       94.8 secs

     total energy              =    -361.17313674 Ry
     estimated scf accuracy    <       0.04860423 Ry

     iteration # 14     ecut=    50.00 Ry     beta= 0.30
     Davidson diagonalization with overlap
     ethr =  2.16E-05,  avg # of iterations =  1.1

     total cpu time spent up to now is       99.4 secs

     total energy              =    -361.15730107 Ry
     estimated scf accuracy    <       0.03970625 Ry

     iteration # 15     ecut=    50.00 Ry     beta= 0.30
     Davidson diagonalization with overlap
     c_bands:  1 eigenvalues not converged
     ethr =  2.16E-05,  avg # of iterations = 12.1

     total cpu time spent up to now is      111.4 secs

     total energy              =    -361.17291454 Ry
     estimated scf accuracy    <       0.02278925 Ry

     iteration # 16     ecut=    50.00 Ry     beta= 0.30
     Davidson diagonalization with overlap
     ethr =  2.16E-05,  avg # of iterations =  1.1

     total cpu time spent up to now is      116.1 secs

     total energy              =    -361.16671686 Ry
     estimated scf accuracy    <       0.02375758 Ry

     iteration # 17     ecut=    50.00 Ry     beta= 0.30
     Davidson diagonalization with overlap
     ethr =  2.16E-05,  avg # of iterations =  4.6

     total cpu time spent up to now is      122.3 secs

     total energy              =    -361.16919773 Ry
     estimated scf accuracy    <       0.00506486 Ry

     iteration # 18     ecut=    50.00 Ry     beta= 0.30
     Davidson diagonalization with overlap
     ethr =  1.41E-05,  avg # of iterations =  1.2

     total cpu time spent up to now is      127.0 secs

     total energy              =    -361.16953566 Ry
     estimated scf accuracy    <       0.00650227 Ry

     iteration # 19     ecut=    50.00 Ry     beta= 0.30
     Davidson diagonalization with overlap
     ethr =  1.41E-05,  avg # of iterations =  1.0

     total cpu time spent up to now is      131.5 secs

     total energy              =    -361.17017749 Ry
     estimated scf accuracy    <       0.00682389 Ry

     iteration # 20     ecut=    50.00 Ry     beta= 0.30
     Davidson diagonalization with overlap
     ethr =  1.41E-05,  avg # of iterations =  1.1

     total cpu time spent up to now is      136.2 secs

     total energy              =    -361.16941003 Ry
     estimated scf accuracy    <       0.00802799 Ry

     iteration # 21     ecut=    50.00 Ry     beta= 0.30
     Davidson diagonalization with overlap
     ethr =  1.41E-05,  avg # of iterations =  1.4

     total cpu time spent up to now is      140.9 secs

     total energy              =    -361.16918895 Ry
     estimated scf accuracy    <       0.00620108 Ry

     iteration # 22     ecut=    50.00 Ry     beta= 0.30
     Davidson diagonalization with overlap
     ethr =  1.41E-05,  avg # of iterations =  1.0

     total cpu time spent up to now is      145.5 secs

     total energy              =    -361.16872401 Ry
     estimated scf accuracy    <       0.00539035 Ry

     iteration # 23     ecut=    50.00 Ry     beta= 0.30
     Davidson diagonalization with overlap
     ethr =  1.41E-05,  avg # of iterations =  1.4

     total cpu time spent up to now is      150.2 secs

     total energy              =    -361.16737757 Ry
     estimated scf accuracy    <       0.00377269 Ry

     iteration # 24     ecut=    50.00 Ry     beta= 0.30
     Davidson diagonalization with overlap
     ethr =  1.05E-05,  avg # of iterations =  7.4

     total cpu time spent up to now is      158.5 secs

     total energy              =    -361.16879431 Ry
     estimated scf accuracy    <       0.00372926 Ry

     iteration # 25     ecut=    50.00 Ry     beta= 0.30
     Davidson diagonalization with overlap
     ethr =  1.04E-05,  avg # of iterations =  1.0

     total cpu time spent up to now is      163.0 secs

     total energy              =    -361.16835339 Ry
     estimated scf accuracy    <       0.00224288 Ry

     iteration # 26     ecut=    50.00 Ry     beta= 0.30
     Davidson diagonalization with overlap
     ethr =  6.23E-06,  avg # of iterations =  6.0

     total cpu time spent up to now is      170.0 secs

     total energy              =    -361.16900171 Ry
     estimated scf accuracy    <       0.00011346 Ry

     iteration # 27     ecut=    50.00 Ry     beta= 0.30
     Davidson diagonalization with overlap
     c_bands:  1 eigenvalues not converged
     c_bands:  1 eigenvalues not converged
     c_bands:  1 eigenvalues not converged
     c_bands:  1 eigenvalues not converged
     ethr =  3.15E-07,  avg # of iterations =  9.6

     total cpu time spent up to now is      180.0 secs

     total energy              =    -361.16893542 Ry
     estimated scf accuracy    <       0.00112058 Ry

     iteration # 28     ecut=    50.00 Ry     beta= 0.30
     Davidson diagonalization with overlap
     ethr =  3.15E-07,  avg # of iterations =  7.2

     total cpu time spent up to now is      188.0 secs

     total energy              =    -361.16887866 Ry
     estimated scf accuracy    <       0.00021456 Ry

     iteration # 29     ecut=    50.00 Ry     beta= 0.30
     Davidson diagonalization with overlap
     c_bands:  1 eigenvalues not converged
     c_bands:  1 eigenvalues not converged
     ethr =  3.15E-07,  avg # of iterations = 12.4

     total cpu time spent up to now is      199.7 secs

     total energy              =    -361.16897070 Ry
     estimated scf accuracy    <       0.00077918 Ry

     iteration # 30     ecut=    50.00 Ry     beta= 0.30
     Davidson diagonalization with overlap
     ethr =  3.15E-07,  avg # of iterations =  3.7

     total cpu time spent up to now is      205.2 secs

     total energy              =    -361.16886995 Ry
     estimated scf accuracy    <       0.00042515 Ry

     iteration # 31     ecut=    50.00 Ry     beta= 0.30
     Davidson diagonalization with overlap
     c_bands:  1 eigenvalues not converged
     ethr =  3.15E-07,  avg # of iterations =  9.7

     total cpu time spent up to now is      214.8 secs

     total energy              =    -361.16898103 Ry
     estimated scf accuracy    <       0.00007690 Ry

     iteration # 32     ecut=    50.00 Ry     beta= 0.30
     Davidson diagonalization with overlap
     ethr =  2.14E-07,  avg # of iterations =  1.3

     total cpu time spent up to now is      219.3 secs

     total energy              =    -361.16896696 Ry
     estimated scf accuracy    <       0.00004887 Ry

     iteration # 33     ecut=    50.00 Ry     beta= 0.30
     Davidson diagonalization with overlap
     ethr =  1.36E-07,  avg # of iterations =  6.2

     total cpu time spent up to now is      226.5 secs

     total energy              =    -361.16898093 Ry
     estimated scf accuracy    <       0.00001432 Ry

     iteration # 34     ecut=    50.00 Ry     beta= 0.30
     Davidson diagonalization with overlap
     ethr =  3.98E-08,  avg # of iterations =  2.1

     total cpu time spent up to now is      231.5 secs

     total energy              =    -361.16897691 Ry
     estimated scf accuracy    <       0.00000649 Ry

     iteration # 35     ecut=    50.00 Ry     beta= 0.30
     Davidson diagonalization with overlap
     c_bands:  2 eigenvalues not converged
     c_bands:  1 eigenvalues not converged
     c_bands:  1 eigenvalues not converged
     ethr =  1.80E-08,  avg # of iterations = 12.4

     total cpu time spent up to now is      244.9 secs

     total energy              =    -361.16897393 Ry
     estimated scf accuracy    <       0.00007702 Ry

     iteration # 36     ecut=    50.00 Ry     beta= 0.30
     Davidson diagonalization with overlap
     ethr =  1.80E-08,  avg # of iterations =  9.6

     total cpu time spent up to now is      255.6 secs

     total energy              =    -361.16898215 Ry
     estimated scf accuracy    <       0.00000088 Ry

     iteration # 37     ecut=    50.00 Ry     beta= 0.30
     Davidson diagonalization with overlap
     c_bands:  2 eigenvalues not converged
     c_bands:  2 eigenvalues not converged
     c_bands:  1 eigenvalues not converged
     c_bands:  2 eigenvalues not converged
     c_bands:  2 eigenvalues not converged
     c_bands:  2 eigenvalues not converged
     ethr =  2.43E-09,  avg # of iterations = 13.0

     total cpu time spent up to now is      268.3 secs

     total energy              =    -361.16898159 Ry
     estimated scf accuracy    <       0.00001185 Ry

     iteration # 38     ecut=    50.00 Ry     beta= 0.30
     Davidson diagonalization with overlap
     ethr =  2.43E-09,  avg # of iterations = 10.3

     total cpu time spent up to now is      278.6 secs

     total energy              =    -361.16898297 Ry
     estimated scf accuracy    <       0.00000010 Ry

     iteration # 39     ecut=    50.00 Ry     beta= 0.30
     Davidson diagonalization with overlap
     ethr =  2.87E-10,  avg # of iterations =  7.8

     total cpu time spent up to now is      286.7 secs

     total energy              =    -361.16898297 Ry
     estimated scf accuracy    <       0.00000018 Ry

     iteration # 40     ecut=    50.00 Ry     beta= 0.30
     Davidson diagonalization with overlap
     ethr =  2.87E-10,  avg # of iterations =  6.8

     total cpu time spent up to now is      294.8 secs

     total energy              =    -361.16898305 Ry
     estimated scf accuracy    <       0.00000006 Ry

     iteration # 41     ecut=    50.00 Ry     beta= 0.30
     Davidson diagonalization with overlap
     ethr =  1.68E-10,  avg # of iterations =  5.9

     total cpu time spent up to now is      301.6 secs

     total energy              =    -361.16898301 Ry
     estimated scf accuracy    <       0.00000028 Ry

     iteration # 42     ecut=    50.00 Ry     beta= 0.30
     Davidson diagonalization with overlap
     ethr =  1.68E-10,  avg # of iterations =  2.6

     total cpu time spent up to now is      306.7 secs

     total energy              =    -361.16898299 Ry
     estimated scf accuracy    <       0.00000015 Ry

     iteration # 43     ecut=    50.00 Ry     beta= 0.30
     Davidson diagonalization with overlap
     ethr =  1.68E-10,  avg # of iterations =  4.5

     total cpu time spent up to now is      313.2 secs

     total energy              =    -361.16898301 Ry
     estimated scf accuracy    <       0.00000001 Ry

     iteration # 44     ecut=    50.00 Ry     beta= 0.30
     Davidson diagonalization with overlap
     c_bands:  1 eigenvalues not converged
     ethr =  3.34E-11,  avg # of iterations =  5.5

     total cpu time spent up to now is      319.9 secs

     End of self-consistent calculation

     Number of k-points >= 100: set verbosity='high' to print the bands.

     highest occupied level (ev):     7.8167

!    total energy              =    -361.16898302 Ry
     estimated scf accuracy    <          7.5E-10 Ry

     The total energy is the sum of the following terms:
     one-electron contribution =    -161.25926732 Ry
     hartree contribution      =     120.77171265 Ry
     xc contribution           =    -109.20529359 Ry
     ewald contribution        =    -211.47613476 Ry

     convergence has been achieved in  44 iterations

     Forces acting on atoms (cartesian axes, Ry/au):

     atom    1 type  1   force =     0.07861129    0.02516898    0.02175278
     atom    2 type  1   force =     0.01371899    0.00235281   -0.09578805
     atom    3 type  2   force =    -0.01645600   -0.00059469    0.12211107
     atom    4 type  2   force =    -0.07587428   -0.02692710   -0.04807579
     The non-local contrib.  to forces
     atom    1 type  1   force =     0.24906286   -0.04134394   -0.24448987
     atom    2 type  1   force =    -0.19813791   -0.09382944    0.27588357
     atom    3 type  2   force =     0.15220962   -0.00415195    0.58485361
     atom    4 type  2   force =     0.14580343   -0.08070809   -0.70942268
     The ionic contribution  to forces
     atom    1 type  1   force =     2.82416822   -0.10855168   -0.72626861
     atom    2 type  1   force =    -1.01282118   -1.12462299  -10.65497701
     atom    3 type  2   force =     0.06171192    0.10195512    5.48720444
     atom    4 type  2   force =    -1.87305895    1.13121955    5.89404119
     The local contribution  to forces
     atom    1 type  1   force =    -2.96871259    0.17029444    0.97105880
     atom    2 type  1   force =     1.21404778    1.21459596   10.29430673
     atom    3 type  2   force =    -0.22866313   -0.09837728   -5.94342705
     atom    4 type  2   force =     1.65225327   -1.07798140   -5.23865806
     The core correction contribution to forces
     atom    1 type  1   force =    -0.02590295    0.00477765    0.02138075
     atom    2 type  1   force =     0.01062033    0.00619946   -0.01092625
     atom    3 type  2   force =    -0.00171042   -0.00001839   -0.00652000
     atom    4 type  2   force =    -0.00086182    0.00054125    0.00593052
     The Hubbard contrib.    to forces
     atom    1 type  1   force =     0.00000000    0.00000000    0.00000000
     atom    2 type  1   force =     0.00000000    0.00000000    0.00000000
     atom    3 type  2   force =     0.00000000    0.00000000    0.00000000
     atom    4 type  2   force =     0.00000000    0.00000000    0.00000000
     The SCF correction term to forces
     atom    1 type  1   force =    -0.00000206   -0.00000631    0.00007205
     atom    2 type  1   force =     0.00001216    0.00001101   -0.00007475
     atom    3 type  2   force =    -0.00000180   -0.00000102    0.00000041
     atom    4 type  2   force =    -0.00000801    0.00000277    0.00003358

     Total force =     0.201571     Total SCF correction =     0.000111

     Writing all to output data dir ./ZnO_ANN.save/

     init_run     :      3.45s CPU      3.53s WALL (       1 calls)
     electrons    :    310.27s CPU    315.93s WALL (       1 calls)
     forces       :      1.10s CPU      1.11s WALL (       1 calls)

     Called by init_run:
     wfcinit      :      2.57s CPU      2.61s WALL (       1 calls)
     potinit      :      0.26s CPU      0.27s WALL (       1 calls)
     hinit0       :      0.54s CPU      0.55s WALL (       1 calls)

     Called by electrons:
     c_bands      :    275.66s CPU    280.51s WALL (      44 calls)
     sum_band     :     31.39s CPU     32.11s WALL (      44 calls)
     v_of_rho     :      0.61s CPU      0.67s WALL (      45 calls)
     newd         :      2.49s CPU      2.51s WALL (      45 calls)
     mix_rho      :      0.12s CPU      0.13s WALL (      44 calls)

     Called by c_bands:
     init_us_2    :      2.17s CPU      2.20s WALL (   10080 calls)
     init_us_2:cp :      2.13s CPU      2.17s WALL (   10080 calls)
     cegterg      :    268.59s CPU    273.33s WALL (    4928 calls)

     Called by *egterg:
     cdiaghg      :     32.52s CPU     32.78s WALL (   31097 calls)
     h_psi        :    156.02s CPU    159.56s WALL (   31209 calls)
     s_psi        :     18.03s CPU     18.20s WALL (   31209 calls)
     g_psi        :      0.52s CPU      0.52s WALL (   26169 calls)

     Called by h_psi:
     h_psi:calbec :     21.07s CPU     21.79s WALL (   31209 calls)
     vloc_psi     :    116.37s CPU    119.00s WALL (   31209 calls)
     add_vuspsi   :     18.04s CPU     18.24s WALL (   31209 calls)

     General routines
     calbec       :     28.41s CPU     29.35s WALL (   36585 calls)
     fft          :      0.79s CPU      0.86s WALL (     594 calls)
     ffts         :      0.09s CPU      0.09s WALL (      89 calls)
     fftw         :    122.39s CPU    125.19s WALL (  619618 calls)
     interpolate  :      0.11s CPU      0.11s WALL (      45 calls)

     Parallel routines

     PWSCF        :   5m15.52s CPU   5m21.42s WALL


   This run was terminated on:  17:17:28  24Jun2025            

=------------------------------------------------------------------------------=
   JOB DONE.
=------------------------------------------------------------------------------=
Note: The following floating-point exceptions are signalling: IEEE_INVALID_FLAG
