
     Program PWSCF v.7.2 starts on 24Jun2025 at 14:54:41 

     This program is part of the open-source Quantum ESPRESSO suite
     for quantum simulation of materials; please cite
         "P. Giannozzi et al., J. Phys.:Condens. Matter 21 395502 (2009);
         "P. Giannozzi et al., J. Phys.:Condens. Matter 29 465901 (2017);
         "P. Giannozzi et al., J. Chem. Phys. 152 154105 (2020);
          URL http://www.quantum-espresso.org", 
     in publications or presentations arising from this work. More details at
     http://www.quantum-espresso.org/quote

     Parallel version (MPI), running on     8 processors

     MPI processes distributed on     1 nodes
     91258 MiB available memory on the printing compute node when the environment starts

     Reading input from /home/jvc/QEspresso7.2/ZnO_DataBase/scf_025_NOSYM.in/scf-5.68-1.58-0.25-1.in

     Current dimensions of program PWSCF are:
     Max number of different atomic species (ntypx) = 10
     Max number of k-points (npk) =  40000
     Max angular momentum in pseudopotentials (lmaxx) =  4
     file Zn.upf: wavefunction(s)  3D renormalized

     R & G space division:  proc/nbgrp/npool/nimage =       8
     Subspace diagonalization in iterative solution of the eigenvalue problem:
     a serial algorithm will be used


     Parallelization info
     --------------------
     sticks:   dense  smooth     PW     G-vecs:    dense   smooth      PW
     Min         111      54     16                 4279     1514     257
     Max         112      55     18                 4284     1519     260
     Sum         889     439    139                34245    12143    2069

     Using Slab Decomposition



     bravais-lattice index     =            0
     lattice parameter (alat)  =       5.6845  a.u.
     unit-cell volume          =     254.5253 (a.u.)^3
     number of atoms/cell      =            4
     number of atomic types    =            2
     number of electrons       =        36.00
     number of Kohn-Sham states=           18
     kinetic-energy cutoff     =      50.0000  Ry
     charge density cutoff     =     400.0000  Ry
     scf convergence threshold =      1.0E-08
     mixing beta               =       0.3000
     number of iterations used =            8  plain     mixing
     Exchange-correlation= PBE
                           (   1   4   3   4   0   0   0)

     celldm(1)=   5.684516  celldm(2)=   0.000000  celldm(3)=   0.000000
     celldm(4)=   0.000000  celldm(5)=   0.000000  celldm(6)=   0.000000

     crystal axes: (cart. coord. in units of alat)
               a(1) = (   1.000000   0.000000   0.000000 )  
               a(2) = (  -0.500000   0.866025   0.000000 )  
               a(3) = (   0.000000   0.000000   1.600000 )  

     reciprocal axes: (cart. coord. in units 2 pi/alat)
               b(1) = (  1.000000  0.577350 -0.000000 )  
               b(2) = (  0.000000  1.154701  0.000000 )  
               b(3) = (  0.000000 -0.000000  0.625000 )  


     PseudoPot. # 1 for Zn read from file:
     ./pseudos/Zn.upf
     MD5 check sum: 7f56cabf9682ed8c977c2f7d0c5985c5
     Pseudo is Ultrasoft + core correction, Zval = 12.0
     Generated using &quot;atomic&quot; code by A. Dal Corso  v.6.2.2
     Using radial grid of 1201 points,  6 beta functions with: 
                l(1) =   0
                l(2) =   0
                l(3) =   1
                l(4) =   1
                l(5) =   2
                l(6) =   2
     Q(r) pseudized with 0 coefficients 


     PseudoPot. # 2 for O  read from file:
     ./pseudos/O.upf
     MD5 check sum: 91400c9766925bcf19f520983a725ff0
     Pseudo is Ultrasoft + core correction, Zval =  6.0
     Generated using &quot;atomic&quot; code by A. Dal Corso  v.6.3MaX
     Using radial grid of 1095 points,  4 beta functions with: 
                l(1) =   0
                l(2) =   0
                l(3) =   1
                l(4) =   1
     Q(r) pseudized with 0 coefficients 


     atomic species   valence    mass     pseudopotential
        Zn            12.00    63.38000     Zn( 1.00)
        O              6.00    15.99900     O ( 1.00)

     No symmetry found



   Cartesian axes

     site n.     atom                  positions (alat units)
         1           Zn  tau(   1) = (   0.6260966   0.0768635   0.8157098  )
         2           Zn  tau(   2) = (   0.1550884   0.6685059   0.1523529  )
         3           O   tau(   3) = (   0.6779907   0.3940288   1.2605858  )
         4           O   tau(   4) = (  -0.0009509   0.7933000   0.9471050  )

     number of k points=   112

     Number of k-points >= 100: set verbosity='high' to print them.

     Dense  grid:    34245 G-vectors     FFT dimensions: (  40,  40,  60)

     Smooth grid:    12143 G-vectors     FFT dimensions: (  25,  25,  45)

     Estimated max dynamical RAM per process >      24.48 MB

     Estimated total dynamical RAM >     195.83 MB

     Check: negative core charge=   -0.000002

     Initial potential from superposition of free atoms

     starting charge      35.9925, renormalised to      36.0000
     Starting wfcs are   26 randomized atomic wfcs

     total cpu time spent up to now is        3.4 secs

     Self-consistent Calculation

     iteration #  1     ecut=    50.00 Ry     beta= 0.30
     Davidson diagonalization with overlap
     ethr =  1.00E-02,  avg # of iterations =  4.8

     total cpu time spent up to now is        9.5 secs

     total energy              =    -348.53754662 Ry
     estimated scf accuracy    <       1.21590169 Ry

     iteration #  2     ecut=    50.00 Ry     beta= 0.30
     Davidson diagonalization with overlap
     ethr =  3.38E-03,  avg # of iterations =  4.6

     total cpu time spent up to now is       14.9 secs

     total energy              =    -348.73170211 Ry
     estimated scf accuracy    <       0.23867068 Ry

     iteration #  3     ecut=    50.00 Ry     beta= 0.30
     Davidson diagonalization with overlap
     ethr =  6.63E-04,  avg # of iterations =  5.5

     total cpu time spent up to now is       20.6 secs

     total energy              =    -348.76385730 Ry
     estimated scf accuracy    <       0.10027731 Ry

     iteration #  4     ecut=    50.00 Ry     beta= 0.30
     Davidson diagonalization with overlap
     ethr =  2.79E-04,  avg # of iterations =  3.7

     total cpu time spent up to now is       25.4 secs

     total energy              =    -348.76606109 Ry
     estimated scf accuracy    <       0.02480600 Ry

     iteration #  5     ecut=    50.00 Ry     beta= 0.30
     Davidson diagonalization with overlap
     c_bands:  1 eigenvalues not converged
     c_bands:  1 eigenvalues not converged
     ethr =  6.89E-05,  avg # of iterations =  8.6

     total cpu time spent up to now is       33.8 secs

     total energy              =    -348.76435916 Ry
     estimated scf accuracy    <       0.05240829 Ry

     iteration #  6     ecut=    50.00 Ry     beta= 0.30
     Davidson diagonalization with overlap
     ethr =  6.89E-05,  avg # of iterations =  7.1

     total cpu time spent up to now is       40.5 secs

     total energy              =    -348.77616575 Ry
     estimated scf accuracy    <       0.00681005 Ry

     iteration #  7     ecut=    50.00 Ry     beta= 0.30
     Davidson diagonalization with overlap
     ethr =  1.89E-05,  avg # of iterations =  5.0

     total cpu time spent up to now is       45.8 secs

     total energy              =    -348.77356809 Ry
     estimated scf accuracy    <       0.00754186 Ry

     iteration #  8     ecut=    50.00 Ry     beta= 0.30
     Davidson diagonalization with overlap
     c_bands:  1 eigenvalues not converged
     ethr =  1.89E-05,  avg # of iterations =  6.1

     total cpu time spent up to now is       51.9 secs

     total energy              =    -348.77584588 Ry
     estimated scf accuracy    <       0.00142942 Ry

     iteration #  9     ecut=    50.00 Ry     beta= 0.30
     Davidson diagonalization with overlap
     ethr =  3.97E-06,  avg # of iterations =  2.5

     total cpu time spent up to now is       56.2 secs

     total energy              =    -348.77548656 Ry
     estimated scf accuracy    <       0.00087808 Ry

     iteration # 10     ecut=    50.00 Ry     beta= 0.30
     Davidson diagonalization with overlap
     ethr =  2.44E-06,  avg # of iterations =  6.9

     total cpu time spent up to now is       62.6 secs

     total energy              =    -348.77592415 Ry
     estimated scf accuracy    <       0.00037782 Ry

     iteration # 11     ecut=    50.00 Ry     beta= 0.30
     Davidson diagonalization with overlap
     ethr =  1.05E-06,  avg # of iterations =  1.5

     total cpu time spent up to now is       66.3 secs

     total energy              =    -348.77583607 Ry
     estimated scf accuracy    <       0.00030962 Ry

     iteration # 12     ecut=    50.00 Ry     beta= 0.30
     Davidson diagonalization with overlap
     ethr =  8.60E-07,  avg # of iterations =  3.7

     total cpu time spent up to now is       70.9 secs

     total energy              =    -348.77583692 Ry
     estimated scf accuracy    <       0.00005911 Ry

     iteration # 13     ecut=    50.00 Ry     beta= 0.30
     Davidson diagonalization with overlap
     c_bands:  1 eigenvalues not converged
     c_bands:  1 eigenvalues not converged
     c_bands:  1 eigenvalues not converged
     c_bands:  1 eigenvalues not converged
     c_bands:  1 eigenvalues not converged
     c_bands:  1 eigenvalues not converged
     c_bands:  1 eigenvalues not converged
     c_bands:  1 eigenvalues not converged
     c_bands:  1 eigenvalues not converged
     c_bands:  1 eigenvalues not converged
     c_bands:  1 eigenvalues not converged
     ethr =  1.64E-07,  avg # of iterations = 13.9

     total cpu time spent up to now is       82.5 secs

     total energy              =    -348.77605510 Ry
     estimated scf accuracy    <       0.00080180 Ry

     iteration # 14     ecut=    50.00 Ry     beta= 0.30
     Davidson diagonalization with overlap
     ethr =  1.64E-07,  avg # of iterations =  1.6

     total cpu time spent up to now is       86.2 secs

     total energy              =    -348.77585568 Ry
     estimated scf accuracy    <       0.00083545 Ry

     iteration # 15     ecut=    50.00 Ry     beta= 0.30
     Davidson diagonalization with overlap
     c_bands:  1 eigenvalues not converged
     c_bands:  1 eigenvalues not converged
     ethr =  1.64E-07,  avg # of iterations =  8.4

     total cpu time spent up to now is       93.4 secs

     total energy              =    -348.77584642 Ry
     estimated scf accuracy    <       0.00014950 Ry

     iteration # 16     ecut=    50.00 Ry     beta= 0.30
     Davidson diagonalization with overlap
     c_bands:  1 eigenvalues not converged
     ethr =  1.64E-07,  avg # of iterations =  8.2

     total cpu time spent up to now is      100.0 secs

     total energy              =    -348.77588314 Ry
     estimated scf accuracy    <       0.00000614 Ry

     iteration # 17     ecut=    50.00 Ry     beta= 0.30
     Davidson diagonalization with overlap
     c_bands:  1 eigenvalues not converged
     ethr =  1.71E-08,  avg # of iterations =  6.1

     total cpu time spent up to now is      105.7 secs

     total energy              =    -348.77588533 Ry
     estimated scf accuracy    <       0.00000017 Ry

     iteration # 18     ecut=    50.00 Ry     beta= 0.30
     Davidson diagonalization with overlap
     c_bands:  1 eigenvalues not converged
     c_bands:  1 eigenvalues not converged
     ethr =  4.64E-10,  avg # of iterations =  8.9

     total cpu time spent up to now is      113.7 secs

     total energy              =    -348.77588548 Ry
     estimated scf accuracy    <       0.00000013 Ry

     iteration # 19     ecut=    50.00 Ry     beta= 0.30
     Davidson diagonalization with overlap
     c_bands:  1 eigenvalues not converged
     c_bands:  1 eigenvalues not converged
     c_bands:  1 eigenvalues not converged
     c_bands:  1 eigenvalues not converged
     c_bands:  1 eigenvalues not converged
     c_bands:  1 eigenvalues not converged
     ethr =  3.48E-10,  avg # of iterations = 10.3

     total cpu time spent up to now is      121.8 secs

     total energy              =    -348.77588540 Ry
     estimated scf accuracy    <       0.00000055 Ry

     iteration # 20     ecut=    50.00 Ry     beta= 0.30
     Davidson diagonalization with overlap
     c_bands:  1 eigenvalues not converged
     c_bands:  1 eigenvalues not converged
     c_bands:  1 eigenvalues not converged
     c_bands:  1 eigenvalues not converged
     c_bands:  1 eigenvalues not converged
     ethr =  3.48E-10,  avg # of iterations =  9.5

     total cpu time spent up to now is      129.5 secs

     total energy              =    -348.77588554 Ry
     estimated scf accuracy    <       0.00000005 Ry

     iteration # 21     ecut=    50.00 Ry     beta= 0.30
     Davidson diagonalization with overlap
     ethr =  1.44E-10,  avg # of iterations =  1.8

     total cpu time spent up to now is      133.2 secs

     total energy              =    -348.77588552 Ry
     estimated scf accuracy    <       0.00000003 Ry

     iteration # 22     ecut=    50.00 Ry     beta= 0.30
     Davidson diagonalization with overlap
     c_bands:  1 eigenvalues not converged
     ethr =  9.51E-11,  avg # of iterations =  7.0

     total cpu time spent up to now is      139.2 secs

     total energy              =    -348.77588553 Ry
     estimated scf accuracy    <       0.00000001 Ry

     iteration # 23     ecut=    50.00 Ry     beta= 0.30
     Davidson diagonalization with overlap
     ethr =  3.72E-11,  avg # of iterations =  2.2

     total cpu time spent up to now is      143.1 secs

     End of self-consistent calculation

     Number of k-points >= 100: set verbosity='high' to print the bands.

     highest occupied level (ev):    14.0777

!    total energy              =    -348.77588553 Ry
     estimated scf accuracy    <          5.7E-09 Ry

     The total energy is the sum of the following terms:
     one-electron contribution =    -180.81854551 Ry
     hartree contribution      =     131.79580799 Ry
     xc contribution           =    -112.18398129 Ry
     ewald contribution        =    -187.56916672 Ry

     convergence has been achieved in  23 iterations

     Forces acting on atoms (cartesian axes, Ry/au):

     atom    1 type  1   force =    16.66930188   19.56799942  -17.42128635
     atom    2 type  1   force =     0.01434223   -0.04231758   -0.14755411
     atom    3 type  2   force =    -0.02693126    0.13915747    0.49285838
     atom    4 type  2   force =   -16.65671284  -19.66483930   17.07598208
     The non-local contrib.  to forces
     atom    1 type  1   force =    -6.67690493   -7.76641068    7.06189657
     atom    2 type  1   force =    -0.05069277   -0.01383088   -0.03448401
     atom    3 type  2   force =    -0.16885357   -0.49760528   -0.17752218
     atom    4 type  2   force =     1.80624107    2.11514457   -2.21621947
     The ionic contribution  to forces
     atom    1 type  1   force =    39.13418902   45.10927050  -48.51145265
     atom    2 type  1   force =     0.92506900   -2.36949437   -1.75487385
     atom    3 type  2   force =     0.03719080    4.23185780   10.84242955
     atom    4 type  2   force =   -40.09644882  -46.97163393   39.42389695
     The local contribution  to forces
     atom    1 type  1   force =   -15.23307406  -17.12160886   23.46602622
     atom    2 type  1   force =    -0.85967519    2.33430036    1.63193219
     atom    3 type  2   force =     0.10323710   -3.59771191  -10.17035832
     atom    4 type  2   force =    21.60187386   25.15387717  -20.10308390
     The core correction contribution to forces
     atom    1 type  1   force =    -0.55483109   -0.65318719    0.56189547
     atom    2 type  1   force =    -0.00037358    0.00666180    0.01007844
     atom    3 type  2   force =     0.00146427    0.00261113   -0.00155427
     atom    4 type  2   force =     0.03159420    0.03773824   -0.02867386
     The Hubbard contrib.    to forces
     atom    1 type  1   force =     0.00000000    0.00000000    0.00000000
     atom    2 type  1   force =     0.00000000    0.00000000    0.00000000
     atom    3 type  2   force =     0.00000000    0.00000000    0.00000000
     atom    4 type  2   force =     0.00000000    0.00000000    0.00000000
     The SCF correction term to forces
     atom    1 type  1   force =    -0.00010383   -0.00008654    0.00039572
     atom    2 type  1   force =    -0.00001200    0.00002333   -0.00015920
     atom    3 type  2   force =     0.00000337   -0.00001645   -0.00008872
     atom    4 type  2   force =     0.00000007    0.00001247    0.00011004

     Total force =    43.821243     Total SCF correction =     0.000470

     Writing all to output data dir ./ZnO_ANN.save/

     init_run     :      2.81s CPU      2.89s WALL (       1 calls)
     electrons    :    136.62s CPU    139.76s WALL (       1 calls)
     forces       :      0.87s CPU      0.88s WALL (       1 calls)

     Called by init_run:
     wfcinit      :      1.97s CPU      2.01s WALL (       1 calls)
     potinit      :      0.20s CPU      0.21s WALL (       1 calls)
     hinit0       :      0.59s CPU      0.60s WALL (       1 calls)

     Called by electrons:
     c_bands      :    122.85s CPU    125.54s WALL (      23 calls)
     sum_band     :     12.40s CPU     12.79s WALL (      23 calls)
     v_of_rho     :      0.32s CPU      0.34s WALL (      24 calls)
     newd         :      1.03s CPU      1.05s WALL (      24 calls)
     mix_rho      :      0.05s CPU      0.06s WALL (      23 calls)

     Called by c_bands:
     init_us_2    :      0.89s CPU      0.91s WALL (    5376 calls)
     init_us_2:cp :      0.88s CPU      0.89s WALL (    5376 calls)
     cegterg      :    119.93s CPU    122.56s WALL (    2576 calls)

     Called by *egterg:
     cdiaghg      :     19.10s CPU     19.31s WALL (   18044 calls)
     h_psi        :     64.40s CPU     66.34s WALL (   18156 calls)
     s_psi        :      7.75s CPU      7.84s WALL (   18156 calls)
     g_psi        :      0.24s CPU      0.24s WALL (   15468 calls)

     Called by h_psi:
     h_psi:calbec :      9.45s CPU      9.84s WALL (   18156 calls)
     vloc_psi     :     46.97s CPU     48.41s WALL (   18156 calls)
     add_vuspsi   :      7.72s CPU      7.84s WALL (   18156 calls)

     General routines
     calbec       :     12.71s CPU     13.22s WALL (   21180 calls)
     fft          :      0.56s CPU      0.60s WALL (     321 calls)
     ffts         :      0.05s CPU      0.06s WALL (      47 calls)
     fftw         :     47.59s CPU     49.04s WALL (  344282 calls)
     interpolate  :      0.06s CPU      0.07s WALL (      24 calls)

     Parallel routines

     PWSCF        :   2m20.99s CPU   2m24.36s WALL


   This run was terminated on:  14:57: 5  24Jun2025            

=------------------------------------------------------------------------------=
   JOB DONE.
=------------------------------------------------------------------------------=
Note: The following floating-point exceptions are signalling: IEEE_INVALID_FLAG
