
     Program PWSCF v.7.2 starts on 24Jun2025 at 19:25:47 

     This program is part of the open-source Quantum ESPRESSO suite
     for quantum simulation of materials; please cite
         "P. Giannozzi et al., J. Phys.:Condens. Matter 21 395502 (2009);
         "P. Giannozzi et al., J. Phys.:Condens. Matter 29 465901 (2017);
         "P. Giannozzi et al., J. Chem. Phys. 152 154105 (2020);
          URL http://www.quantum-espresso.org", 
     in publications or presentations arising from this work. More details at
     http://www.quantum-espresso.org/quote

     Parallel version (MPI), running on     8 processors

     MPI processes distributed on     1 nodes
     90855 MiB available memory on the printing compute node when the environment starts

     Reading input from /home/jvc/QEspresso7.2/ZnO_DataBase/scf_025_NOSYM.in/scf-6.55-1.71-0.25-2.in

     Current dimensions of program PWSCF are:
     Max number of different atomic species (ntypx) = 10
     Max number of k-points (npk) =  40000
     Max angular momentum in pseudopotentials (lmaxx) =  4
     file Zn.upf: wavefunction(s)  3D renormalized

     R & G space division:  proc/nbgrp/npool/nimage =       8
     Subspace diagonalization in iterative solution of the eigenvalue problem:
     a serial algorithm will be used


     Parallelization info
     --------------------
     sticks:   dense  smooth     PW     G-vecs:    dense   smooth      PW
     Min         147      72     23                 6576     2326     385
     Max         148      73     24                 6577     2335     388
     Sum        1177     583    187                52615    18665    3091

     Using Slab Decomposition



     bravais-lattice index     =            0
     lattice parameter (alat)  =       6.5496  a.u.
     unit-cell volume          =     389.3007 (a.u.)^3
     number of atoms/cell      =            4
     number of atomic types    =            2
     number of electrons       =        36.00
     number of Kohn-Sham states=           18
     kinetic-energy cutoff     =      50.0000  Ry
     charge density cutoff     =     400.0000  Ry
     scf convergence threshold =      1.0E-08
     mixing beta               =       0.3000
     number of iterations used =            8  plain     mixing
     Exchange-correlation= PBE
                           (   1   4   3   4   0   0   0)

     celldm(1)=   6.549551  celldm(2)=   0.000000  celldm(3)=   0.000000
     celldm(4)=   0.000000  celldm(5)=   0.000000  celldm(6)=   0.000000

     crystal axes: (cart. coord. in units of alat)
               a(1) = (   1.000000   0.000000   0.000000 )  
               a(2) = (  -0.500000   0.866025   0.000000 )  
               a(3) = (   0.000000   0.000000   1.600000 )  

     reciprocal axes: (cart. coord. in units 2 pi/alat)
               b(1) = (  1.000000  0.577350 -0.000000 )  
               b(2) = (  0.000000  1.154701  0.000000 )  
               b(3) = (  0.000000 -0.000000  0.625000 )  


     PseudoPot. # 1 for Zn read from file:
     ./pseudos/Zn.upf
     MD5 check sum: 7f56cabf9682ed8c977c2f7d0c5985c5
     Pseudo is Ultrasoft + core correction, Zval = 12.0
     Generated using &quot;atomic&quot; code by A. Dal Corso  v.6.2.2
     Using radial grid of 1201 points,  6 beta functions with: 
                l(1) =   0
                l(2) =   0
                l(3) =   1
                l(4) =   1
                l(5) =   2
                l(6) =   2
     Q(r) pseudized with 0 coefficients 


     PseudoPot. # 2 for O  read from file:
     ./pseudos/O.upf
     MD5 check sum: 91400c9766925bcf19f520983a725ff0
     Pseudo is Ultrasoft + core correction, Zval =  6.0
     Generated using &quot;atomic&quot; code by A. Dal Corso  v.6.3MaX
     Using radial grid of 1095 points,  4 beta functions with: 
                l(1) =   0
                l(2) =   0
                l(3) =   1
                l(4) =   1
     Q(r) pseudized with 0 coefficients 


     atomic species   valence    mass     pseudopotential
        Zn            12.00    63.38000     Zn( 1.00)
        O              6.00    15.99900     O ( 1.00)

     No symmetry found



   Cartesian axes

     site n.     atom                  positions (alat units)
         1           Zn  tau(   1) = (   0.4792946   0.5018443   0.7064485  )
         2           Zn  tau(   2) = (   0.1569230   0.5265605   0.0166469  )
         3           O   tau(   3) = (   0.5613995   0.4396551   1.5100197  )
         4           O   tau(   4) = (   0.0199531   0.7321367   0.2179115  )

     number of k points=   112

     Number of k-points >= 100: set verbosity='high' to print them.

     Dense  grid:    52615 G-vectors     FFT dimensions: (  45,  45,  72)

     Smooth grid:    18665 G-vectors     FFT dimensions: (  30,  30,  48)

     Estimated max dynamical RAM per process >      35.72 MB

     Estimated total dynamical RAM >     285.77 MB

     Check: negative core charge=   -0.000002

     Initial potential from superposition of free atoms

     starting charge      35.9925, renormalised to      36.0000
     Starting wfcs are   26 randomized atomic wfcs

     total cpu time spent up to now is        4.5 secs

     Self-consistent Calculation

     iteration #  1     ecut=    50.00 Ry     beta= 0.30
     Davidson diagonalization with overlap
     ethr =  1.00E-02,  avg # of iterations =  2.2

     total cpu time spent up to now is       10.9 secs

     total energy              =    -358.96299750 Ry
     estimated scf accuracy    <       1.91454394 Ry

     iteration #  2     ecut=    50.00 Ry     beta= 0.30
     Davidson diagonalization with overlap
     ethr =  5.32E-03,  avg # of iterations =  5.9

     total cpu time spent up to now is       18.9 secs

     total energy              =    -359.37124658 Ry
     estimated scf accuracy    <       0.11310984 Ry

     iteration #  3     ecut=    50.00 Ry     beta= 0.30
     Davidson diagonalization with overlap
     ethr =  3.14E-04,  avg # of iterations =  7.9

     total cpu time spent up to now is       31.0 secs

     total energy              =    -359.42671361 Ry
     estimated scf accuracy    <       0.14009812 Ry

     iteration #  4     ecut=    50.00 Ry     beta= 0.30
     Davidson diagonalization with overlap
     ethr =  3.14E-04,  avg # of iterations =  7.8

     total cpu time spent up to now is       39.9 secs

     total energy              =    -359.45923819 Ry
     estimated scf accuracy    <       0.05995728 Ry

     iteration #  5     ecut=    50.00 Ry     beta= 0.30
     Davidson diagonalization with overlap
     ethr =  1.67E-04,  avg # of iterations =  5.0

     total cpu time spent up to now is       47.1 secs

     total energy              =    -359.46708083 Ry
     estimated scf accuracy    <       0.00426524 Ry

     iteration #  6     ecut=    50.00 Ry     beta= 0.30
     Davidson diagonalization with overlap
     c_bands:  1 eigenvalues not converged
     c_bands:  1 eigenvalues not converged
     c_bands:  3 eigenvalues not converged
     c_bands:  1 eigenvalues not converged
     c_bands:  1 eigenvalues not converged
     c_bands:  1 eigenvalues not converged
     c_bands:  2 eigenvalues not converged
     c_bands:  1 eigenvalues not converged
     c_bands:  1 eigenvalues not converged
     c_bands:  1 eigenvalues not converged
     ethr =  1.18E-05,  avg # of iterations = 14.3

     total cpu time spent up to now is       62.4 secs

     total energy              =    -359.45865468 Ry
     estimated scf accuracy    <       0.04890864 Ry

     iteration #  7     ecut=    50.00 Ry     beta= 0.30
     Davidson diagonalization with overlap
     c_bands:  1 eigenvalues not converged
     c_bands:  1 eigenvalues not converged
     c_bands:  1 eigenvalues not converged
     c_bands:  1 eigenvalues not converged
     c_bands:  1 eigenvalues not converged
     ethr =  1.18E-05,  avg # of iterations = 14.6

     total cpu time spent up to now is       78.8 secs

     total energy              =    -359.46828753 Ry
     estimated scf accuracy    <       0.02183547 Ry

     iteration #  8     ecut=    50.00 Ry     beta= 0.30
     Davidson diagonalization with overlap
     ethr =  1.18E-05,  avg # of iterations =  9.6

     total cpu time spent up to now is       89.5 secs

     total energy              =    -359.47161754 Ry
     estimated scf accuracy    <       0.00014179 Ry

     iteration #  9     ecut=    50.00 Ry     beta= 0.30
     Davidson diagonalization with overlap
     c_bands:  1 eigenvalues not converged
     c_bands:  1 eigenvalues not converged
     c_bands:  1 eigenvalues not converged
     c_bands:  1 eigenvalues not converged
     c_bands:  1 eigenvalues not converged
     c_bands:  1 eigenvalues not converged
     c_bands:  1 eigenvalues not converged
     ethr =  3.94E-07,  avg # of iterations = 11.8

     total cpu time spent up to now is      101.9 secs

     total energy              =    -359.47180400 Ry
     estimated scf accuracy    <       0.00008719 Ry

     iteration # 10     ecut=    50.00 Ry     beta= 0.30
     Davidson diagonalization with overlap
     ethr =  2.42E-07,  avg # of iterations =  3.8

     total cpu time spent up to now is      108.1 secs

     total energy              =    -359.47180676 Ry
     estimated scf accuracy    <       0.00002209 Ry

     iteration # 11     ecut=    50.00 Ry     beta= 0.30
     Davidson diagonalization with overlap
     c_bands:  1 eigenvalues not converged
     c_bands:  1 eigenvalues not converged
     c_bands:  1 eigenvalues not converged
     c_bands:  1 eigenvalues not converged
     c_bands:  1 eigenvalues not converged
     c_bands:  1 eigenvalues not converged
     c_bands:  1 eigenvalues not converged
     ethr =  6.14E-08,  avg # of iterations = 13.1

     total cpu time spent up to now is      121.1 secs

     total energy              =    -359.47183711 Ry
     estimated scf accuracy    <       0.00012388 Ry

     iteration # 12     ecut=    50.00 Ry     beta= 0.30
     Davidson diagonalization with overlap
     ethr =  6.14E-08,  avg # of iterations =  1.1

     total cpu time spent up to now is      126.3 secs

     total energy              =    -359.47179118 Ry
     estimated scf accuracy    <       0.00010884 Ry

     iteration # 13     ecut=    50.00 Ry     beta= 0.30
     Davidson diagonalization with overlap
     c_bands:  1 eigenvalues not converged
     c_bands:  1 eigenvalues not converged
     c_bands:  1 eigenvalues not converged
     c_bands:  1 eigenvalues not converged
     ethr =  6.14E-08,  avg # of iterations = 12.7

     total cpu time spent up to now is      138.8 secs

     total energy              =    -359.47182564 Ry
     estimated scf accuracy    <       0.00005618 Ry

     iteration # 14     ecut=    50.00 Ry     beta= 0.30
     Davidson diagonalization with overlap
     ethr =  6.14E-08,  avg # of iterations =  1.5

     total cpu time spent up to now is      144.2 secs

     total energy              =    -359.47182750 Ry
     estimated scf accuracy    <       0.00003915 Ry

     iteration # 15     ecut=    50.00 Ry     beta= 0.30
     Davidson diagonalization with overlap
     ethr =  6.14E-08,  avg # of iterations =  1.0

     total cpu time spent up to now is      149.4 secs

     total energy              =    -359.47184285 Ry
     estimated scf accuracy    <       0.00003934 Ry

     iteration # 16     ecut=    50.00 Ry     beta= 0.30
     Davidson diagonalization with overlap
     ethr =  6.14E-08,  avg # of iterations =  5.0

     total cpu time spent up to now is      156.4 secs

     total energy              =    -359.47184755 Ry
     estimated scf accuracy    <       0.00011938 Ry

     iteration # 17     ecut=    50.00 Ry     beta= 0.30
     Davidson diagonalization with overlap
     ethr =  6.14E-08,  avg # of iterations =  1.2

     total cpu time spent up to now is      161.7 secs

     total energy              =    -359.47183247 Ry
     estimated scf accuracy    <       0.00012785 Ry

     iteration # 18     ecut=    50.00 Ry     beta= 0.30
     Davidson diagonalization with overlap
     ethr =  6.14E-08,  avg # of iterations =  1.5

     total cpu time spent up to now is      167.1 secs

     total energy              =    -359.47182923 Ry
     estimated scf accuracy    <       0.00009810 Ry

     iteration # 19     ecut=    50.00 Ry     beta= 0.30
     Davidson diagonalization with overlap
     ethr =  6.14E-08,  avg # of iterations =  2.2

     total cpu time spent up to now is      172.8 secs

     total energy              =    -359.47183292 Ry
     estimated scf accuracy    <       0.00007494 Ry

     iteration # 20     ecut=    50.00 Ry     beta= 0.30
     Davidson diagonalization with overlap
     ethr =  6.14E-08,  avg # of iterations =  1.1

     total cpu time spent up to now is      178.0 secs

     total energy              =    -359.47182579 Ry
     estimated scf accuracy    <       0.00007728 Ry

     iteration # 21     ecut=    50.00 Ry     beta= 0.30
     Davidson diagonalization with overlap
     ethr =  6.14E-08,  avg # of iterations =  2.9

     total cpu time spent up to now is      183.9 secs

     total energy              =    -359.47182285 Ry
     estimated scf accuracy    <       0.00004443 Ry

     iteration # 22     ecut=    50.00 Ry     beta= 0.30
     Davidson diagonalization with overlap
     ethr =  6.14E-08,  avg # of iterations =  2.6

     total cpu time spent up to now is      190.1 secs

     total energy              =    -359.47183575 Ry
     estimated scf accuracy    <       0.00002829 Ry

     iteration # 23     ecut=    50.00 Ry     beta= 0.30
     Davidson diagonalization with overlap
     ethr =  6.14E-08,  avg # of iterations =  3.8

     total cpu time spent up to now is      196.9 secs

     total energy              =    -359.47183883 Ry
     estimated scf accuracy    <       0.00007372 Ry

     iteration # 24     ecut=    50.00 Ry     beta= 0.30
     Davidson diagonalization with overlap
     ethr =  6.14E-08,  avg # of iterations =  1.4

     total cpu time spent up to now is      202.3 secs

     total energy              =    -359.47183398 Ry
     estimated scf accuracy    <       0.00007785 Ry

     iteration # 25     ecut=    50.00 Ry     beta= 0.30
     Davidson diagonalization with overlap
     ethr =  6.14E-08,  avg # of iterations =  1.2

     total cpu time spent up to now is      207.6 secs

     total energy              =    -359.47182146 Ry
     estimated scf accuracy    <       0.00006772 Ry

     iteration # 26     ecut=    50.00 Ry     beta= 0.30
     Davidson diagonalization with overlap
     ethr =  6.14E-08,  avg # of iterations =  4.3

     total cpu time spent up to now is      214.3 secs

     total energy              =    -359.47181680 Ry
     estimated scf accuracy    <       0.00001931 Ry

     iteration # 27     ecut=    50.00 Ry     beta= 0.30
     Davidson diagonalization with overlap
     ethr =  5.36E-08,  avg # of iterations =  7.5

     total cpu time spent up to now is      223.1 secs

     total energy              =    -359.47182446 Ry
     estimated scf accuracy    <       0.00001077 Ry

     iteration # 28     ecut=    50.00 Ry     beta= 0.30
     Davidson diagonalization with overlap
     ethr =  2.99E-08,  avg # of iterations =  1.4

     total cpu time spent up to now is      228.5 secs

     total energy              =    -359.47182220 Ry
     estimated scf accuracy    <       0.00000732 Ry

     iteration # 29     ecut=    50.00 Ry     beta= 0.30
     Davidson diagonalization with overlap
     ethr =  2.03E-08,  avg # of iterations =  6.4

     total cpu time spent up to now is      236.5 secs

     total energy              =    -359.47182473 Ry
     estimated scf accuracy    <       0.00000137 Ry

     iteration # 30     ecut=    50.00 Ry     beta= 0.30
     Davidson diagonalization with overlap
     ethr =  3.80E-09,  avg # of iterations =  3.7

     total cpu time spent up to now is      243.1 secs

     total energy              =    -359.47182473 Ry
     estimated scf accuracy    <       0.00000164 Ry

     iteration # 31     ecut=    50.00 Ry     beta= 0.30
     Davidson diagonalization with overlap
     ethr =  3.80E-09,  avg # of iterations =  1.6

     total cpu time spent up to now is      248.6 secs

     total energy              =    -359.47182437 Ry
     estimated scf accuracy    <       0.00000114 Ry

     iteration # 32     ecut=    50.00 Ry     beta= 0.30
     Davidson diagonalization with overlap
     ethr =  3.15E-09,  avg # of iterations =  7.3

     total cpu time spent up to now is      256.9 secs

     total energy              =    -359.47182471 Ry
     estimated scf accuracy    <       0.00000025 Ry

     iteration # 33     ecut=    50.00 Ry     beta= 0.30
     Davidson diagonalization with overlap
     c_bands:  1 eigenvalues not converged
     ethr =  7.03E-10,  avg # of iterations =  3.3

     total cpu time spent up to now is      263.3 secs

     total energy              =    -359.47182475 Ry
     estimated scf accuracy    <       0.00000016 Ry

     iteration # 34     ecut=    50.00 Ry     beta= 0.30
     Davidson diagonalization with overlap
     ethr =  4.51E-10,  avg # of iterations =  1.6

     total cpu time spent up to now is      268.8 secs

     total energy              =    -359.47182473 Ry
     estimated scf accuracy    <       0.00000019 Ry

     iteration # 35     ecut=    50.00 Ry     beta= 0.30
     Davidson diagonalization with overlap
     ethr =  4.51E-10,  avg # of iterations =  3.2

     total cpu time spent up to now is      274.9 secs

     total energy              =    -359.47182472 Ry
     estimated scf accuracy    <       0.00000007 Ry

     iteration # 36     ecut=    50.00 Ry     beta= 0.30
     Davidson diagonalization with overlap
     ethr =  2.02E-10,  avg # of iterations =  6.7

     total cpu time spent up to now is      282.9 secs

     End of self-consistent calculation

     Number of k-points >= 100: set verbosity='high' to print the bands.

     highest occupied level (ev):     6.2840

!    total energy              =    -359.47182475 Ry
     estimated scf accuracy    <          3.0E-09 Ry

     The total energy is the sum of the following terms:
     one-electron contribution =    -237.50754368 Ry
     hartree contribution      =     155.28079893 Ry
     xc contribution           =    -109.96163670 Ry
     ewald contribution        =    -167.28344329 Ry

     convergence has been achieved in  36 iterations

     Forces acting on atoms (cartesian axes, Ry/au):

     atom    1 type  1   force =     0.01856624   -0.00087396    0.02421316
     atom    2 type  1   force =     1.42018719   -2.75906999   -2.70059556
     atom    3 type  2   force =     0.49953045   -0.13930734   -0.29832907
     atom    4 type  2   force =    -1.93828388    2.89925130    2.97471147
     The non-local contrib.  to forces
     atom    1 type  1   force =    -0.04204629   -0.04288651   -0.05543334
     atom    2 type  1   force =    -0.64164558    0.19597536    0.26098302
     atom    3 type  2   force =    -0.80749899    0.21965255   -0.07442928
     atom    4 type  2   force =     0.43814882   -0.73210423   -0.10054454
     The ionic contribution  to forces
     atom    1 type  1   force =     1.31413793   -0.23667921   14.61102428
     atom    2 type  1   force =     1.72040421  -15.12217465  -22.84027594
     atom    3 type  2   force =     8.84202491   -2.76891831  -11.17864949
     atom    4 type  2   force =   -11.87656705   18.12777217   19.40790115
     The local contribution  to forces
     atom    1 type  1   force =    -1.25293985    0.27672780  -14.52693429
     atom    2 type  1   force =     0.37856293   11.97209656   19.68685233
     atom    3 type  2   force =    -7.53864032    2.41092478   10.95202757
     atom    4 type  2   force =     9.49632408  -14.49148409  -16.32190441
     The core correction contribution to forces
     atom    1 type  1   force =    -0.00058834    0.00194332   -0.00447215
     atom    2 type  1   force =    -0.03710294    0.19507398    0.19184022
     atom    3 type  2   force =     0.00364025   -0.00097566    0.00273634
     atom    4 type  2   force =     0.00382385   -0.00496171   -0.01083732
     The Hubbard contrib.    to forces
     atom    1 type  1   force =     0.00000000    0.00000000    0.00000000
     atom    2 type  1   force =     0.00000000    0.00000000    0.00000000
     atom    3 type  2   force =     0.00000000    0.00000000    0.00000000
     atom    4 type  2   force =     0.00000000    0.00000000    0.00000000
     The SCF correction term to forces
     atom    1 type  1   force =     0.00000463    0.00000456    0.00002735
     atom    2 type  1   force =    -0.00002959   -0.00005732    0.00000349
     atom    3 type  2   force =     0.00000645   -0.00000679   -0.00001553
     atom    4 type  2   force =    -0.00001174    0.00001307    0.00009527

     Total force =     6.188133     Total SCF correction =     0.000121

     Writing all to output data dir ./ZnO_ANN.save/

     init_run     :      4.00s CPU      4.07s WALL (       1 calls)
     electrons    :    274.09s CPU    278.36s WALL (       1 calls)
     forces       :      1.33s CPU      1.35s WALL (       1 calls)

     Called by init_run:
     wfcinit      :      2.94s CPU      2.98s WALL (       1 calls)
     potinit      :      0.39s CPU      0.39s WALL (       1 calls)
     hinit0       :      0.57s CPU      0.58s WALL (       1 calls)

     Called by electrons:
     c_bands      :    241.13s CPU    244.78s WALL (      36 calls)
     sum_band     :     29.69s CPU     30.22s WALL (      36 calls)
     v_of_rho     :      0.71s CPU      0.76s WALL (      37 calls)
     newd         :      2.45s CPU      2.48s WALL (      37 calls)
     mix_rho      :      0.12s CPU      0.13s WALL (      36 calls)

     Called by c_bands:
     init_us_2    :      2.01s CPU      2.04s WALL (    8288 calls)
     init_us_2:cp :      1.98s CPU      2.01s WALL (    8288 calls)
     cegterg      :    233.98s CPU    237.53s WALL (    4032 calls)

     Called by *egterg:
     cdiaghg      :     24.63s CPU     24.83s WALL (   24445 calls)
     h_psi        :    137.03s CPU    139.66s WALL (   24557 calls)
     s_psi        :     14.49s CPU     14.61s WALL (   24557 calls)
     g_psi        :      0.45s CPU      0.45s WALL (   20413 calls)

     Called by h_psi:
     h_psi:calbec :     19.26s CPU     19.79s WALL (   24557 calls)
     vloc_psi     :    102.82s CPU    104.79s WALL (   24557 calls)
     add_vuspsi   :     14.51s CPU     14.65s WALL (   24557 calls)

     General routines
     calbec       :     26.63s CPU     27.29s WALL (   29037 calls)
     fft          :      0.99s CPU      1.07s WALL (     490 calls)
     ffts         :      0.17s CPU      0.17s WALL (      73 calls)
     fftw         :    107.91s CPU    109.99s WALL (  483374 calls)
     interpolate  :      0.19s CPU      0.20s WALL (      37 calls)

     Parallel routines

     PWSCF        :   4m40.18s CPU   4m44.83s WALL


   This run was terminated on:  19:30:32  24Jun2025            

=------------------------------------------------------------------------------=
   JOB DONE.
=------------------------------------------------------------------------------=
Note: The following floating-point exceptions are signalling: IEEE_INVALID_FLAG
