
     Program PWSCF v.7.2 starts on 24Jun2025 at 17:55:15 

     This program is part of the open-source Quantum ESPRESSO suite
     for quantum simulation of materials; please cite
         "P. Giannozzi et al., J. Phys.:Condens. Matter 21 395502 (2009);
         "P. Giannozzi et al., J. Phys.:Condens. Matter 29 465901 (2017);
         "P. Giannozzi et al., J. Chem. Phys. 152 154105 (2020);
          URL http://www.quantum-espresso.org", 
     in publications or presentations arising from this work. More details at
     http://www.quantum-espresso.org/quote

     Parallel version (MPI), running on     8 processors

     MPI processes distributed on     1 nodes
     90883 MiB available memory on the printing compute node when the environment starts

     Reading input from /home/jvc/QEspresso7.2/ZnO_DataBase/scf_025_NOSYM.in/scf-6.30-1.71-0.25-2.in

     Current dimensions of program PWSCF are:
     Max number of different atomic species (ntypx) = 10
     Max number of k-points (npk) =  40000
     Max angular momentum in pseudopotentials (lmaxx) =  4
     file Zn.upf: wavefunction(s)  3D renormalized

     R & G space division:  proc/nbgrp/npool/nimage =       8
     Subspace diagonalization in iterative solution of the eigenvalue problem:
     a serial algorithm will be used


     Parallelization info
     --------------------
     sticks:   dense  smooth     PW     G-vecs:    dense   smooth      PW
     Min         137      68     20                 5853     2068     346
     Max         138      69     21                 5856     2075     353
     Sum        1099     547    163                46835    16563    2791

     Using Slab Decomposition



     bravais-lattice index     =            0
     lattice parameter (alat)  =       6.3024  a.u.
     unit-cell volume          =     346.8711 (a.u.)^3
     number of atoms/cell      =            4
     number of atomic types    =            2
     number of electrons       =        36.00
     number of Kohn-Sham states=           18
     kinetic-energy cutoff     =      50.0000  Ry
     charge density cutoff     =     400.0000  Ry
     scf convergence threshold =      1.0E-08
     mixing beta               =       0.3000
     number of iterations used =            8  plain     mixing
     Exchange-correlation= PBE
                           (   1   4   3   4   0   0   0)

     celldm(1)=   6.302398  celldm(2)=   0.000000  celldm(3)=   0.000000
     celldm(4)=   0.000000  celldm(5)=   0.000000  celldm(6)=   0.000000

     crystal axes: (cart. coord. in units of alat)
               a(1) = (   1.000000   0.000000   0.000000 )  
               a(2) = (  -0.500000   0.866025   0.000000 )  
               a(3) = (   0.000000   0.000000   1.600000 )  

     reciprocal axes: (cart. coord. in units 2 pi/alat)
               b(1) = (  1.000000  0.577350 -0.000000 )  
               b(2) = (  0.000000  1.154701  0.000000 )  
               b(3) = (  0.000000 -0.000000  0.625000 )  


     PseudoPot. # 1 for Zn read from file:
     ./pseudos/Zn.upf
     MD5 check sum: 7f56cabf9682ed8c977c2f7d0c5985c5
     Pseudo is Ultrasoft + core correction, Zval = 12.0
     Generated using &quot;atomic&quot; code by A. Dal Corso  v.6.2.2
     Using radial grid of 1201 points,  6 beta functions with: 
                l(1) =   0
                l(2) =   0
                l(3) =   1
                l(4) =   1
                l(5) =   2
                l(6) =   2
     Q(r) pseudized with 0 coefficients 


     PseudoPot. # 2 for O  read from file:
     ./pseudos/O.upf
     MD5 check sum: 91400c9766925bcf19f520983a725ff0
     Pseudo is Ultrasoft + core correction, Zval =  6.0
     Generated using &quot;atomic&quot; code by A. Dal Corso  v.6.3MaX
     Using radial grid of 1095 points,  4 beta functions with: 
                l(1) =   0
                l(2) =   0
                l(3) =   1
                l(4) =   1
     Q(r) pseudized with 0 coefficients 


     atomic species   valence    mass     pseudopotential
        Zn            12.00    63.38000     Zn( 1.00)
        O              6.00    15.99900     O ( 1.00)

     No symmetry found



   Cartesian axes

     site n.     atom                  positions (alat units)
         1           Zn  tau(   1) = (   0.6834519   0.3714483   0.5214788  )
         2           Zn  tau(   2) = (  -0.1622738   0.6997237   0.3215959  )
         3           O   tau(   3) = (   0.3558030   0.4030658   1.7253205  )
         4           O   tau(   4) = (   0.1297914   0.5282050   0.7082195  )

     number of k points=   112

     Number of k-points >= 100: set verbosity='high' to print them.

     Dense  grid:    46835 G-vectors     FFT dimensions: (  45,  45,  72)

     Smooth grid:    16563 G-vectors     FFT dimensions: (  30,  30,  45)

     Estimated max dynamical RAM per process >      32.29 MB

     Estimated total dynamical RAM >     258.31 MB

     Check: negative core charge=   -0.000003

     Initial potential from superposition of free atoms

     starting charge      35.9925, renormalised to      36.0000
     Starting wfcs are   26 randomized atomic wfcs

     total cpu time spent up to now is        4.2 secs

     Self-consistent Calculation

     iteration #  1     ecut=    50.00 Ry     beta= 0.30
     Davidson diagonalization with overlap
     ethr =  1.00E-02,  avg # of iterations =  2.0

     total cpu time spent up to now is       10.0 secs

     total energy              =    -359.67679606 Ry
     estimated scf accuracy    <       0.98601988 Ry

     iteration #  2     ecut=    50.00 Ry     beta= 0.30
     Davidson diagonalization with overlap
     ethr =  2.74E-03,  avg # of iterations =  3.2

     total cpu time spent up to now is       16.6 secs

     total energy              =    -359.81399220 Ry
     estimated scf accuracy    <       0.14242130 Ry

     iteration #  3     ecut=    50.00 Ry     beta= 0.30
     Davidson diagonalization with overlap
     ethr =  3.96E-04,  avg # of iterations =  6.7

     total cpu time spent up to now is       28.3 secs

     total energy              =    -359.90229092 Ry
     estimated scf accuracy    <       0.11248457 Ry

     iteration #  4     ecut=    50.00 Ry     beta= 0.30
     Davidson diagonalization with overlap
     ethr =  3.12E-04,  avg # of iterations =  4.7

     total cpu time spent up to now is       36.3 secs

     total energy              =    -359.94485202 Ry
     estimated scf accuracy    <       0.02289617 Ry

     iteration #  5     ecut=    50.00 Ry     beta= 0.30
     Davidson diagonalization with overlap
     ethr =  6.36E-05,  avg # of iterations =  5.5

     total cpu time spent up to now is       44.7 secs

     total energy              =    -359.93088461 Ry
     estimated scf accuracy    <       0.06560749 Ry

     iteration #  6     ecut=    50.00 Ry     beta= 0.30
     Davidson diagonalization with overlap
     ethr =  6.36E-05,  avg # of iterations =  2.8

     total cpu time spent up to now is       51.0 secs

     total energy              =    -359.91851694 Ry
     estimated scf accuracy    <       0.02211345 Ry

     iteration #  7     ecut=    50.00 Ry     beta= 0.30
     Davidson diagonalization with overlap
     ethr =  6.14E-05,  avg # of iterations =  6.7

     total cpu time spent up to now is       62.4 secs

     total energy              =    -359.93302817 Ry
     estimated scf accuracy    <       0.03516977 Ry

     iteration #  8     ecut=    50.00 Ry     beta= 0.30
     Davidson diagonalization with overlap
     ethr =  6.14E-05,  avg # of iterations =  1.9

     total cpu time spent up to now is       67.7 secs

     total energy              =    -359.93163008 Ry
     estimated scf accuracy    <       0.01334594 Ry

     iteration #  9     ecut=    50.00 Ry     beta= 0.30
     Davidson diagonalization with overlap
     ethr =  3.71E-05,  avg # of iterations =  2.9

     total cpu time spent up to now is       73.7 secs

     total energy              =    -359.93313361 Ry
     estimated scf accuracy    <       0.00262943 Ry

     iteration # 10     ecut=    50.00 Ry     beta= 0.30
     Davidson diagonalization with overlap
     ethr =  7.30E-06,  avg # of iterations =  5.8

     total cpu time spent up to now is       83.1 secs

     total energy              =    -359.93573194 Ry
     estimated scf accuracy    <       0.00032249 Ry

     iteration # 11     ecut=    50.00 Ry     beta= 0.30
     Davidson diagonalization with overlap
     ethr =  8.96E-07,  avg # of iterations =  8.1

     total cpu time spent up to now is       96.7 secs

     total energy              =    -359.93541642 Ry
     estimated scf accuracy    <       0.00467126 Ry

     iteration # 12     ecut=    50.00 Ry     beta= 0.30
     Davidson diagonalization with overlap
     ethr =  8.96E-07,  avg # of iterations =  4.8

     total cpu time spent up to now is      104.3 secs

     total energy              =    -359.93513389 Ry
     estimated scf accuracy    <       0.00206785 Ry

     iteration # 13     ecut=    50.00 Ry     beta= 0.30
     Davidson diagonalization with overlap
     ethr =  8.96E-07,  avg # of iterations =  4.5

     total cpu time spent up to now is      111.0 secs

     total energy              =    -359.93471887 Ry
     estimated scf accuracy    <       0.00097855 Ry

     iteration # 14     ecut=    50.00 Ry     beta= 0.30
     Davidson diagonalization with overlap
     ethr =  8.96E-07,  avg # of iterations =  6.5

     total cpu time spent up to now is      122.2 secs

     total energy              =    -359.93503646 Ry
     estimated scf accuracy    <       0.00007447 Ry

     iteration # 15     ecut=    50.00 Ry     beta= 0.30
     Davidson diagonalization with overlap
     ethr =  2.07E-07,  avg # of iterations =  5.2

     total cpu time spent up to now is      131.4 secs

     total energy              =    -359.93507530 Ry
     estimated scf accuracy    <       0.00004562 Ry

     iteration # 16     ecut=    50.00 Ry     beta= 0.30
     Davidson diagonalization with overlap
     ethr =  1.27E-07,  avg # of iterations =  1.1

     total cpu time spent up to now is      136.2 secs

     total energy              =    -359.93506080 Ry
     estimated scf accuracy    <       0.00003506 Ry

     iteration # 17     ecut=    50.00 Ry     beta= 0.30
     Davidson diagonalization with overlap
     ethr =  9.74E-08,  avg # of iterations =  2.6

     total cpu time spent up to now is      142.3 secs

     total energy              =    -359.93506313 Ry
     estimated scf accuracy    <       0.00000667 Ry

     iteration # 18     ecut=    50.00 Ry     beta= 0.30
     Davidson diagonalization with overlap
     ethr =  1.85E-08,  avg # of iterations =  5.8

     total cpu time spent up to now is      151.3 secs

     total energy              =    -359.93506800 Ry
     estimated scf accuracy    <       0.00000056 Ry

     iteration # 19     ecut=    50.00 Ry     beta= 0.30
     Davidson diagonalization with overlap
     c_bands:  1 eigenvalues not converged
     ethr =  1.57E-09,  avg # of iterations =  8.5

     total cpu time spent up to now is      166.4 secs

     total energy              =    -359.93506766 Ry
     estimated scf accuracy    <       0.00000535 Ry

     iteration # 20     ecut=    50.00 Ry     beta= 0.30
     Davidson diagonalization with overlap
     ethr =  1.57E-09,  avg # of iterations =  6.4

     total cpu time spent up to now is      177.3 secs

     total energy              =    -359.93506791 Ry
     estimated scf accuracy    <       0.00000048 Ry

     iteration # 21     ecut=    50.00 Ry     beta= 0.30
     Davidson diagonalization with overlap
     ethr =  1.33E-09,  avg # of iterations =  5.0

     total cpu time spent up to now is      186.1 secs

     total energy              =    -359.93506824 Ry
     estimated scf accuracy    <       0.00000019 Ry

     iteration # 22     ecut=    50.00 Ry     beta= 0.30
     Davidson diagonalization with overlap
     ethr =  5.29E-10,  avg # of iterations =  3.3

     total cpu time spent up to now is      192.2 secs

     total energy              =    -359.93506813 Ry
     estimated scf accuracy    <       0.00000039 Ry

     iteration # 23     ecut=    50.00 Ry     beta= 0.30
     Davidson diagonalization with overlap
     ethr =  5.29E-10,  avg # of iterations =  1.9

     total cpu time spent up to now is      197.5 secs

     total energy              =    -359.93506806 Ry
     estimated scf accuracy    <       0.00000018 Ry

     iteration # 24     ecut=    50.00 Ry     beta= 0.30
     Davidson diagonalization with overlap
     ethr =  5.00E-10,  avg # of iterations =  5.0

     total cpu time spent up to now is      205.1 secs

     End of self-consistent calculation

     Number of k-points >= 100: set verbosity='high' to print the bands.

     highest occupied level (ev):     6.6913

!    total energy              =    -359.93506811 Ry
     estimated scf accuracy    <          4.2E-09 Ry

     The total energy is the sum of the following terms:
     one-electron contribution =    -334.08085560 Ry
     hartree contribution      =     204.55495554 Ry
     xc contribution           =    -110.66725375 Ry
     ewald contribution        =    -119.74191430 Ry

     convergence has been achieved in  24 iterations

     Forces acting on atoms (cartesian axes, Ry/au):

     atom    1 type  1   force =    -1.03683597   -2.18216162    1.45759190
     atom    2 type  1   force =     0.90090723    2.19833437   -1.54740113
     atom    3 type  2   force =    -0.02809956   -0.05323025   -0.27641469
     atom    4 type  2   force =     0.16402830    0.03705750    0.36622392
     The non-local contrib.  to forces
     atom    1 type  1   force =     0.64218719    1.12317739   -0.78333913
     atom    2 type  1   force =    -0.98333190   -1.21899112    0.66903014
     atom    3 type  2   force =     0.74818124   -0.30366551    0.88222781
     atom    4 type  2   force =    -0.90056475    0.08636886   -0.73915751
     The ionic contribution  to forces
     atom    1 type  1   force =    -8.44544477  -23.33788389   29.73485306
     atom    2 type  1   force =     5.94824917   22.72207747  -30.27171371
     atom    3 type  2   force =    -4.15297950    0.31582976  -25.00584621
     atom    4 type  2   force =     6.65017510    0.29997666   25.54270687
     The local contribution  to forces
     atom    1 type  1   force =     6.71484714   19.90575577  -27.40616564
     atom    2 type  1   force =    -4.04446859  -19.18629316   27.95683078
     atom    3 type  2   force =     3.38314842   -0.06852180   23.85261501
     atom    4 type  2   force =    -5.59239992   -0.34826198  -24.44064922
     The core correction contribution to forces
     atom    1 type  1   force =     0.05159060    0.12680127   -0.08757841
     atom    2 type  1   force =    -0.01952722   -0.11845702    0.09840992
     atom    3 type  2   force =    -0.00646029    0.00312616   -0.00551676
     atom    4 type  2   force =     0.00683366   -0.00102706    0.00342534
     The Hubbard contrib.    to forces
     atom    1 type  1   force =     0.00000000    0.00000000    0.00000000
     atom    2 type  1   force =     0.00000000    0.00000000    0.00000000
     atom    3 type  2   force =     0.00000000    0.00000000    0.00000000
     atom    4 type  2   force =     0.00000000    0.00000000    0.00000000
     The SCF correction term to forces
     atom    1 type  1   force =    -0.00001509   -0.00001879   -0.00019405
     atom    2 type  1   force =    -0.00001318   -0.00000843    0.00002567
     atom    3 type  2   force =     0.00001162   -0.00000549    0.00008940
     atom    4 type  2   force =    -0.00001474   -0.00000561   -0.00011762

     Total force =     4.030213     Total SCF correction =     0.000248

     Writing all to output data dir ./ZnO_ANN.save/

     init_run     :      3.64s CPU      3.72s WALL (       1 calls)
     electrons    :    197.31s CPU    200.90s WALL (       1 calls)
     forces       :      1.17s CPU      1.18s WALL (       1 calls)

     Called by init_run:
     wfcinit      :      2.70s CPU      2.75s WALL (       1 calls)
     potinit      :      0.32s CPU      0.32s WALL (       1 calls)
     hinit0       :      0.54s CPU      0.55s WALL (       1 calls)

     Called by electrons:
     c_bands      :    176.90s CPU    180.02s WALL (      24 calls)
     sum_band     :     18.38s CPU     18.79s WALL (      24 calls)
     v_of_rho     :      0.49s CPU      0.52s WALL (      25 calls)
     newd         :      1.51s CPU      1.54s WALL (      25 calls)
     mix_rho      :      0.06s CPU      0.08s WALL (      24 calls)

     Called by c_bands:
     init_us_2    :      1.33s CPU      1.35s WALL (    5600 calls)
     init_us_2:cp :      1.31s CPU      1.34s WALL (    5600 calls)
     cegterg      :    172.77s CPU    175.81s WALL (    2688 calls)

     Called by *egterg:
     cdiaghg      :     17.30s CPU     17.41s WALL (   15099 calls)
     h_psi        :    103.45s CPU    105.81s WALL (   15211 calls)
     s_psi        :     12.70s CPU     12.78s WALL (   15211 calls)
     g_psi        :      0.35s CPU      0.36s WALL (   12411 calls)

     Called by h_psi:
     h_psi:calbec :     13.58s CPU     14.07s WALL (   15211 calls)
     vloc_psi     :     76.84s CPU     78.61s WALL (   15211 calls)
     add_vuspsi   :     12.70s CPU     12.82s WALL (   15211 calls)

     General routines
     calbec       :     18.07s CPU     18.67s WALL (   18347 calls)
     fft          :      0.57s CPU      0.63s WALL (     334 calls)
     ffts         :      0.12s CPU      0.12s WALL (      49 calls)
     fftw         :     76.88s CPU     78.63s WALL (  378732 calls)
     interpolate  :      0.13s CPU      0.14s WALL (      25 calls)

     Parallel routines

     PWSCF        :   3m22.87s CPU   3m26.81s WALL


   This run was terminated on:  17:58:42  24Jun2025            

=------------------------------------------------------------------------------=
   JOB DONE.
=------------------------------------------------------------------------------=
Note: The following floating-point exceptions are signalling: IEEE_INVALID_FLAG
