
     Program PWSCF v.7.2 starts on 24Jun2025 at 20:12: 0 

     This program is part of the open-source Quantum ESPRESSO suite
     for quantum simulation of materials; please cite
         "P. Giannozzi et al., J. Phys.:Condens. Matter 21 395502 (2009);
         "P. Giannozzi et al., J. Phys.:Condens. Matter 29 465901 (2017);
         "P. Giannozzi et al., J. Chem. Phys. 152 154105 (2020);
          URL http://www.quantum-espresso.org", 
     in publications or presentations arising from this work. More details at
     http://www.quantum-espresso.org/quote

     Parallel version (MPI), running on     8 processors

     MPI processes distributed on     1 nodes
     90657 MiB available memory on the printing compute node when the environment starts

     Reading input from /home/jvc/QEspresso7.2/ZnO_DataBase/scf_025_NOSYM.in/scf-6.67-1.68-0.25-1.in

     Current dimensions of program PWSCF are:
     Max number of different atomic species (ntypx) = 10
     Max number of k-points (npk) =  40000
     Max angular momentum in pseudopotentials (lmaxx) =  4
     file Zn.upf: wavefunction(s)  3D renormalized

     R & G space division:  proc/nbgrp/npool/nimage =       8
     Subspace diagonalization in iterative solution of the eigenvalue problem:
     a serial algorithm will be used


     Parallelization info
     --------------------
     sticks:   dense  smooth     PW     G-vecs:    dense   smooth      PW
     Min         154      75     23                 6952     2457     407
     Max         155      78     24                 6957     2461     412
     Sum        1237     613    187                55639    19669    3273

     Using Slab Decomposition



     bravais-lattice index     =            0
     lattice parameter (alat)  =       6.6731  a.u.
     unit-cell volume          =     411.7549 (a.u.)^3
     number of atoms/cell      =            4
     number of atomic types    =            2
     number of electrons       =        36.00
     number of Kohn-Sham states=           18
     kinetic-energy cutoff     =      50.0000  Ry
     charge density cutoff     =     400.0000  Ry
     scf convergence threshold =      1.0E-08
     mixing beta               =       0.3000
     number of iterations used =            8  plain     mixing
     Exchange-correlation= PBE
                           (   1   4   3   4   0   0   0)

     celldm(1)=   6.673127  celldm(2)=   0.000000  celldm(3)=   0.000000
     celldm(4)=   0.000000  celldm(5)=   0.000000  celldm(6)=   0.000000

     crystal axes: (cart. coord. in units of alat)
               a(1) = (   1.000000   0.000000   0.000000 )  
               a(2) = (  -0.500000   0.866025   0.000000 )  
               a(3) = (   0.000000   0.000000   1.600000 )  

     reciprocal axes: (cart. coord. in units 2 pi/alat)
               b(1) = (  1.000000  0.577350 -0.000000 )  
               b(2) = (  0.000000  1.154701  0.000000 )  
               b(3) = (  0.000000 -0.000000  0.625000 )  


     PseudoPot. # 1 for Zn read from file:
     ./pseudos/Zn.upf
     MD5 check sum: 7f56cabf9682ed8c977c2f7d0c5985c5
     Pseudo is Ultrasoft + core correction, Zval = 12.0
     Generated using &quot;atomic&quot; code by A. Dal Corso  v.6.2.2
     Using radial grid of 1201 points,  6 beta functions with: 
                l(1) =   0
                l(2) =   0
                l(3) =   1
                l(4) =   1
                l(5) =   2
                l(6) =   2
     Q(r) pseudized with 0 coefficients 


     PseudoPot. # 2 for O  read from file:
     ./pseudos/O.upf
     MD5 check sum: 91400c9766925bcf19f520983a725ff0
     Pseudo is Ultrasoft + core correction, Zval =  6.0
     Generated using &quot;atomic&quot; code by A. Dal Corso  v.6.3MaX
     Using radial grid of 1095 points,  4 beta functions with: 
                l(1) =   0
                l(2) =   0
                l(3) =   1
                l(4) =   1
     Q(r) pseudized with 0 coefficients 


     atomic species   valence    mass     pseudopotential
        Zn            12.00    63.38000     Zn( 1.00)
        O              6.00    15.99900     O ( 1.00)

     No symmetry found



   Cartesian axes

     site n.     atom                  positions (alat units)
         1           Zn  tau(   1) = (   0.6275596   0.1789124   0.7473048  )
         2           Zn  tau(   2) = (  -0.0044750   0.6078498   0.0558956  )
         3           O   tau(   3) = (   0.7369870   0.1007357   1.5930417  )
         4           O   tau(   4) = (  -0.3162982   0.7652302   0.8777486  )

     number of k points=   112

     Number of k-points >= 100: set verbosity='high' to print them.

     Dense  grid:    55639 G-vectors     FFT dimensions: (  45,  45,  72)

     Smooth grid:    19669 G-vectors     FFT dimensions: (  32,  32,  50)

     Estimated max dynamical RAM per process >      37.53 MB

     Estimated total dynamical RAM >     300.20 MB

     Check: negative core charge=   -0.000002

     Initial potential from superposition of free atoms

     starting charge      35.9925, renormalised to      36.0000
     Starting wfcs are   26 randomized atomic wfcs

     total cpu time spent up to now is        4.5 secs

     Self-consistent Calculation

     iteration #  1     ecut=    50.00 Ry     beta= 0.30
     Davidson diagonalization with overlap
     ethr =  1.00E-02,  avg # of iterations =  2.0

     total cpu time spent up to now is       10.3 secs

     total energy              =    -361.15280239 Ry
     estimated scf accuracy    <       1.01252035 Ry

     iteration #  2     ecut=    50.00 Ry     beta= 0.30
     Davidson diagonalization with overlap
     ethr =  2.81E-03,  avg # of iterations =  2.1

     total cpu time spent up to now is       16.8 secs

     total energy              =    -361.30509822 Ry
     estimated scf accuracy    <       0.10560531 Ry

     iteration #  3     ecut=    50.00 Ry     beta= 0.30
     Davidson diagonalization with overlap
     ethr =  2.93E-04,  avg # of iterations =  6.0

     total cpu time spent up to now is       27.9 secs

     total energy              =    -361.33672271 Ry
     estimated scf accuracy    <       0.17800149 Ry

     iteration #  4     ecut=    50.00 Ry     beta= 0.30
     Davidson diagonalization with overlap
     ethr =  2.93E-04,  avg # of iterations =  5.6

     total cpu time spent up to now is       38.7 secs

     total energy              =    -361.41344704 Ry
     estimated scf accuracy    <       0.07635798 Ry

     iteration #  5     ecut=    50.00 Ry     beta= 0.30
     Davidson diagonalization with overlap
     ethr =  2.12E-04,  avg # of iterations =  1.0

     total cpu time spent up to now is       43.8 secs

     total energy              =    -361.38001698 Ry
     estimated scf accuracy    <       0.06397387 Ry

     iteration #  6     ecut=    50.00 Ry     beta= 0.30
     Davidson diagonalization with overlap
     ethr =  1.78E-04,  avg # of iterations =  4.6

     total cpu time spent up to now is       51.5 secs

     total energy              =    -361.39452130 Ry
     estimated scf accuracy    <       0.00036124 Ry

     iteration #  7     ecut=    50.00 Ry     beta= 0.30
     Davidson diagonalization with overlap
     ethr =  1.00E-06,  avg # of iterations = 12.1

     total cpu time spent up to now is       71.9 secs

     total energy              =    -361.39677051 Ry
     estimated scf accuracy    <       0.00983370 Ry

     iteration #  8     ecut=    50.00 Ry     beta= 0.30
     Davidson diagonalization with overlap
     ethr =  1.00E-06,  avg # of iterations =  9.9

     total cpu time spent up to now is       89.1 secs

     total energy              =    -361.39798057 Ry
     estimated scf accuracy    <       0.00024783 Ry

     iteration #  9     ecut=    50.00 Ry     beta= 0.30
     Davidson diagonalization with overlap
     c_bands:  1 eigenvalues not converged
     ethr =  6.88E-07,  avg # of iterations =  9.4

     total cpu time spent up to now is      105.9 secs

     total energy              =    -361.39851807 Ry
     estimated scf accuracy    <       0.00347375 Ry

     iteration # 10     ecut=    50.00 Ry     beta= 0.30
     Davidson diagonalization with overlap
     ethr =  6.88E-07,  avg # of iterations =  1.6

     total cpu time spent up to now is      111.5 secs

     total energy              =    -361.39749356 Ry
     estimated scf accuracy    <       0.00272034 Ry

     iteration # 11     ecut=    50.00 Ry     beta= 0.30
     Davidson diagonalization with overlap
     ethr =  6.88E-07,  avg # of iterations =  7.9

     total cpu time spent up to now is      125.4 secs

     total energy              =    -361.39807568 Ry
     estimated scf accuracy    <       0.00001140 Ry

     iteration # 12     ecut=    50.00 Ry     beta= 0.30
     Davidson diagonalization with overlap
     ethr =  3.17E-08,  avg # of iterations =  5.6

     total cpu time spent up to now is      134.0 secs

     total energy              =    -361.39808238 Ry
     estimated scf accuracy    <       0.00000679 Ry

     iteration # 13     ecut=    50.00 Ry     beta= 0.30
     Davidson diagonalization with overlap
     c_bands:  1 eigenvalues not converged
     ethr =  1.89E-08,  avg # of iterations = 10.8

     total cpu time spent up to now is      154.0 secs

     total energy              =    -361.39806869 Ry
     estimated scf accuracy    <       0.00026083 Ry

     iteration # 14     ecut=    50.00 Ry     beta= 0.30
     Davidson diagonalization with overlap
     ethr =  1.89E-08,  avg # of iterations =  8.5

     total cpu time spent up to now is      169.2 secs

     total energy              =    -361.39808133 Ry
     estimated scf accuracy    <       0.00003768 Ry

     iteration # 15     ecut=    50.00 Ry     beta= 0.30
     Davidson diagonalization with overlap
     ethr =  1.89E-08,  avg # of iterations =  2.4

     total cpu time spent up to now is      175.1 secs

     total energy              =    -361.39807237 Ry
     estimated scf accuracy    <       0.00002465 Ry

     iteration # 16     ecut=    50.00 Ry     beta= 0.30
     Davidson diagonalization with overlap
     ethr =  1.89E-08,  avg # of iterations =  6.1

     total cpu time spent up to now is      185.9 secs

     total energy              =    -361.39808011 Ry
     estimated scf accuracy    <       0.00000106 Ry

     iteration # 17     ecut=    50.00 Ry     beta= 0.30
     Davidson diagonalization with overlap
     ethr =  2.93E-09,  avg # of iterations =  4.9

     total cpu time spent up to now is      193.3 secs

     total energy              =    -361.39808015 Ry
     estimated scf accuracy    <       0.00000232 Ry

     iteration # 18     ecut=    50.00 Ry     beta= 0.30
     Davidson diagonalization with overlap
     ethr =  2.93E-09,  avg # of iterations =  1.1

     total cpu time spent up to now is      198.5 secs

     total energy              =    -361.39807955 Ry
     estimated scf accuracy    <       0.00000202 Ry

     iteration # 19     ecut=    50.00 Ry     beta= 0.30
     Davidson diagonalization with overlap
     ethr =  2.93E-09,  avg # of iterations =  3.8

     total cpu time spent up to now is      205.1 secs

     total energy              =    -361.39807947 Ry
     estimated scf accuracy    <       0.00000049 Ry

     iteration # 20     ecut=    50.00 Ry     beta= 0.30
     Davidson diagonalization with overlap
     ethr =  1.35E-09,  avg # of iterations =  5.5

     total cpu time spent up to now is      214.7 secs

     total energy              =    -361.39807979 Ry
     estimated scf accuracy    <       0.00000022 Ry

     iteration # 21     ecut=    50.00 Ry     beta= 0.30
     Davidson diagonalization with overlap
     ethr =  6.04E-10,  avg # of iterations =  1.3

     total cpu time spent up to now is      219.9 secs

     total energy              =    -361.39807970 Ry
     estimated scf accuracy    <       0.00000018 Ry

     iteration # 22     ecut=    50.00 Ry     beta= 0.30
     Davidson diagonalization with overlap
     ethr =  4.92E-10,  avg # of iterations =  5.1

     total cpu time spent up to now is      228.4 secs

     total energy              =    -361.39807975 Ry
     estimated scf accuracy    <       0.00000003 Ry

     iteration # 23     ecut=    50.00 Ry     beta= 0.30
     Davidson diagonalization with overlap
     ethr =  8.40E-11,  avg # of iterations =  4.5

     total cpu time spent up to now is      235.8 secs

     End of self-consistent calculation

     Number of k-points >= 100: set verbosity='high' to print the bands.

     highest occupied level (ev):     4.2606

!    total energy              =    -361.39807975 Ry
     estimated scf accuracy    <          1.4E-09 Ry

     The total energy is the sum of the following terms:
     one-electron contribution =    -187.21192417 Ry
     hartree contribution      =     130.66069641 Ry
     xc contribution           =    -109.21544245 Ry
     ewald contribution        =    -195.63140954 Ry

     convergence has been achieved in  23 iterations

     Forces acting on atoms (cartesian axes, Ry/au):

     atom    1 type  1   force =     0.03525019    0.01960255    0.04055522
     atom    2 type  1   force =    -0.24339996   -0.35879619    0.01904669
     atom    3 type  2   force =     0.23084290    0.36583837   -0.01119293
     atom    4 type  2   force =    -0.02269313   -0.02664473   -0.04840898
     The non-local contrib.  to forces
     atom    1 type  1   force =     0.27055585    0.11107935   -0.27217943
     atom    2 type  1   force =    -0.44443290   -0.67009817    0.17736440
     atom    3 type  2   force =    -0.32744947   -0.19599707    0.61302079
     atom    4 type  2   force =     0.29698198    0.00921641   -0.69555473
     The ionic contribution  to forces
     atom    1 type  1   force =     1.60368210    1.38617275    1.86131925
     atom    2 type  1   force =    -3.89916050   -6.42545448   -1.58992134
     atom    3 type  2   force =     4.54017355    5.58775851   -4.09144440
     atom    4 type  2   force =    -2.24469514   -0.54847679    3.82004649
     The local contribution  to forces
     atom    1 type  1   force =    -1.82010565   -1.47012991   -1.56322313
     atom    2 type  1   force =     4.05346078    6.67027461    1.44783667
     atom    3 type  2   force =    -3.98329006   -5.02520094    3.47281171
     atom    4 type  2   force =     1.92752991    0.51246147   -3.17971663
     The core correction contribution to forces
     atom    1 type  1   force =    -0.01886793   -0.00751539    0.01457174
     atom    2 type  1   force =     0.04673647    0.06649108   -0.01619788
     atom    3 type  2   force =     0.00140430   -0.00072448   -0.00555783
     atom    4 type  2   force =    -0.00251463    0.00015047    0.00681030
     The Hubbard contrib.    to forces
     atom    1 type  1   force =     0.00000000    0.00000000    0.00000000
     atom    2 type  1   force =     0.00000000    0.00000000    0.00000000
     atom    3 type  2   force =     0.00000000    0.00000000    0.00000000
     atom    4 type  2   force =     0.00000000    0.00000000    0.00000000
     The SCF correction term to forces
     atom    1 type  1   force =    -0.00001612   -0.00000775    0.00006821
     atom    2 type  1   force =    -0.00000575   -0.00001271   -0.00003373
     atom    3 type  2   force =     0.00000264   -0.00000114   -0.00002177
     atom    4 type  2   force =     0.00000282    0.00000021    0.00000702

     Total force =     0.618411     Total SCF correction =     0.000083

     Writing all to output data dir ./ZnO_ANN.save/

     init_run     :      3.93s CPU      4.04s WALL (       1 calls)
     electrons    :    227.45s CPU    231.34s WALL (       1 calls)
     forces       :      1.41s CPU      1.43s WALL (       1 calls)

     Called by init_run:
     wfcinit      :      2.80s CPU      2.87s WALL (       1 calls)
     potinit      :      0.37s CPU      0.38s WALL (       1 calls)
     hinit0       :      0.65s CPU      0.66s WALL (       1 calls)

     Called by electrons:
     c_bands      :    206.50s CPU    209.90s WALL (      23 calls)
     sum_band     :     18.71s CPU     19.14s WALL (      23 calls)
     v_of_rho     :      0.48s CPU      0.51s WALL (      24 calls)
     newd         :      1.74s CPU      1.76s WALL (      24 calls)
     mix_rho      :      0.07s CPU      0.08s WALL (      23 calls)

     Called by c_bands:
     init_us_2    :      1.58s CPU      1.60s WALL (    5376 calls)
     init_us_2:cp :      1.56s CPU      1.59s WALL (    5376 calls)
     cegterg      :    201.69s CPU    205.03s WALL (    2576 calls)

     Called by *egterg:
     cdiaghg      :     19.32s CPU     19.42s WALL (   16256 calls)
     h_psi        :    114.09s CPU    116.65s WALL (   16368 calls)
     s_psi        :     16.44s CPU     16.54s WALL (   16368 calls)
     g_psi        :      0.46s CPU      0.47s WALL (   13680 calls)

     Called by h_psi:
     h_psi:calbec :     17.19s CPU     17.74s WALL (   16368 calls)
     vloc_psi     :     80.00s CPU     81.88s WALL (   16368 calls)
     add_vuspsi   :     16.51s CPU     16.63s WALL (   16368 calls)

     General routines
     calbec       :     22.28s CPU     22.96s WALL (   19392 calls)
     fft          :      0.60s CPU      0.64s WALL (     321 calls)
     ffts         :      0.12s CPU      0.13s WALL (      47 calls)
     fftw         :     76.83s CPU     78.66s WALL (  399666 calls)
     interpolate  :      0.14s CPU      0.14s WALL (      24 calls)

     Parallel routines

     PWSCF        :   3m53.55s CPU   3m57.89s WALL


   This run was terminated on:  20:15:58  24Jun2025            

=------------------------------------------------------------------------------=
   JOB DONE.
=------------------------------------------------------------------------------=
Note: The following floating-point exceptions are signalling: IEEE_INVALID_FLAG
