
     Program PWSCF v.7.2 starts on 24Jun2025 at 14:46:27 

     This program is part of the open-source Quantum ESPRESSO suite
     for quantum simulation of materials; please cite
         "P. Giannozzi et al., J. Phys.:Condens. Matter 21 395502 (2009);
         "P. Giannozzi et al., J. Phys.:Condens. Matter 29 465901 (2017);
         "P. Giannozzi et al., J. Chem. Phys. 152 154105 (2020);
          URL http://www.quantum-espresso.org", 
     in publications or presentations arising from this work. More details at
     http://www.quantum-espresso.org/quote

     Parallel version (MPI), running on     8 processors

     MPI processes distributed on     1 nodes
     91294 MiB available memory on the printing compute node when the environment starts

     Reading input from /home/jvc/QEspresso7.2/ZnO_DataBase/scf_025_NOSYM.in/scf-5.56-1.78-0.25-5.in

     Current dimensions of program PWSCF are:
     Max number of different atomic species (ntypx) = 10
     Max number of k-points (npk) =  40000
     Max angular momentum in pseudopotentials (lmaxx) =  4
     file Zn.upf: wavefunction(s)  3D renormalized

     R & G space division:  proc/nbgrp/npool/nimage =       8
     Subspace diagonalization in iterative solution of the eigenvalue problem:
     a serial algorithm will be used


     Parallelization info
     --------------------
     sticks:   dense  smooth     PW     G-vecs:    dense   smooth      PW
     Min         105      53     15                 4025     1425     243
     Max         106      55     16                 4034     1428     250
     Sum         847     433    127                32259    11417    1961

     Using Slab Decomposition



     bravais-lattice index     =            0
     lattice parameter (alat)  =       5.5609  a.u.
     unit-cell volume          =     238.2841 (a.u.)^3
     number of atoms/cell      =            4
     number of atomic types    =            2
     number of electrons       =        36.00
     number of Kohn-Sham states=           18
     kinetic-energy cutoff     =      50.0000  Ry
     charge density cutoff     =     400.0000  Ry
     scf convergence threshold =      1.0E-08
     mixing beta               =       0.3000
     number of iterations used =            8  plain     mixing
     Exchange-correlation= PBE
                           (   1   4   3   4   0   0   0)

     celldm(1)=   5.560939  celldm(2)=   0.000000  celldm(3)=   0.000000
     celldm(4)=   0.000000  celldm(5)=   0.000000  celldm(6)=   0.000000

     crystal axes: (cart. coord. in units of alat)
               a(1) = (   1.000000   0.000000   0.000000 )  
               a(2) = (  -0.500000   0.866025   0.000000 )  
               a(3) = (   0.000000   0.000000   1.600000 )  

     reciprocal axes: (cart. coord. in units 2 pi/alat)
               b(1) = (  1.000000  0.577350 -0.000000 )  
               b(2) = (  0.000000  1.154701  0.000000 )  
               b(3) = (  0.000000 -0.000000  0.625000 )  


     PseudoPot. # 1 for Zn read from file:
     ./pseudos/Zn.upf
     MD5 check sum: 7f56cabf9682ed8c977c2f7d0c5985c5
     Pseudo is Ultrasoft + core correction, Zval = 12.0
     Generated using &quot;atomic&quot; code by A. Dal Corso  v.6.2.2
     Using radial grid of 1201 points,  6 beta functions with: 
                l(1) =   0
                l(2) =   0
                l(3) =   1
                l(4) =   1
                l(5) =   2
                l(6) =   2
     Q(r) pseudized with 0 coefficients 


     PseudoPot. # 2 for O  read from file:
     ./pseudos/O.upf
     MD5 check sum: 91400c9766925bcf19f520983a725ff0
     Pseudo is Ultrasoft + core correction, Zval =  6.0
     Generated using &quot;atomic&quot; code by A. Dal Corso  v.6.3MaX
     Using radial grid of 1095 points,  4 beta functions with: 
                l(1) =   0
                l(2) =   0
                l(3) =   1
                l(4) =   1
     Q(r) pseudized with 0 coefficients 


     atomic species   valence    mass     pseudopotential
        Zn            12.00    63.38000     Zn( 1.00)
        O              6.00    15.99900     O ( 1.00)

     No symmetry found



   Cartesian axes

     site n.     atom                  positions (alat units)
         1           Zn  tau(   1) = (   0.2758523   0.2524754   1.0451772  )
         2           Zn  tau(   2) = (  -0.2315996   0.5616368   0.0644823  )
         3           O   tau(   3) = (   0.8569009   0.0760201   1.0395482  )
         4           O   tau(   4) = (   0.0143117   0.3952695   0.3593935  )

     number of k points=   112

     Number of k-points >= 100: set verbosity='high' to print them.

     Dense  grid:    32259 G-vectors     FFT dimensions: (  36,  36,  60)

     Smooth grid:    11417 G-vectors     FFT dimensions: (  25,  25,  45)

     Estimated max dynamical RAM per process >      23.07 MB

     Estimated total dynamical RAM >     184.57 MB

     Check: negative core charge=   -0.000001

     Initial potential from superposition of free atoms

     starting charge      35.9925, renormalised to      36.0000
     Starting wfcs are   26 randomized atomic wfcs

     total cpu time spent up to now is        3.2 secs

     Self-consistent Calculation

     iteration #  1     ecut=    50.00 Ry     beta= 0.30
     Davidson diagonalization with overlap
     ethr =  1.00E-02,  avg # of iterations =  2.5

     total cpu time spent up to now is        7.3 secs

     total energy              =    -359.86426506 Ry
     estimated scf accuracy    <       1.29419380 Ry

     iteration #  2     ecut=    50.00 Ry     beta= 0.30
     Davidson diagonalization with overlap
     ethr =  3.59E-03,  avg # of iterations =  2.0

     total cpu time spent up to now is       11.3 secs

     total energy              =    -359.85249816 Ry
     estimated scf accuracy    <       0.27948815 Ry

     iteration #  3     ecut=    50.00 Ry     beta= 0.30
     Davidson diagonalization with overlap
     ethr =  7.76E-04,  avg # of iterations =  7.1

     total cpu time spent up to now is       19.7 secs

     total energy              =    -360.04090886 Ry
     estimated scf accuracy    <       0.52077455 Ry

     iteration #  4     ecut=    50.00 Ry     beta= 0.30
     Davidson diagonalization with overlap
     ethr =  7.76E-04,  avg # of iterations =  4.0

     total cpu time spent up to now is       24.3 secs

     total energy              =    -360.06632028 Ry
     estimated scf accuracy    <       0.05576062 Ry

     iteration #  5     ecut=    50.00 Ry     beta= 0.30
     Davidson diagonalization with overlap
     ethr =  1.55E-04,  avg # of iterations =  7.5

     total cpu time spent up to now is       33.5 secs

     total energy              =    -360.11003081 Ry
     estimated scf accuracy    <       0.11814002 Ry

     iteration #  6     ecut=    50.00 Ry     beta= 0.30
     Davidson diagonalization with overlap
     ethr =  1.55E-04,  avg # of iterations =  2.8

     total cpu time spent up to now is       37.8 secs

     total energy              =    -360.10197820 Ry
     estimated scf accuracy    <       0.02493297 Ry

     iteration #  7     ecut=    50.00 Ry     beta= 0.30
     Davidson diagonalization with overlap
     ethr =  6.93E-05,  avg # of iterations =  7.3

     total cpu time spent up to now is       46.5 secs

     total energy              =    -360.12309887 Ry
     estimated scf accuracy    <       0.05174165 Ry

     iteration #  8     ecut=    50.00 Ry     beta= 0.30
     Davidson diagonalization with overlap
     ethr =  6.93E-05,  avg # of iterations =  1.8

     total cpu time spent up to now is       50.1 secs

     total energy              =    -360.11618001 Ry
     estimated scf accuracy    <       0.02248485 Ry

     iteration #  9     ecut=    50.00 Ry     beta= 0.30
     Davidson diagonalization with overlap
     ethr =  6.25E-05,  avg # of iterations =  3.8

     total cpu time spent up to now is       55.6 secs

     total energy              =    -360.12384389 Ry
     estimated scf accuracy    <       0.00003160 Ry

     iteration # 10     ecut=    50.00 Ry     beta= 0.30
     Davidson diagonalization with overlap
     c_bands:  4 eigenvalues not converged
     c_bands:  1 eigenvalues not converged
     c_bands:  2 eigenvalues not converged
     c_bands:  1 eigenvalues not converged
     ethr =  8.78E-08,  avg # of iterations = 14.3

     total cpu time spent up to now is       73.0 secs

     total energy              =    -360.12480971 Ry
     estimated scf accuracy    <       0.00176005 Ry

     iteration # 11     ecut=    50.00 Ry     beta= 0.30
     Davidson diagonalization with overlap
     ethr =  8.78E-08,  avg # of iterations =  7.4

     total cpu time spent up to now is       82.3 secs

     total energy              =    -360.12451291 Ry
     estimated scf accuracy    <       0.00078765 Ry

     iteration # 12     ecut=    50.00 Ry     beta= 0.30
     Davidson diagonalization with overlap
     ethr =  8.78E-08,  avg # of iterations =  9.6

     total cpu time spent up to now is       94.5 secs

     total energy              =    -360.12465836 Ry
     estimated scf accuracy    <       0.00000216 Ry

     iteration # 13     ecut=    50.00 Ry     beta= 0.30
     Davidson diagonalization with overlap
     ethr =  5.99E-09,  avg # of iterations = 12.0

     total cpu time spent up to now is      109.1 secs

     total energy              =    -360.12465401 Ry
     estimated scf accuracy    <       0.00009198 Ry

     iteration # 14     ecut=    50.00 Ry     beta= 0.30
     Davidson diagonalization with overlap
     ethr =  5.99E-09,  avg # of iterations =  8.2

     total cpu time spent up to now is      120.0 secs

     total energy              =    -360.12465569 Ry
     estimated scf accuracy    <       0.00001841 Ry

     iteration # 15     ecut=    50.00 Ry     beta= 0.30
     Davidson diagonalization with overlap
     ethr =  5.99E-09,  avg # of iterations =  5.0

     total cpu time spent up to now is      125.4 secs

     total energy              =    -360.12465477 Ry
     estimated scf accuracy    <       0.00000746 Ry

     iteration # 16     ecut=    50.00 Ry     beta= 0.30
     Davidson diagonalization with overlap
     ethr =  5.99E-09,  avg # of iterations =  3.2

     total cpu time spent up to now is      130.0 secs

     total energy              =    -360.12465432 Ry
     estimated scf accuracy    <       0.00000267 Ry

     iteration # 17     ecut=    50.00 Ry     beta= 0.30
     Davidson diagonalization with overlap
     ethr =  5.99E-09,  avg # of iterations =  4.0

     total cpu time spent up to now is      135.1 secs

     total energy              =    -360.12465493 Ry
     estimated scf accuracy    <       0.00000007 Ry

     iteration # 18     ecut=    50.00 Ry     beta= 0.30
     Davidson diagonalization with overlap
     ethr =  2.00E-10,  avg # of iterations =  9.3

     total cpu time spent up to now is      145.5 secs

     total energy              =    -360.12465507 Ry
     estimated scf accuracy    <       0.00000020 Ry

     iteration # 19     ecut=    50.00 Ry     beta= 0.30
     Davidson diagonalization with overlap
     ethr =  2.00E-10,  avg # of iterations =  4.2

     total cpu time spent up to now is      150.6 secs

     total energy              =    -360.12465507 Ry
     estimated scf accuracy    <       0.00000003 Ry

     iteration # 20     ecut=    50.00 Ry     beta= 0.30
     Davidson diagonalization with overlap
     ethr =  8.23E-11,  avg # of iterations =  7.1

     total cpu time spent up to now is      159.0 secs

     total energy              =    -360.12465509 Ry
     estimated scf accuracy    <       0.00000003 Ry

     iteration # 21     ecut=    50.00 Ry     beta= 0.30
     Davidson diagonalization with overlap
     ethr =  8.23E-11,  avg # of iterations =  1.1

     total cpu time spent up to now is      162.3 secs

     total energy              =    -360.12465509 Ry
     estimated scf accuracy    <       0.00000001 Ry

     iteration # 22     ecut=    50.00 Ry     beta= 0.30
     Davidson diagonalization with overlap
     ethr =  3.18E-11,  avg # of iterations =  5.1

     total cpu time spent up to now is      168.6 secs

     End of self-consistent calculation

     Number of k-points >= 100: set verbosity='high' to print the bands.

     highest occupied level (ev):    12.8461

!    total energy              =    -360.12465509 Ry
     estimated scf accuracy    <          3.6E-09 Ry

     The total energy is the sum of the following terms:
     one-electron contribution =    -131.65225285 Ry
     hartree contribution      =     111.50576150 Ry
     xc contribution           =    -110.55172841 Ry
     ewald contribution        =    -229.42643534 Ry

     convergence has been achieved in  22 iterations

     Forces acting on atoms (cartesian axes, Ry/au):

     atom    1 type  1   force =     1.21874586    0.52347529   -0.08717560
     atom    2 type  1   force =    -1.39995115    0.95947976   -1.52497009
     atom    3 type  2   force =    -1.21890266   -0.57566867    0.04003054
     atom    4 type  2   force =     1.40010795   -0.90728639    1.57211515
     The non-local contrib.  to forces
     atom    1 type  1   force =     0.72330804    0.37997031    0.19397503
     atom    2 type  1   force =    -0.79456757    0.49340278   -1.17930689
     atom    3 type  2   force =     0.16886401    0.19182577    0.53203450
     atom    4 type  2   force =    -0.34099579    0.37740099   -0.92276931
     The ionic contribution  to forces
     atom    1 type  1   force =     9.57733245    4.59083782   -7.91980852
     atom    2 type  1   force =   -10.44012364    7.28714926   -1.87781396
     atom    3 type  2   force =    -9.07715519   -5.55717450   -4.55461678
     atom    4 type  2   force =     9.93994638   -6.32081259   14.35223926
     The local contribution  to forces
     atom    1 type  1   force =    -8.94606166   -4.37236693    7.63670803
     atom    2 type  1   force =     9.68518060   -6.72088413    1.35411690
     atom    3 type  2   force =     7.68566422    4.78869649    4.06707257
     atom    4 type  2   force =    -8.19585968    5.03568712  -11.85857717
     The core correction contribution to forces
     atom    1 type  1   force =    -0.13589779   -0.07499224    0.00178732
     atom    2 type  1   force =     0.14961904   -0.10021321    0.17818392
     atom    3 type  2   force =     0.00372583    0.00100145   -0.00454300
     atom    4 type  2   force =    -0.00297248    0.00043997    0.00132055
     The Hubbard contrib.    to forces
     atom    1 type  1   force =     0.00000000    0.00000000    0.00000000
     atom    2 type  1   force =     0.00000000    0.00000000    0.00000000
     atom    3 type  2   force =     0.00000000    0.00000000    0.00000000
     atom    4 type  2   force =     0.00000000    0.00000000    0.00000000
     The SCF correction term to forces
     atom    1 type  1   force =     0.00006935    0.00003895    0.00016296
     atom    2 type  1   force =    -0.00005505    0.00003768   -0.00014963
     atom    3 type  2   force =     0.00000299   -0.00000527    0.00008368
     atom    4 type  2   force =    -0.00000595    0.00001073   -0.00009775

     Total force =     3.747893     Total SCF correction =     0.000277

     Writing all to output data dir ./ZnO_ANN.save/

     init_run     :      2.65s CPU      2.72s WALL (       1 calls)
     electrons    :    161.73s CPU    165.46s WALL (       1 calls)
     forces       :      0.84s CPU      0.85s WALL (       1 calls)

     Called by init_run:
     wfcinit      :      1.85s CPU      1.90s WALL (       1 calls)
     potinit      :      0.19s CPU      0.20s WALL (       1 calls)
     hinit0       :      0.55s CPU      0.56s WALL (       1 calls)

     Called by electrons:
     c_bands      :    149.48s CPU    152.88s WALL (      22 calls)
     sum_band     :     11.05s CPU     11.34s WALL (      22 calls)
     v_of_rho     :      0.25s CPU      0.27s WALL (      23 calls)
     newd         :      0.93s CPU      0.95s WALL (      23 calls)
     mix_rho      :      0.04s CPU      0.04s WALL (      22 calls)

     Called by c_bands:
     init_us_2    :      0.79s CPU      0.80s WALL (    5152 calls)
     init_us_2:cp :      0.78s CPU      0.79s WALL (    5152 calls)
     cegterg      :    146.85s CPU    150.20s WALL (    2464 calls)

     Called by *egterg:
     cdiaghg      :     19.07s CPU     19.21s WALL (   16963 calls)
     h_psi        :     78.59s CPU     81.05s WALL (   17075 calls)
     s_psi        :      9.29s CPU      9.39s WALL (   17075 calls)
     g_psi        :      0.33s CPU      0.33s WALL (   14499 calls)

     Called by h_psi:
     h_psi:calbec :     11.52s CPU     12.02s WALL (   17075 calls)
     vloc_psi     :     57.48s CPU     59.32s WALL (   17075 calls)
     add_vuspsi   :      9.32s CPU      9.45s WALL (   17075 calls)

     General routines
     calbec       :     14.49s CPU     15.08s WALL (   19987 calls)
     fft          :      0.49s CPU      0.52s WALL (     308 calls)
     ffts         :      0.05s CPU      0.06s WALL (      45 calls)
     fftw         :     56.80s CPU     58.59s WALL (  438670 calls)
     interpolate  :      0.06s CPU      0.06s WALL (      23 calls)

     Parallel routines

     PWSCF        :   2m45.92s CPU   2m49.85s WALL


   This run was terminated on:  14:49:17  24Jun2025            

=------------------------------------------------------------------------------=
   JOB DONE.
=------------------------------------------------------------------------------=
Note: The following floating-point exceptions are signalling: IEEE_INVALID_FLAG
