
     Program PWSCF v.7.2 starts on 24Jun2025 at 14:27:39 

     This program is part of the open-source Quantum ESPRESSO suite
     for quantum simulation of materials; please cite
         "P. Giannozzi et al., J. Phys.:Condens. Matter 21 395502 (2009);
         "P. Giannozzi et al., J. Phys.:Condens. Matter 29 465901 (2017);
         "P. Giannozzi et al., J. Chem. Phys. 152 154105 (2020);
          URL http://www.quantum-espresso.org", 
     in publications or presentations arising from this work. More details at
     http://www.quantum-espresso.org/quote

     Parallel version (MPI), running on     8 processors

     MPI processes distributed on     1 nodes
     91310 MiB available memory on the printing compute node when the environment starts

     Reading input from /home/jvc/QEspresso7.2/ZnO_DataBase/scf_025_NOSYM.in/scf-5.56-1.52-0.25-3.in

     Current dimensions of program PWSCF are:
     Max number of different atomic species (ntypx) = 10
     Max number of k-points (npk) =  40000
     Max angular momentum in pseudopotentials (lmaxx) =  4
     file Zn.upf: wavefunction(s)  3D renormalized

     R & G space division:  proc/nbgrp/npool/nimage =       8
     Subspace diagonalization in iterative solution of the eigenvalue problem:
     a serial algorithm will be used


     Parallelization info
     --------------------
     sticks:   dense  smooth     PW     G-vecs:    dense   smooth      PW
     Min         105      53     15                 4025     1425     243
     Max         106      55     16                 4034     1428     250
     Sum         847     433    127                32259    11417    1961

     Using Slab Decomposition



     bravais-lattice index     =            0
     lattice parameter (alat)  =       5.5609  a.u.
     unit-cell volume          =     238.2841 (a.u.)^3
     number of atoms/cell      =            4
     number of atomic types    =            2
     number of electrons       =        36.00
     number of Kohn-Sham states=           18
     kinetic-energy cutoff     =      50.0000  Ry
     charge density cutoff     =     400.0000  Ry
     scf convergence threshold =      1.0E-08
     mixing beta               =       0.3000
     number of iterations used =            8  plain     mixing
     Exchange-correlation= PBE
                           (   1   4   3   4   0   0   0)

     celldm(1)=   5.560939  celldm(2)=   0.000000  celldm(3)=   0.000000
     celldm(4)=   0.000000  celldm(5)=   0.000000  celldm(6)=   0.000000

     crystal axes: (cart. coord. in units of alat)
               a(1) = (   1.000000   0.000000   0.000000 )  
               a(2) = (  -0.500000   0.866025   0.000000 )  
               a(3) = (   0.000000   0.000000   1.600000 )  

     reciprocal axes: (cart. coord. in units 2 pi/alat)
               b(1) = (  1.000000  0.577350 -0.000000 )  
               b(2) = (  0.000000  1.154701  0.000000 )  
               b(3) = (  0.000000 -0.000000  0.625000 )  


     PseudoPot. # 1 for Zn read from file:
     ./pseudos/Zn.upf
     MD5 check sum: 7f56cabf9682ed8c977c2f7d0c5985c5
     Pseudo is Ultrasoft + core correction, Zval = 12.0
     Generated using &quot;atomic&quot; code by A. Dal Corso  v.6.2.2
     Using radial grid of 1201 points,  6 beta functions with: 
                l(1) =   0
                l(2) =   0
                l(3) =   1
                l(4) =   1
                l(5) =   2
                l(6) =   2
     Q(r) pseudized with 0 coefficients 


     PseudoPot. # 2 for O  read from file:
     ./pseudos/O.upf
     MD5 check sum: 91400c9766925bcf19f520983a725ff0
     Pseudo is Ultrasoft + core correction, Zval =  6.0
     Generated using &quot;atomic&quot; code by A. Dal Corso  v.6.3MaX
     Using radial grid of 1095 points,  4 beta functions with: 
                l(1) =   0
                l(2) =   0
                l(3) =   1
                l(4) =   1
     Q(r) pseudized with 0 coefficients 


     atomic species   valence    mass     pseudopotential
        Zn            12.00    63.38000     Zn( 1.00)
        O              6.00    15.99900     O ( 1.00)

     No symmetry found



   Cartesian axes

     site n.     atom                  positions (alat units)
         1           Zn  tau(   1) = (   0.4594062   0.4941341   0.4824714  )
         2           Zn  tau(   2) = (  -0.2586607   0.6692326   0.3937298  )
         3           O   tau(   3) = (   0.3475736   0.3154508   1.4308587  )
         4           O   tau(   4) = (  -0.1462199   0.5052745   0.3660168  )

     number of k points=   112

     Number of k-points >= 100: set verbosity='high' to print them.

     Dense  grid:    32259 G-vectors     FFT dimensions: (  36,  36,  60)

     Smooth grid:    11417 G-vectors     FFT dimensions: (  25,  25,  45)

     Estimated max dynamical RAM per process >      23.07 MB

     Estimated total dynamical RAM >     184.57 MB

     Check: negative core charge=   -0.000003

     Initial potential from superposition of free atoms

     starting charge      35.9925, renormalised to      36.0000
     Starting wfcs are   26 randomized atomic wfcs

     total cpu time spent up to now is        3.2 secs

     Self-consistent Calculation

     iteration #  1     ecut=    50.00 Ry     beta= 0.30
     Davidson diagonalization with overlap
     ethr =  1.00E-02,  avg # of iterations =  5.2

     total cpu time spent up to now is       10.7 secs

     total energy              =    -330.84699650 Ry
     estimated scf accuracy    <       2.76767511 Ry

     iteration #  2     ecut=    50.00 Ry     beta= 0.30
     Davidson diagonalization with overlap
     ethr =  7.69E-03,  avg # of iterations =  2.0

     total cpu time spent up to now is       14.7 secs

     total energy              =    -330.54401255 Ry
     estimated scf accuracy    <       0.74641870 Ry

     iteration #  3     ecut=    50.00 Ry     beta= 0.30
     Davidson diagonalization with overlap
     ethr =  2.07E-03,  avg # of iterations = 11.2

     total cpu time spent up to now is       23.2 secs

     total energy              =    -331.61387883 Ry
     estimated scf accuracy    <       4.96167859 Ry

     iteration #  4     ecut=    50.00 Ry     beta= 0.30
     Davidson diagonalization with overlap
     ethr =  2.07E-03,  avg # of iterations =  1.0

     total cpu time spent up to now is       26.6 secs

     total energy              =    -331.56295259 Ry
     estimated scf accuracy    <       5.05564744 Ry

     iteration #  5     ecut=    50.00 Ry     beta= 0.30
     Davidson diagonalization with overlap
     ethr =  2.07E-03,  avg # of iterations =  1.1

     total cpu time spent up to now is       30.1 secs

     total energy              =    -331.18141246 Ry
     estimated scf accuracy    <       5.03258514 Ry

     iteration #  6     ecut=    50.00 Ry     beta= 0.30
     Davidson diagonalization with overlap
     ethr =  2.07E-03,  avg # of iterations =  5.9

     total cpu time spent up to now is       35.2 secs

     total energy              =    -331.19779637 Ry
     estimated scf accuracy    <       3.54997626 Ry

     iteration #  7     ecut=    50.00 Ry     beta= 0.30
     Davidson diagonalization with overlap
     ethr =  2.07E-03,  avg # of iterations =  2.9

     total cpu time spent up to now is       39.2 secs

     total energy              =    -330.20267961 Ry
     estimated scf accuracy    <       2.80809253 Ry

     iteration #  8     ecut=    50.00 Ry     beta= 0.30
     Davidson diagonalization with overlap
     ethr =  2.07E-03,  avg # of iterations =  9.3

     total cpu time spent up to now is       46.5 secs

     total energy              =    -331.24532141 Ry
     estimated scf accuracy    <       1.06522355 Ry

     iteration #  9     ecut=    50.00 Ry     beta= 0.30
     Davidson diagonalization with overlap
     ethr =  2.07E-03,  avg # of iterations =  1.0

     total cpu time spent up to now is       49.8 secs

     total energy              =    -330.91463164 Ry
     estimated scf accuracy    <       1.16746790 Ry

     iteration # 10     ecut=    50.00 Ry     beta= 0.30
     Davidson diagonalization with overlap
     ethr =  2.07E-03,  avg # of iterations =  2.1

     total cpu time spent up to now is       53.7 secs

     total energy              =    -330.84839419 Ry
     estimated scf accuracy    <       0.50852810 Ry

     iteration # 11     ecut=    50.00 Ry     beta= 0.30
     Davidson diagonalization with overlap
     ethr =  1.41E-03,  avg # of iterations =  5.9

     total cpu time spent up to now is       58.8 secs

     total energy              =    -330.95776751 Ry
     estimated scf accuracy    <       0.06427748 Ry

     iteration # 12     ecut=    50.00 Ry     beta= 0.30
     Davidson diagonalization with overlap
     c_bands:  1 eigenvalues not converged
     c_bands:  1 eigenvalues not converged
     c_bands:  1 eigenvalues not converged
     c_bands:  1 eigenvalues not converged
     c_bands:  1 eigenvalues not converged
     c_bands:  1 eigenvalues not converged
     ethr =  1.79E-04,  avg # of iterations = 12.3

     total cpu time spent up to now is       67.2 secs

     total energy              =    -330.92378664 Ry
     estimated scf accuracy    <       0.92171181 Ry

     iteration # 13     ecut=    50.00 Ry     beta= 0.30
     Davidson diagonalization with overlap
     ethr =  1.79E-04,  avg # of iterations =  9.9

     total cpu time spent up to now is       74.7 secs

     total energy              =    -330.97900258 Ry
     estimated scf accuracy    <       0.15203796 Ry

     iteration # 14     ecut=    50.00 Ry     beta= 0.30
     Davidson diagonalization with overlap
     ethr =  1.79E-04,  avg # of iterations =  1.3

     total cpu time spent up to now is       78.2 secs

     total energy              =    -331.01099110 Ry
     estimated scf accuracy    <       0.13447538 Ry

     iteration # 15     ecut=    50.00 Ry     beta= 0.30
     Davidson diagonalization with overlap
     c_bands:  1 eigenvalues not converged
     c_bands:  1 eigenvalues not converged
     c_bands:  1 eigenvalues not converged
     c_bands:  1 eigenvalues not converged
     c_bands:  1 eigenvalues not converged
     c_bands:  1 eigenvalues not converged
     c_bands:  1 eigenvalues not converged
     c_bands:  1 eigenvalues not converged
     c_bands:  1 eigenvalues not converged
     c_bands:  1 eigenvalues not converged
     c_bands:  1 eigenvalues not converged
     ethr =  1.79E-04,  avg # of iterations = 13.3

     total cpu time spent up to now is       87.3 secs

     total energy              =    -331.14056709 Ry
     estimated scf accuracy    <       1.80168803 Ry

     iteration # 16     ecut=    50.00 Ry     beta= 0.30
     Davidson diagonalization with overlap
     ethr =  1.79E-04,  avg # of iterations =  2.2

     total cpu time spent up to now is       91.1 secs

     total energy              =    -330.79743971 Ry
     estimated scf accuracy    <       1.79717941 Ry

     iteration # 17     ecut=    50.00 Ry     beta= 0.30
     Davidson diagonalization with overlap
     c_bands:  1 eigenvalues not converged
     c_bands:  1 eigenvalues not converged
     c_bands:  1 eigenvalues not converged
     c_bands:  1 eigenvalues not converged
     c_bands:  1 eigenvalues not converged
     c_bands:  1 eigenvalues not converged
     c_bands:  1 eigenvalues not converged
     c_bands:  1 eigenvalues not converged
     c_bands:  1 eigenvalues not converged
     c_bands:  1 eigenvalues not converged
     ethr =  1.79E-04,  avg # of iterations = 13.1

     total cpu time spent up to now is       99.7 secs

     total energy              =    -330.95444032 Ry
     estimated scf accuracy    <       0.01990746 Ry

     iteration # 18     ecut=    50.00 Ry     beta= 0.30
     Davidson diagonalization with overlap
     ethr =  5.53E-05,  avg # of iterations =  2.9

     total cpu time spent up to now is      103.6 secs

     total energy              =    -330.95430351 Ry
     estimated scf accuracy    <       0.01575869 Ry

     iteration # 19     ecut=    50.00 Ry     beta= 0.30
     Davidson diagonalization with overlap
     ethr =  4.38E-05,  avg # of iterations =  1.9

     total cpu time spent up to now is      107.3 secs

     total energy              =    -330.95241994 Ry
     estimated scf accuracy    <       0.01228046 Ry

     iteration # 20     ecut=    50.00 Ry     beta= 0.30
     Davidson diagonalization with overlap
     ethr =  3.41E-05,  avg # of iterations =  2.2

     total cpu time spent up to now is      111.2 secs

     total energy              =    -330.95211469 Ry
     estimated scf accuracy    <       0.00594304 Ry

     iteration # 21     ecut=    50.00 Ry     beta= 0.30
     Davidson diagonalization with overlap
     ethr =  1.65E-05,  avg # of iterations =  5.9

     total cpu time spent up to now is      115.8 secs

     total energy              =    -330.95299342 Ry
     estimated scf accuracy    <       0.00088038 Ry

     iteration # 22     ecut=    50.00 Ry     beta= 0.30
     Davidson diagonalization with overlap
     ethr =  2.45E-06,  avg # of iterations =  6.6

     total cpu time spent up to now is      121.2 secs

     total energy              =    -330.95328853 Ry
     estimated scf accuracy    <       0.00023910 Ry

     iteration # 23     ecut=    50.00 Ry     beta= 0.30
     Davidson diagonalization with overlap
     ethr =  6.64E-07,  avg # of iterations =  4.5

     total cpu time spent up to now is      125.9 secs

     total energy              =    -330.95329906 Ry
     estimated scf accuracy    <       0.00007667 Ry

     iteration # 24     ecut=    50.00 Ry     beta= 0.30
     Davidson diagonalization with overlap
     ethr =  2.13E-07,  avg # of iterations =  7.2

     total cpu time spent up to now is      132.6 secs

     total energy              =    -330.95333234 Ry
     estimated scf accuracy    <       0.00006933 Ry

     iteration # 25     ecut=    50.00 Ry     beta= 0.30
     Davidson diagonalization with overlap
     ethr =  1.93E-07,  avg # of iterations =  1.3

     total cpu time spent up to now is      136.0 secs

     total energy              =    -330.95332309 Ry
     estimated scf accuracy    <       0.00002929 Ry

     iteration # 26     ecut=    50.00 Ry     beta= 0.30
     Davidson diagonalization with overlap
     ethr =  8.14E-08,  avg # of iterations =  6.2

     total cpu time spent up to now is      141.6 secs

     total energy              =    -330.95333227 Ry
     estimated scf accuracy    <       0.00000336 Ry

     iteration # 27     ecut=    50.00 Ry     beta= 0.30
     Davidson diagonalization with overlap
     ethr =  9.33E-09,  avg # of iterations =  4.6

     total cpu time spent up to now is      146.6 secs

     total energy              =    -330.95333239 Ry
     estimated scf accuracy    <       0.00000148 Ry

     iteration # 28     ecut=    50.00 Ry     beta= 0.30
     Davidson diagonalization with overlap
     ethr =  4.12E-09,  avg # of iterations =  7.7

     total cpu time spent up to now is      152.7 secs

     total energy              =    -330.95333296 Ry
     estimated scf accuracy    <       0.00000130 Ry

     iteration # 29     ecut=    50.00 Ry     beta= 0.30
     Davidson diagonalization with overlap
     ethr =  3.60E-09,  avg # of iterations =  1.1

     total cpu time spent up to now is      156.1 secs

     total energy              =    -330.95333278 Ry
     estimated scf accuracy    <       0.00000093 Ry

     iteration # 30     ecut=    50.00 Ry     beta= 0.30
     Davidson diagonalization with overlap
     ethr =  2.58E-09,  avg # of iterations =  4.2

     total cpu time spent up to now is      160.4 secs

     total energy              =    -330.95333292 Ry
     estimated scf accuracy    <       0.00000007 Ry

     iteration # 31     ecut=    50.00 Ry     beta= 0.30
     Davidson diagonalization with overlap
     ethr =  2.00E-10,  avg # of iterations =  7.2

     total cpu time spent up to now is      166.1 secs

     total energy              =    -330.95333296 Ry
     estimated scf accuracy    <       0.00000001 Ry

     iteration # 32     ecut=    50.00 Ry     beta= 0.30
     Davidson diagonalization with overlap
     ethr =  4.05E-11,  avg # of iterations =  4.1

     total cpu time spent up to now is      170.5 secs

     End of self-consistent calculation

     Number of k-points >= 100: set verbosity='high' to print the bands.

     highest occupied level (ev):    14.9666

!    total energy              =    -330.95333295 Ry
     estimated scf accuracy    <          8.0E-09 Ry

     The total energy is the sum of the following terms:
     one-electron contribution =    -378.26035183 Ry
     hartree contribution      =     225.40641681 Ry
     xc contribution           =    -116.31479694 Ry
     ewald contribution        =     -61.78460099 Ry

     convergence has been achieved in  32 iterations

     Forces acting on atoms (cartesian axes, Ry/au):

     atom    1 type  1   force =   -16.41640416   -8.34703767    5.27882082
     atom    2 type  1   force =   -17.26532008   52.60894614    3.13985925
     atom    3 type  2   force =     0.02605557    0.01254876   -0.04831688
     atom    4 type  2   force =    33.65566867  -44.27445723   -8.37036318
     The non-local contrib.  to forces
     atom    1 type  1   force =     4.24658851    2.51798894   -1.30169638
     atom    2 type  1   force =     9.57688424  -20.70957266   -2.05445152
     atom    3 type  2   force =     0.19165087    0.16857608    0.70209680
     atom    4 type  2   force =    -3.64642687    5.09194712    1.50999912
     The ionic contribution  to forces
     atom    1 type  1   force =   -64.29510582  -30.50756114   40.92460877
     atom    2 type  1   force =   -11.42337215  120.78828843    1.48643508
     atom    3 type  2   force =    -0.88071348   -0.97065157  -20.46172395
     atom    4 type  2   force =    76.59919145  -89.31007572  -21.94931991
     The local contribution  to forces
     atom    1 type  1   force =    42.89308808   19.26238399  -34.08839513
     atom    2 type  1   force =   -15.63404514  -45.88764764    3.69222584
     atom    3 type  2   force =     0.71676857    0.81622214   19.71564262
     atom    4 type  2   force =   -39.20594703   39.81564015   12.04831513
     The core correction contribution to forces
     atom    1 type  1   force =     0.73914975    0.38011454   -0.25584173
     atom    2 type  1   force =     0.21540892   -1.58230084    0.01536558
     atom    3 type  2   force =    -0.00168430   -0.00149251   -0.00424264
     atom    4 type  2   force =    -0.09117391    0.12812128    0.02056199
     The Hubbard contrib.    to forces
     atom    1 type  1   force =     0.00000000    0.00000000    0.00000000
     atom    2 type  1   force =     0.00000000    0.00000000    0.00000000
     atom    3 type  2   force =     0.00000000    0.00000000    0.00000000
     atom    4 type  2   force =     0.00000000    0.00000000    0.00000000
     The SCF correction term to forces
     atom    1 type  1   force =    -0.00015608    0.00013309    0.00025398
     atom    2 type  1   force =    -0.00022735    0.00027595    0.00039297
     atom    3 type  2   force =     0.00000251   -0.00000829    0.00001899
     atom    4 type  2   force =    -0.00000636    0.00000703    0.00018918

     Total force =    81.275373     Total SCF correction =     0.000652

     Writing all to output data dir ./ZnO_ANN.save/

     init_run     :      2.70s CPU      2.77s WALL (       1 calls)
     electrons    :    163.17s CPU    167.23s WALL (       1 calls)
     forces       :      0.84s CPU      0.86s WALL (       1 calls)

     Called by init_run:
     wfcinit      :      1.86s CPU      1.91s WALL (       1 calls)
     potinit      :      0.19s CPU      0.20s WALL (       1 calls)
     hinit0       :      0.59s CPU      0.60s WALL (       1 calls)

     Called by electrons:
     c_bands      :    145.18s CPU    148.62s WALL (      32 calls)
     sum_band     :     16.21s CPU     16.77s WALL (      32 calls)
     v_of_rho     :      0.36s CPU      0.40s WALL (      33 calls)
     newd         :      1.36s CPU      1.38s WALL (      33 calls)
     mix_rho      :      0.07s CPU      0.07s WALL (      32 calls)

     Called by c_bands:
     init_us_2    :      1.23s CPU      1.25s WALL (    7392 calls)
     init_us_2:cp :      1.20s CPU      1.23s WALL (    7392 calls)
     cegterg      :    141.29s CPU    144.64s WALL (    3584 calls)

     Called by *egterg:
     cdiaghg      :     24.01s CPU     24.31s WALL (   22316 calls)
     h_psi        :     76.36s CPU     78.77s WALL (   22428 calls)
     s_psi        :      9.85s CPU      9.97s WALL (   22428 calls)
     g_psi        :      0.27s CPU      0.27s WALL (   18732 calls)

     Called by h_psi:
     h_psi:calbec :     11.01s CPU     11.47s WALL (   22428 calls)
     vloc_psi     :     55.18s CPU     57.02s WALL (   22428 calls)
     add_vuspsi   :      9.83s CPU      9.95s WALL (   22428 calls)

     General routines
     calbec       :     15.09s CPU     15.72s WALL (   26460 calls)
     fft          :      0.54s CPU      0.57s WALL (     438 calls)
     ffts         :      0.06s CPU      0.06s WALL (      65 calls)
     fftw         :     56.53s CPU     58.43s WALL (  433462 calls)
     interpolate  :      0.07s CPU      0.07s WALL (      33 calls)

     Parallel routines

     PWSCF        :   2m47.41s CPU   2m51.67s WALL


   This run was terminated on:  14:30:30  24Jun2025            

=------------------------------------------------------------------------------=
   JOB DONE.
=------------------------------------------------------------------------------=
Note: The following floating-point exceptions are signalling: IEEE_INVALID_FLAG
