
     Program PWSCF v.7.2 starts on 24Jun2025 at 15:20:24 

     This program is part of the open-source Quantum ESPRESSO suite
     for quantum simulation of materials; please cite
         "P. Giannozzi et al., J. Phys.:Condens. Matter 21 395502 (2009);
         "P. Giannozzi et al., J. Phys.:Condens. Matter 29 465901 (2017);
         "P. Giannozzi et al., J. Chem. Phys. 152 154105 (2020);
          URL http://www.quantum-espresso.org", 
     in publications or presentations arising from this work. More details at
     http://www.quantum-espresso.org/quote

     Parallel version (MPI), running on     8 processors

     MPI processes distributed on     1 nodes
     91246 MiB available memory on the printing compute node when the environment starts

     Reading input from /home/jvc/QEspresso7.2/ZnO_DataBase/scf_025_NOSYM.in/scf-5.81-1.55-0.25-5.in

     Current dimensions of program PWSCF are:
     Max number of different atomic species (ntypx) = 10
     Max number of k-points (npk) =  40000
     Max angular momentum in pseudopotentials (lmaxx) =  4
     file Zn.upf: wavefunction(s)  3D renormalized

     R & G space division:  proc/nbgrp/npool/nimage =       8
     Subspace diagonalization in iterative solution of the eigenvalue problem:
     a serial algorithm will be used


     Parallelization info
     --------------------
     sticks:   dense  smooth     PW     G-vecs:    dense   smooth      PW
     Min         116      57     18                 4582     1619     281
     Max         117      58     20                 4585     1622     284
     Sum         931     463    151                36665    12971    2261

     Using Slab Decomposition



     bravais-lattice index     =            0
     lattice parameter (alat)  =       5.8081  a.u.
     unit-cell volume          =     271.4883 (a.u.)^3
     number of atoms/cell      =            4
     number of atomic types    =            2
     number of electrons       =        36.00
     number of Kohn-Sham states=           18
     kinetic-energy cutoff     =      50.0000  Ry
     charge density cutoff     =     400.0000  Ry
     scf convergence threshold =      1.0E-08
     mixing beta               =       0.3000
     number of iterations used =            8  plain     mixing
     Exchange-correlation= PBE
                           (   1   4   3   4   0   0   0)

     celldm(1)=   5.808092  celldm(2)=   0.000000  celldm(3)=   0.000000
     celldm(4)=   0.000000  celldm(5)=   0.000000  celldm(6)=   0.000000

     crystal axes: (cart. coord. in units of alat)
               a(1) = (   1.000000   0.000000   0.000000 )  
               a(2) = (  -0.500000   0.866025   0.000000 )  
               a(3) = (   0.000000   0.000000   1.600000 )  

     reciprocal axes: (cart. coord. in units 2 pi/alat)
               b(1) = (  1.000000  0.577350 -0.000000 )  
               b(2) = (  0.000000  1.154701  0.000000 )  
               b(3) = (  0.000000 -0.000000  0.625000 )  


     PseudoPot. # 1 for Zn read from file:
     ./pseudos/Zn.upf
     MD5 check sum: 7f56cabf9682ed8c977c2f7d0c5985c5
     Pseudo is Ultrasoft + core correction, Zval = 12.0
     Generated using &quot;atomic&quot; code by A. Dal Corso  v.6.2.2
     Using radial grid of 1201 points,  6 beta functions with: 
                l(1) =   0
                l(2) =   0
                l(3) =   1
                l(4) =   1
                l(5) =   2
                l(6) =   2
     Q(r) pseudized with 0 coefficients 


     PseudoPot. # 2 for O  read from file:
     ./pseudos/O.upf
     MD5 check sum: 91400c9766925bcf19f520983a725ff0
     Pseudo is Ultrasoft + core correction, Zval =  6.0
     Generated using &quot;atomic&quot; code by A. Dal Corso  v.6.3MaX
     Using radial grid of 1095 points,  4 beta functions with: 
                l(1) =   0
                l(2) =   0
                l(3) =   1
                l(4) =   1
     Q(r) pseudized with 0 coefficients 


     atomic species   valence    mass     pseudopotential
        Zn            12.00    63.38000     Zn( 1.00)
        O              6.00    15.99900     O ( 1.00)

     No symmetry found



   Cartesian axes

     site n.     atom                  positions (alat units)
         1           Zn  tau(   1) = (   0.4186456   0.3160189   0.4540320  )
         2           Zn  tau(   2) = (  -0.1639290   0.4378272  -0.0690165  )
         3           O   tau(   3) = (   0.6957082   0.1043258   1.1517278  )
         4           O   tau(   4) = (   0.0104469   0.6709134   0.6218817  )

     number of k points=   112

     Number of k-points >= 100: set verbosity='high' to print them.

     Dense  grid:    36665 G-vectors     FFT dimensions: (  40,  40,  60)

     Smooth grid:    12971 G-vectors     FFT dimensions: (  27,  27,  45)

     Estimated max dynamical RAM per process >      25.88 MB

     Estimated total dynamical RAM >     207.00 MB

     Check: negative core charge=   -0.000002

     Initial potential from superposition of free atoms

     starting charge      35.9925, renormalised to      36.0000
     Starting wfcs are   26 randomized atomic wfcs

     total cpu time spent up to now is        3.8 secs

     Self-consistent Calculation

     iteration #  1     ecut=    50.00 Ry     beta= 0.30
     Davidson diagonalization with overlap
     ethr =  1.00E-02,  avg # of iterations =  2.0

     total cpu time spent up to now is        8.6 secs

     total energy              =    -360.85133811 Ry
     estimated scf accuracy    <       0.92821832 Ry

     iteration #  2     ecut=    50.00 Ry     beta= 0.30
     Davidson diagonalization with overlap
     ethr =  2.58E-03,  avg # of iterations =  4.3

     total cpu time spent up to now is       14.8 secs

     total energy              =    -361.10904634 Ry
     estimated scf accuracy    <       0.04460792 Ry

     iteration #  3     ecut=    50.00 Ry     beta= 0.30
     Davidson diagonalization with overlap
     ethr =  1.24E-04,  avg # of iterations =  8.2

     total cpu time spent up to now is       25.6 secs

     total energy              =    -361.11828029 Ry
     estimated scf accuracy    <       0.07898341 Ry

     iteration #  4     ecut=    50.00 Ry     beta= 0.30
     Davidson diagonalization with overlap
     ethr =  1.24E-04,  avg # of iterations =  7.1

     total cpu time spent up to now is       35.5 secs

     total energy              =    -361.14164450 Ry
     estimated scf accuracy    <       0.04449583 Ry

     iteration #  5     ecut=    50.00 Ry     beta= 0.30
     Davidson diagonalization with overlap
     ethr =  1.24E-04,  avg # of iterations =  1.6

     total cpu time spent up to now is       40.0 secs

     total energy              =    -361.13526708 Ry
     estimated scf accuracy    <       0.01575358 Ry

     iteration #  6     ecut=    50.00 Ry     beta= 0.30
     Davidson diagonalization with overlap
     ethr =  4.38E-05,  avg # of iterations =  6.8

     total cpu time spent up to now is       48.5 secs

     total energy              =    -361.14373508 Ry
     estimated scf accuracy    <       0.01783318 Ry

     iteration #  7     ecut=    50.00 Ry     beta= 0.30
     Davidson diagonalization with overlap
     ethr =  4.38E-05,  avg # of iterations =  1.8

     total cpu time spent up to now is       53.1 secs

     total energy              =    -361.14015814 Ry
     estimated scf accuracy    <       0.00724762 Ry

     iteration #  8     ecut=    50.00 Ry     beta= 0.30
     Davidson diagonalization with overlap
     ethr =  2.01E-05,  avg # of iterations =  7.7

     total cpu time spent up to now is       62.8 secs

     total energy              =    -361.14762028 Ry
     estimated scf accuracy    <       0.01279678 Ry

     iteration #  9     ecut=    50.00 Ry     beta= 0.30
     Davidson diagonalization with overlap
     ethr =  2.01E-05,  avg # of iterations =  1.0

     total cpu time spent up to now is       67.0 secs

     total energy              =    -361.14310823 Ry
     estimated scf accuracy    <       0.01156656 Ry

     iteration # 10     ecut=    50.00 Ry     beta= 0.30
     Davidson diagonalization with overlap
     ethr =  2.01E-05,  avg # of iterations =  5.0

     total cpu time spent up to now is       73.3 secs

     total energy              =    -361.14501310 Ry
     estimated scf accuracy    <       0.00019467 Ry

     iteration # 11     ecut=    50.00 Ry     beta= 0.30
     Davidson diagonalization with overlap
     ethr =  5.41E-07,  avg # of iterations =  8.5

     total cpu time spent up to now is       84.4 secs

     total energy              =    -361.14535878 Ry
     estimated scf accuracy    <       0.00000902 Ry

     iteration # 12     ecut=    50.00 Ry     beta= 0.30
     Davidson diagonalization with overlap
     c_bands:  2 eigenvalues not converged
     ethr =  2.51E-08,  avg # of iterations =  9.1

     total cpu time spent up to now is       93.4 secs

     total energy              =    -361.14536394 Ry
     estimated scf accuracy    <       0.00002043 Ry

     iteration # 13     ecut=    50.00 Ry     beta= 0.30
     Davidson diagonalization with overlap
     ethr =  2.51E-08,  avg # of iterations =  2.2

     total cpu time spent up to now is       98.1 secs

     total energy              =    -361.14535828 Ry
     estimated scf accuracy    <       0.00001090 Ry

     iteration # 14     ecut=    50.00 Ry     beta= 0.30
     Davidson diagonalization with overlap
     ethr =  2.51E-08,  avg # of iterations =  8.1

     total cpu time spent up to now is      107.7 secs

     total energy              =    -361.14536832 Ry
     estimated scf accuracy    <       0.00001999 Ry

     iteration # 15     ecut=    50.00 Ry     beta= 0.30
     Davidson diagonalization with overlap
     ethr =  2.51E-08,  avg # of iterations =  1.2

     total cpu time spent up to now is      112.0 secs

     total energy              =    -361.14535823 Ry
     estimated scf accuracy    <       0.00001942 Ry

     iteration # 16     ecut=    50.00 Ry     beta= 0.30
     Davidson diagonalization with overlap
     ethr =  2.51E-08,  avg # of iterations =  7.1

     total cpu time spent up to now is      120.6 secs

     total energy              =    -361.14536632 Ry
     estimated scf accuracy    <       0.00000627 Ry

     iteration # 17     ecut=    50.00 Ry     beta= 0.30
     Davidson diagonalization with overlap
     ethr =  1.74E-08,  avg # of iterations =  1.6

     total cpu time spent up to now is      125.1 secs

     total energy              =    -361.14536363 Ry
     estimated scf accuracy    <       0.00000737 Ry

     iteration # 18     ecut=    50.00 Ry     beta= 0.30
     Davidson diagonalization with overlap
     ethr =  1.74E-08,  avg # of iterations =  2.2

     total cpu time spent up to now is      130.1 secs

     total energy              =    -361.14536268 Ry
     estimated scf accuracy    <       0.00000194 Ry

     iteration # 19     ecut=    50.00 Ry     beta= 0.30
     Davidson diagonalization with overlap
     c_bands:  3 eigenvalues not converged
     ethr =  5.40E-09,  avg # of iterations = 11.1

     total cpu time spent up to now is      142.9 secs

     total energy              =    -361.14536380 Ry
     estimated scf accuracy    <       0.00001382 Ry

     iteration # 20     ecut=    50.00 Ry     beta= 0.30
     Davidson diagonalization with overlap
     ethr =  5.40E-09,  avg # of iterations =  6.0

     total cpu time spent up to now is      150.1 secs

     total energy              =    -361.14536435 Ry
     estimated scf accuracy    <       0.00000184 Ry

     iteration # 21     ecut=    50.00 Ry     beta= 0.30
     Davidson diagonalization with overlap
     ethr =  5.11E-09,  avg # of iterations =  2.0

     total cpu time spent up to now is      154.7 secs

     total energy              =    -361.14536403 Ry
     estimated scf accuracy    <       0.00000086 Ry

     iteration # 22     ecut=    50.00 Ry     beta= 0.30
     Davidson diagonalization with overlap
     c_bands:  2 eigenvalues not converged
     ethr =  2.39E-09,  avg # of iterations =  8.2

     total cpu time spent up to now is      163.7 secs

     total energy              =    -361.14536492 Ry
     estimated scf accuracy    <       0.00000134 Ry

     iteration # 23     ecut=    50.00 Ry     beta= 0.30
     Davidson diagonalization with overlap
     ethr =  2.39E-09,  avg # of iterations =  1.1

     total cpu time spent up to now is      167.8 secs

     total energy              =    -361.14536473 Ry
     estimated scf accuracy    <       0.00000137 Ry

     iteration # 24     ecut=    50.00 Ry     beta= 0.30
     Davidson diagonalization with overlap
     ethr =  2.39E-09,  avg # of iterations =  1.1

     total cpu time spent up to now is      172.0 secs

     total energy              =    -361.14536448 Ry
     estimated scf accuracy    <       0.00000092 Ry

     iteration # 25     ecut=    50.00 Ry     beta= 0.30
     Davidson diagonalization with overlap
     ethr =  2.39E-09,  avg # of iterations =  3.0

     total cpu time spent up to now is      177.0 secs

     total energy              =    -361.14536456 Ry
     estimated scf accuracy    <       0.00000023 Ry

     iteration # 26     ecut=    50.00 Ry     beta= 0.30
     Davidson diagonalization with overlap
     ethr =  6.29E-10,  avg # of iterations =  6.3

     total cpu time spent up to now is      183.5 secs

     total energy              =    -361.14536463 Ry
     estimated scf accuracy    <       0.00000002 Ry

     iteration # 27     ecut=    50.00 Ry     beta= 0.30
     Davidson diagonalization with overlap
     c_bands:  1 eigenvalues not converged
     ethr =  4.22E-11,  avg # of iterations =  5.7

     total cpu time spent up to now is      190.3 secs

     End of self-consistent calculation

     Number of k-points >= 100: set verbosity='high' to print the bands.

     highest occupied level (ev):    10.1690

!    total energy              =    -361.14536463 Ry
     estimated scf accuracy    <          6.4E-09 Ry

     The total energy is the sum of the following terms:
     one-electron contribution =    -136.35314688 Ry
     hartree contribution      =     111.44649931 Ry
     xc contribution           =    -109.66748525 Ry
     ewald contribution        =    -226.57123181 Ry

     convergence has been achieved in  27 iterations

     Forces acting on atoms (cartesian axes, Ry/au):

     atom    1 type  1   force =    -0.00821160    0.08948649    0.09237677
     atom    2 type  1   force =     0.15563081    0.22206705   -0.01123467
     atom    3 type  2   force =    -0.06558459   -0.15143292   -0.02253140
     atom    4 type  2   force =    -0.08183462   -0.16012063   -0.05861071
     The non-local contrib.  to forces
     atom    1 type  1   force =     0.17648986    0.23955439   -0.45431885
     atom    2 type  1   force =     0.19940700    0.55336431    0.77577102
     atom    3 type  2   force =     0.10110821    0.43236072    1.01606611
     atom    4 type  2   force =     0.13690517    0.01606526   -1.25222064
     The ionic contribution  to forces
     atom    1 type  1   force =    -0.93999194    1.36819485    5.78774751
     atom    2 type  1   force =     3.25700969    4.73336911   -8.73806107
     atom    3 type  2   force =    -0.67704578   -4.07909111   -5.62124519
     atom    4 type  2   force =    -1.63997197   -2.02247285    8.57155875
     The local contribution  to forces
     atom    1 type  1   force =     0.77049395   -1.49548876   -5.26657026
     atom    2 type  1   force =    -3.28095164   -5.01723328    7.99434621
     atom    3 type  2   force =     0.51085834    3.49794711    4.59094790
     atom    4 type  2   force =     1.42190801    1.84540268   -7.38898577
     The core correction contribution to forces
     atom    1 type  1   force =    -0.01522251   -0.02280041    0.02575825
     atom    2 type  1   force =    -0.01982422   -0.04743666   -0.04340089
     atom    3 type  2   force =    -0.00051259   -0.00266967   -0.00844821
     atom    4 type  2   force =    -0.00066840    0.00090026    0.01110332
     The Hubbard contrib.    to forces
     atom    1 type  1   force =     0.00000000    0.00000000    0.00000000
     atom    2 type  1   force =     0.00000000    0.00000000    0.00000000
     atom    3 type  2   force =     0.00000000    0.00000000    0.00000000
     atom    4 type  2   force =     0.00000000    0.00000000    0.00000000
     The SCF correction term to forces
     atom    1 type  1   force =     0.00001969    0.00003395   -0.00025131
     atom    2 type  1   force =    -0.00000935    0.00001109    0.00009865
     atom    3 type  2   force =     0.00000789    0.00002756    0.00013658
     atom    4 type  2   force =    -0.00000677   -0.00000847   -0.00007779

     Total force =     0.392150     Total SCF correction =     0.000317

     Writing all to output data dir ./ZnO_ANN.save/

     init_run     :      3.25s CPU      3.34s WALL (       1 calls)
     electrons    :    183.20s CPU    186.54s WALL (       1 calls)
     forces       :      0.94s CPU      0.95s WALL (       1 calls)

     Called by init_run:
     wfcinit      :      2.33s CPU      2.39s WALL (       1 calls)
     potinit      :      0.23s CPU      0.23s WALL (       1 calls)
     hinit0       :      0.63s CPU      0.64s WALL (       1 calls)

     Called by electrons:
     c_bands      :    163.28s CPU    166.18s WALL (      27 calls)
     sum_band     :     18.20s CPU     18.60s WALL (      27 calls)
     v_of_rho     :      0.38s CPU      0.41s WALL (      28 calls)
     newd         :      1.28s CPU      1.31s WALL (      28 calls)
     mix_rho      :      0.06s CPU      0.07s WALL (      27 calls)

     Called by c_bands:
     init_us_2    :      1.04s CPU      1.06s WALL (    6272 calls)
     init_us_2:cp :      1.02s CPU      1.04s WALL (    6272 calls)
     cegterg      :    159.64s CPU    162.46s WALL (    3024 calls)

     Called by *egterg:
     cdiaghg      :     17.92s CPU     18.06s WALL (   17610 calls)
     h_psi        :     96.19s CPU     98.32s WALL (   17722 calls)
     s_psi        :      8.29s CPU      8.37s WALL (   17722 calls)
     g_psi        :      0.28s CPU      0.29s WALL (   14586 calls)

     Called by h_psi:
     h_psi:calbec :     11.69s CPU     12.12s WALL (   17722 calls)
     vloc_psi     :     75.95s CPU     77.57s WALL (   17722 calls)
     add_vuspsi   :      8.29s CPU      8.38s WALL (   17722 calls)

     General routines
     calbec       :     15.76s CPU     16.31s WALL (   21194 calls)
     fft          :      0.60s CPU      0.64s WALL (     373 calls)
     ffts         :      0.08s CPU      0.08s WALL (      55 calls)
     fftw         :     80.47s CPU     82.18s WALL (  399720 calls)
     interpolate  :      0.09s CPU      0.09s WALL (      28 calls)

     Parallel routines

     PWSCF        :   3m 8.12s CPU   3m11.71s WALL


   This run was terminated on:  15:23:35  24Jun2025            

=------------------------------------------------------------------------------=
   JOB DONE.
=------------------------------------------------------------------------------=
Note: The following floating-point exceptions are signalling: IEEE_INVALID_FLAG
