
     Program PWSCF v.7.2 starts on 24Jun2025 at 20:42:13 

     This program is part of the open-source Quantum ESPRESSO suite
     for quantum simulation of materials; please cite
         "P. Giannozzi et al., J. Phys.:Condens. Matter 21 395502 (2009);
         "P. Giannozzi et al., J. Phys.:Condens. Matter 29 465901 (2017);
         "P. Giannozzi et al., J. Chem. Phys. 152 154105 (2020);
          URL http://www.quantum-espresso.org", 
     in publications or presentations arising from this work. More details at
     http://www.quantum-espresso.org/quote

     Parallel version (MPI), running on     8 processors

     MPI processes distributed on     1 nodes
     90587 MiB available memory on the printing compute node when the environment starts

     Reading input from /home/jvc/QEspresso7.2/ZnO_DataBase/scf_025_NOSYM.in/scf-6.80-1.55-0.25-3.in

     Current dimensions of program PWSCF are:
     Max number of different atomic species (ntypx) = 10
     Max number of k-points (npk) =  40000
     Max angular momentum in pseudopotentials (lmaxx) =  4
     file Zn.upf: wavefunction(s)  3D renormalized

     R & G space division:  proc/nbgrp/npool/nimage =       8
     Subspace diagonalization in iterative solution of the eigenvalue problem:
     a serial algorithm will be used


     Parallelization info
     --------------------
     sticks:   dense  smooth     PW     G-vecs:    dense   smooth      PW
     Min         160      81     24                 7354     2595     429
     Max         162      82     26                 7355     2598     432
     Sum        1285     649    199                58833    20773    3441

     Using Slab Decomposition



     bravais-lattice index     =            0
     lattice parameter (alat)  =       6.7967  a.u.
     unit-cell volume          =     435.0564 (a.u.)^3
     number of atoms/cell      =            4
     number of atomic types    =            2
     number of electrons       =        36.00
     number of Kohn-Sham states=           18
     kinetic-energy cutoff     =      50.0000  Ry
     charge density cutoff     =     400.0000  Ry
     scf convergence threshold =      1.0E-08
     mixing beta               =       0.3000
     number of iterations used =            8  plain     mixing
     Exchange-correlation= PBE
                           (   1   4   3   4   0   0   0)

     celldm(1)=   6.796704  celldm(2)=   0.000000  celldm(3)=   0.000000
     celldm(4)=   0.000000  celldm(5)=   0.000000  celldm(6)=   0.000000

     crystal axes: (cart. coord. in units of alat)
               a(1) = (   1.000000   0.000000   0.000000 )  
               a(2) = (  -0.500000   0.866025   0.000000 )  
               a(3) = (   0.000000   0.000000   1.600000 )  

     reciprocal axes: (cart. coord. in units 2 pi/alat)
               b(1) = (  1.000000  0.577350 -0.000000 )  
               b(2) = (  0.000000  1.154701  0.000000 )  
               b(3) = (  0.000000 -0.000000  0.625000 )  


     PseudoPot. # 1 for Zn read from file:
     ./pseudos/Zn.upf
     MD5 check sum: 7f56cabf9682ed8c977c2f7d0c5985c5
     Pseudo is Ultrasoft + core correction, Zval = 12.0
     Generated using &quot;atomic&quot; code by A. Dal Corso  v.6.2.2
     Using radial grid of 1201 points,  6 beta functions with: 
                l(1) =   0
                l(2) =   0
                l(3) =   1
                l(4) =   1
                l(5) =   2
                l(6) =   2
     Q(r) pseudized with 0 coefficients 


     PseudoPot. # 2 for O  read from file:
     ./pseudos/O.upf
     MD5 check sum: 91400c9766925bcf19f520983a725ff0
     Pseudo is Ultrasoft + core correction, Zval =  6.0
     Generated using &quot;atomic&quot; code by A. Dal Corso  v.6.3MaX
     Using radial grid of 1095 points,  4 beta functions with: 
                l(1) =   0
                l(2) =   0
                l(3) =   1
                l(4) =   1
     Q(r) pseudized with 0 coefficients 


     atomic species   valence    mass     pseudopotential
        Zn            12.00    63.38000     Zn( 1.00)
        O              6.00    15.99900     O ( 1.00)

     No symmetry found



   Cartesian axes

     site n.     atom                  positions (alat units)
         1           Zn  tau(   1) = (   0.6139543   0.1060292   0.6503528  )
         2           Zn  tau(   2) = (  -0.0913478   0.6931566  -0.3535957  )
         3           O   tau(   3) = (   0.3982937   0.1404949   1.5146094  )
         4           O   tau(   4) = (  -0.1496877   0.6696940   0.5766665  )

     number of k points=   112

     Number of k-points >= 100: set verbosity='high' to print them.

     Dense  grid:    58833 G-vectors     FFT dimensions: (  45,  45,  72)

     Smooth grid:    20773 G-vectors     FFT dimensions: (  32,  32,  50)

     Estimated max dynamical RAM per process >      39.41 MB

     Estimated total dynamical RAM >     315.24 MB

     Check: negative core charge=   -0.000002

     Initial potential from superposition of free atoms

     starting charge      35.9925, renormalised to      36.0000
     Starting wfcs are   26 randomized atomic wfcs

     total cpu time spent up to now is        4.7 secs

     Self-consistent Calculation

     iteration #  1     ecut=    50.00 Ry     beta= 0.30
     Davidson diagonalization with overlap
     ethr =  1.00E-02,  avg # of iterations =  2.0

     total cpu time spent up to now is       11.0 secs

     total energy              =    -360.68481929 Ry
     estimated scf accuracy    <       1.40494756 Ry

     iteration #  2     ecut=    50.00 Ry     beta= 0.30
     Davidson diagonalization with overlap
     ethr =  3.90E-03,  avg # of iterations =  2.4

     total cpu time spent up to now is       17.8 secs

     total energy              =    -360.88789055 Ry
     estimated scf accuracy    <       0.13233930 Ry

     iteration #  3     ecut=    50.00 Ry     beta= 0.30
     Davidson diagonalization with overlap
     ethr =  3.68E-04,  avg # of iterations =  8.3

     total cpu time spent up to now is       31.8 secs

     total energy              =    -360.93331818 Ry
     estimated scf accuracy    <       0.42395828 Ry

     iteration #  4     ecut=    50.00 Ry     beta= 0.30
     Davidson diagonalization with overlap
     ethr =  3.68E-04,  avg # of iterations =  6.3

     total cpu time spent up to now is       44.3 secs

     total energy              =    -361.05279226 Ry
     estimated scf accuracy    <       0.03144375 Ry

     iteration #  5     ecut=    50.00 Ry     beta= 0.30
     Davidson diagonalization with overlap
     ethr =  8.73E-05,  avg # of iterations =  5.8

     total cpu time spent up to now is       53.5 secs

     total energy              =    -361.01444143 Ry
     estimated scf accuracy    <       0.11304750 Ry

     iteration #  6     ecut=    50.00 Ry     beta= 0.30
     Davidson diagonalization with overlap
     c_bands:  1 eigenvalues not converged
     ethr =  8.73E-05,  avg # of iterations =  5.8

     total cpu time spent up to now is       64.5 secs

     total energy              =    -361.03867347 Ry
     estimated scf accuracy    <       0.00315290 Ry

     iteration #  7     ecut=    50.00 Ry     beta= 0.30
     Davidson diagonalization with overlap
     ethr =  8.76E-06,  avg # of iterations =  4.2

     total cpu time spent up to now is       72.1 secs

     total energy              =    -361.03856068 Ry
     estimated scf accuracy    <       0.00143887 Ry

     iteration #  8     ecut=    50.00 Ry     beta= 0.30
     Davidson diagonalization with overlap
     c_bands:  2 eigenvalues not converged
     ethr =  4.00E-06,  avg # of iterations =  6.8

     total cpu time spent up to now is       82.6 secs

     total energy              =    -361.03930381 Ry
     estimated scf accuracy    <       0.00156322 Ry

     iteration #  9     ecut=    50.00 Ry     beta= 0.30
     Davidson diagonalization with overlap
     ethr =  4.00E-06,  avg # of iterations =  1.1

     total cpu time spent up to now is       88.0 secs

     total energy              =    -361.03884940 Ry
     estimated scf accuracy    <       0.00088421 Ry

     iteration # 10     ecut=    50.00 Ry     beta= 0.30
     Davidson diagonalization with overlap
     c_bands:  2 eigenvalues not converged
     ethr =  2.46E-06,  avg # of iterations =  7.5

     total cpu time spent up to now is       98.7 secs

     total energy              =    -361.03953902 Ry
     estimated scf accuracy    <       0.00141153 Ry

     iteration # 11     ecut=    50.00 Ry     beta= 0.30
     Davidson diagonalization with overlap
     ethr =  2.46E-06,  avg # of iterations =  1.0

     total cpu time spent up to now is      104.2 secs

     total energy              =    -361.03919502 Ry
     estimated scf accuracy    <       0.00127731 Ry

     iteration # 12     ecut=    50.00 Ry     beta= 0.30
     Davidson diagonalization with overlap
     ethr =  2.46E-06,  avg # of iterations =  3.4

     total cpu time spent up to now is      111.0 secs

     total energy              =    -361.03918615 Ry
     estimated scf accuracy    <       0.00032781 Ry

     iteration # 13     ecut=    50.00 Ry     beta= 0.30
     Davidson diagonalization with overlap
     ethr =  9.11E-07,  avg # of iterations =  6.5

     total cpu time spent up to now is      120.3 secs

     total energy              =    -361.03934620 Ry
     estimated scf accuracy    <       0.00011674 Ry

     iteration # 14     ecut=    50.00 Ry     beta= 0.30
     Davidson diagonalization with overlap
     ethr =  3.24E-07,  avg # of iterations =  1.8

     total cpu time spent up to now is      126.2 secs

     total energy              =    -361.03930633 Ry
     estimated scf accuracy    <       0.00011085 Ry

     iteration # 15     ecut=    50.00 Ry     beta= 0.30
     Davidson diagonalization with overlap
     ethr =  3.08E-07,  avg # of iterations =  5.8

     total cpu time spent up to now is      134.2 secs

     total energy              =    -361.03932908 Ry
     estimated scf accuracy    <       0.00001417 Ry

     iteration # 16     ecut=    50.00 Ry     beta= 0.30
     Davidson diagonalization with overlap
     ethr =  3.94E-08,  avg # of iterations =  5.0

     total cpu time spent up to now is      142.3 secs

     total energy              =    -361.03933083 Ry
     estimated scf accuracy    <       0.00001054 Ry

     iteration # 17     ecut=    50.00 Ry     beta= 0.30
     Davidson diagonalization with overlap
     ethr =  2.93E-08,  avg # of iterations =  3.9

     total cpu time spent up to now is      149.7 secs

     total energy              =    -361.03933209 Ry
     estimated scf accuracy    <       0.00000238 Ry

     iteration # 18     ecut=    50.00 Ry     beta= 0.30
     Davidson diagonalization with overlap
     ethr =  6.60E-09,  avg # of iterations =  8.4

     total cpu time spent up to now is      160.5 secs

     total energy              =    -361.03933327 Ry
     estimated scf accuracy    <       0.00000591 Ry

     iteration # 19     ecut=    50.00 Ry     beta= 0.30
     Davidson diagonalization with overlap
     ethr =  6.60E-09,  avg # of iterations =  1.3

     total cpu time spent up to now is      165.8 secs

     total energy              =    -361.03933231 Ry
     estimated scf accuracy    <       0.00000398 Ry

     iteration # 20     ecut=    50.00 Ry     beta= 0.30
     Davidson diagonalization with overlap
     ethr =  6.60E-09,  avg # of iterations =  6.7

     total cpu time spent up to now is      173.9 secs

     total energy              =    -361.03933322 Ry
     estimated scf accuracy    <       0.00000053 Ry

     iteration # 21     ecut=    50.00 Ry     beta= 0.30
     Davidson diagonalization with overlap
     ethr =  1.48E-09,  avg # of iterations =  3.4

     total cpu time spent up to now is      180.5 secs

     total energy              =    -361.03933314 Ry
     estimated scf accuracy    <       0.00000058 Ry

     iteration # 22     ecut=    50.00 Ry     beta= 0.30
     Davidson diagonalization with overlap
     ethr =  1.48E-09,  avg # of iterations =  2.4

     total cpu time spent up to now is      186.4 secs

     total energy              =    -361.03933314 Ry
     estimated scf accuracy    <       0.00000020 Ry

     iteration # 23     ecut=    50.00 Ry     beta= 0.30
     Davidson diagonalization with overlap
     ethr =  5.49E-10,  avg # of iterations =  7.0

     total cpu time spent up to now is      195.0 secs

     total energy              =    -361.03933319 Ry
     estimated scf accuracy    <       0.00000009 Ry

     iteration # 24     ecut=    50.00 Ry     beta= 0.30
     Davidson diagonalization with overlap
     ethr =  2.51E-10,  avg # of iterations =  6.3

     total cpu time spent up to now is      203.2 secs

     total energy              =    -361.03933326 Ry
     estimated scf accuracy    <       0.00000007 Ry

     iteration # 25     ecut=    50.00 Ry     beta= 0.30
     Davidson diagonalization with overlap
     ethr =  1.93E-10,  avg # of iterations =  6.6

     total cpu time spent up to now is      212.0 secs

     total energy              =    -361.03933320 Ry
     estimated scf accuracy    <       0.00000044 Ry

     iteration # 26     ecut=    50.00 Ry     beta= 0.30
     Davidson diagonalization with overlap
     ethr =  1.93E-10,  avg # of iterations =  6.8

     total cpu time spent up to now is      220.5 secs

     total energy              =    -361.03933321 Ry
     estimated scf accuracy    <       0.00000007 Ry

     iteration # 27     ecut=    50.00 Ry     beta= 0.30
     Davidson diagonalization with overlap
     ethr =  1.85E-10,  avg # of iterations =  2.7

     total cpu time spent up to now is      226.5 secs

     total energy              =    -361.03933320 Ry
     estimated scf accuracy    <       0.00000003 Ry

     iteration # 28     ecut=    50.00 Ry     beta= 0.30
     Davidson diagonalization with overlap
     c_bands:  2 eigenvalues not converged
     c_bands:  1 eigenvalues not converged
     ethr =  8.51E-11,  avg # of iterations =  7.7

     total cpu time spent up to now is      236.7 secs

     total energy              =    -361.03933321 Ry
     estimated scf accuracy    <       0.00000005 Ry

     iteration # 29     ecut=    50.00 Ry     beta= 0.30
     Davidson diagonalization with overlap
     ethr =  8.51E-11,  avg # of iterations =  3.3

     total cpu time spent up to now is      243.2 secs

     total energy              =    -361.03933321 Ry
     estimated scf accuracy    <       0.00000001 Ry

     iteration # 30     ecut=    50.00 Ry     beta= 0.30
     Davidson diagonalization with overlap
     c_bands:  2 eigenvalues not converged
     ethr =  3.43E-11,  avg # of iterations =  9.5

     total cpu time spent up to now is      255.0 secs

     total energy              =    -361.03933322 Ry
     estimated scf accuracy    <       0.00000004 Ry

     iteration # 31     ecut=    50.00 Ry     beta= 0.30
     Davidson diagonalization with overlap
     ethr =  3.43E-11,  avg # of iterations =  1.4

     total cpu time spent up to now is      260.5 secs

     total energy              =    -361.03933321 Ry
     estimated scf accuracy    <       0.00000003 Ry

     iteration # 32     ecut=    50.00 Ry     beta= 0.30
     Davidson diagonalization with overlap
     ethr =  3.43E-11,  avg # of iterations =  6.6

     total cpu time spent up to now is      269.8 secs

     End of self-consistent calculation

     Number of k-points >= 100: set verbosity='high' to print the bands.

     highest occupied level (ev):     4.0433

!    total energy              =    -361.03933322 Ry
     estimated scf accuracy    <          1.2E-09 Ry

     The total energy is the sum of the following terms:
     one-electron contribution =    -213.42580995 Ry
     hartree contribution      =     142.35889797 Ry
     xc contribution           =    -109.32458556 Ry
     ewald contribution        =    -180.64783567 Ry

     convergence has been achieved in  32 iterations

     Forces acting on atoms (cartesian axes, Ry/au):

     atom    1 type  1   force =     0.43879350    0.53545667    0.04028474
     atom    2 type  1   force =     0.00309914   -0.43699945   -0.31536232
     atom    3 type  2   force =    -0.00735546    0.44404749    0.31571815
     atom    4 type  2   force =    -0.43453718   -0.54250471   -0.04064057
     The non-local contrib.  to forces
     atom    1 type  1   force =     0.72762850    0.81541856    0.24738241
     atom    2 type  1   force =     0.03409860   -1.09500819   -0.95881802
     atom    3 type  2   force =     0.07853655   -0.77404286   -0.98883475
     atom    4 type  2   force =     0.54537799    0.22446782    0.90898314
     The ionic contribution  to forces
     atom    1 type  1   force =     8.92496902    8.96844112   -4.75557857
     atom    2 type  1   force =    -0.52697478  -10.72365839    1.83226662
     atom    3 type  2   force =    -0.77127485    9.82535059   10.10721592
     atom    4 type  2   force =    -7.62671938   -8.07013331   -7.18390397
     The local contribution  to forces
     atom    1 type  1   force =    -9.13153773   -9.16017169    4.56781419
     atom    2 type  1   force =     0.49903409   11.28018954   -1.26111451
     atom    3 type  2   force =     0.68604442   -8.61130750   -8.80951711
     atom    4 type  2   force =     6.64911690    7.30168310    6.24226303
     The core correction contribution to forces
     atom    1 type  1   force =    -0.08225131   -0.08822042   -0.01935268
     atom    2 type  1   force =    -0.00306173    0.10152137    0.07238891
     atom    3 type  2   force =    -0.00066330    0.00404095    0.00685379
     atom    4 type  2   force =    -0.00231666    0.00147172   -0.00801174
     The Hubbard contrib.    to forces
     atom    1 type  1   force =     0.00000000    0.00000000    0.00000000
     atom    2 type  1   force =     0.00000000    0.00000000    0.00000000
     atom    3 type  2   force =     0.00000000    0.00000000    0.00000000
     atom    4 type  2   force =     0.00000000    0.00000000    0.00000000
     The SCF correction term to forces
     atom    1 type  1   force =    -0.00001654   -0.00001929    0.00001356
     atom    2 type  1   force =     0.00000138   -0.00005216   -0.00009115
     atom    3 type  2   force =     0.00000014   -0.00000208   -0.00000554
     atom    4 type  2   force =     0.00000240   -0.00000243    0.00002314

     Total force =     1.246196     Total SCF correction =     0.000112

     Writing all to output data dir ./ZnO_ANN.save/

     init_run     :      4.10s CPU      4.21s WALL (       1 calls)
     electrons    :    260.84s CPU    265.12s WALL (       1 calls)
     forces       :      1.46s CPU      1.48s WALL (       1 calls)

     Called by init_run:
     wfcinit      :      2.99s CPU      3.04s WALL (       1 calls)
     potinit      :      0.39s CPU      0.39s WALL (       1 calls)
     hinit0       :      0.60s CPU      0.61s WALL (       1 calls)

     Called by electrons:
     c_bands      :    230.61s CPU    234.25s WALL (      32 calls)
     sum_band     :     27.00s CPU     27.55s WALL (      32 calls)
     v_of_rho     :      0.65s CPU      0.71s WALL (      33 calls)
     newd         :      2.50s CPU      2.54s WALL (      33 calls)
     mix_rho      :      0.11s CPU      0.12s WALL (      32 calls)

     Called by c_bands:
     init_us_2    :      2.12s CPU      2.16s WALL (    7392 calls)
     init_us_2:cp :      2.10s CPU      2.14s WALL (    7392 calls)
     cegterg      :    223.68s CPU    227.21s WALL (    3584 calls)

     Called by *egterg:
     cdiaghg      :     22.66s CPU     22.84s WALL (   21235 calls)
     h_psi        :    126.68s CPU    129.33s WALL (   21347 calls)
     s_psi        :     17.04s CPU     17.15s WALL (   21347 calls)
     g_psi        :      0.48s CPU      0.48s WALL (   17651 calls)

     Called by h_psi:
     h_psi:calbec :     19.85s CPU     20.38s WALL (   21347 calls)
     vloc_psi     :     89.32s CPU     91.32s WALL (   21347 calls)
     add_vuspsi   :     17.07s CPU     17.19s WALL (   21347 calls)

     General routines
     calbec       :     27.06s CPU     27.75s WALL (   25379 calls)
     fft          :      0.87s CPU      0.94s WALL (     438 calls)
     ffts         :      0.14s CPU      0.14s WALL (      65 calls)
     fftw         :     90.28s CPU     92.30s WALL (  445856 calls)
     interpolate  :      0.16s CPU      0.17s WALL (      33 calls)

     Parallel routines

     PWSCF        :   4m27.16s CPU   4m31.90s WALL


   This run was terminated on:  20:46:45  24Jun2025            

=------------------------------------------------------------------------------=
   JOB DONE.
=------------------------------------------------------------------------------=
Note: The following floating-point exceptions are signalling: IEEE_INVALID_FLAG
