
     Program PWSCF v.7.2 starts on 24Jun2025 at 16: 5:35 

     This program is part of the open-source Quantum ESPRESSO suite
     for quantum simulation of materials; please cite
         "P. Giannozzi et al., J. Phys.:Condens. Matter 21 395502 (2009);
         "P. Giannozzi et al., J. Phys.:Condens. Matter 29 465901 (2017);
         "P. Giannozzi et al., J. Chem. Phys. 152 154105 (2020);
          URL http://www.quantum-espresso.org", 
     in publications or presentations arising from this work. More details at
     http://www.quantum-espresso.org/quote

     Parallel version (MPI), running on     8 processors

     MPI processes distributed on     1 nodes
     91143 MiB available memory on the printing compute node when the environment starts

     Reading input from /home/jvc/QEspresso7.2/ZnO_DataBase/scf_025_NOSYM.in/scf-5.93-1.74-0.25-1.in

     Current dimensions of program PWSCF are:
     Max number of different atomic species (ntypx) = 10
     Max number of k-points (npk) =  40000
     Max angular momentum in pseudopotentials (lmaxx) =  4
     file Zn.upf: wavefunction(s)  3D renormalized

     R & G space division:  proc/nbgrp/npool/nimage =       8
     Subspace diagonalization in iterative solution of the eigenvalue problem:
     a serial algorithm will be used


     Parallelization info
     --------------------
     sticks:   dense  smooth     PW     G-vecs:    dense   smooth      PW
     Min         119      62     18                 4887     1734     288
     Max         120      63     19                 4898     1737     293
     Sum         955     499    151                39127    13885    2333

     Using Slab Decomposition



     bravais-lattice index     =            0
     lattice parameter (alat)  =       5.9317  a.u.
     unit-cell volume          =     289.1886 (a.u.)^3
     number of atoms/cell      =            4
     number of atomic types    =            2
     number of electrons       =        36.00
     number of Kohn-Sham states=           18
     kinetic-energy cutoff     =      50.0000  Ry
     charge density cutoff     =     400.0000  Ry
     scf convergence threshold =      1.0E-08
     mixing beta               =       0.3000
     number of iterations used =            8  plain     mixing
     Exchange-correlation= PBE
                           (   1   4   3   4   0   0   0)

     celldm(1)=   5.931669  celldm(2)=   0.000000  celldm(3)=   0.000000
     celldm(4)=   0.000000  celldm(5)=   0.000000  celldm(6)=   0.000000

     crystal axes: (cart. coord. in units of alat)
               a(1) = (   1.000000   0.000000   0.000000 )  
               a(2) = (  -0.500000   0.866025   0.000000 )  
               a(3) = (   0.000000   0.000000   1.600000 )  

     reciprocal axes: (cart. coord. in units 2 pi/alat)
               b(1) = (  1.000000  0.577350 -0.000000 )  
               b(2) = (  0.000000  1.154701  0.000000 )  
               b(3) = (  0.000000 -0.000000  0.625000 )  


     PseudoPot. # 1 for Zn read from file:
     ./pseudos/Zn.upf
     MD5 check sum: 7f56cabf9682ed8c977c2f7d0c5985c5
     Pseudo is Ultrasoft + core correction, Zval = 12.0
     Generated using &quot;atomic&quot; code by A. Dal Corso  v.6.2.2
     Using radial grid of 1201 points,  6 beta functions with: 
                l(1) =   0
                l(2) =   0
                l(3) =   1
                l(4) =   1
                l(5) =   2
                l(6) =   2
     Q(r) pseudized with 0 coefficients 


     PseudoPot. # 2 for O  read from file:
     ./pseudos/O.upf
     MD5 check sum: 91400c9766925bcf19f520983a725ff0
     Pseudo is Ultrasoft + core correction, Zval =  6.0
     Generated using &quot;atomic&quot; code by A. Dal Corso  v.6.3MaX
     Using radial grid of 1095 points,  4 beta functions with: 
                l(1) =   0
                l(2) =   0
                l(3) =   1
                l(4) =   1
     Q(r) pseudized with 0 coefficients 


     atomic species   valence    mass     pseudopotential
        Zn            12.00    63.38000     Zn( 1.00)
        O              6.00    15.99900     O ( 1.00)

     No symmetry found



   Cartesian axes

     site n.     atom                  positions (alat units)
         1           Zn  tau(   1) = (   0.7004991   0.1938954   0.5218089  )
         2           Zn  tau(   2) = (   0.1712023   0.6460636   0.0370074  )
         3           O   tau(   3) = (   0.6778002   0.3510599   1.0949126  )
         4           O   tau(   4) = (   0.2272114   0.3613643   0.4312930  )

     number of k points=   112

     Number of k-points >= 100: set verbosity='high' to print them.

     Dense  grid:    39127 G-vectors     FFT dimensions: (  40,  40,  64)

     Smooth grid:    13885 G-vectors     FFT dimensions: (  27,  27,  45)

     Estimated max dynamical RAM per process >      27.34 MB

     Estimated total dynamical RAM >     218.72 MB

     Check: negative core charge=   -0.000002

     Initial potential from superposition of free atoms

     starting charge      35.9925, renormalised to      36.0000
     Starting wfcs are   26 randomized atomic wfcs

     total cpu time spent up to now is        3.8 secs

     Self-consistent Calculation

     iteration #  1     ecut=    50.00 Ry     beta= 0.30
     Davidson diagonalization with overlap
     ethr =  1.00E-02,  avg # of iterations =  2.0

     total cpu time spent up to now is        8.8 secs

     total energy              =    -360.75897696 Ry
     estimated scf accuracy    <       1.04292560 Ry

     iteration #  2     ecut=    50.00 Ry     beta= 0.30
     Davidson diagonalization with overlap
     ethr =  2.90E-03,  avg # of iterations =  5.2

     total cpu time spent up to now is       15.3 secs

     total energy              =    -360.96334703 Ry
     estimated scf accuracy    <       0.10128650 Ry

     iteration #  3     ecut=    50.00 Ry     beta= 0.30
     Davidson diagonalization with overlap
     c_bands:  2 eigenvalues not converged
     c_bands:  2 eigenvalues not converged
     ethr =  2.81E-04,  avg # of iterations =  6.0

     total cpu time spent up to now is       24.3 secs

     total energy              =    -361.01518350 Ry
     estimated scf accuracy    <       0.04755811 Ry

     iteration #  4     ecut=    50.00 Ry     beta= 0.30
     Davidson diagonalization with overlap
     ethr =  1.32E-04,  avg # of iterations =  5.0

     total cpu time spent up to now is       30.3 secs

     total energy              =    -361.02293021 Ry
     estimated scf accuracy    <       0.00732819 Ry

     iteration #  5     ecut=    50.00 Ry     beta= 0.30
     Davidson diagonalization with overlap
     ethr =  2.04E-05,  avg # of iterations =  5.0

     total cpu time spent up to now is       37.8 secs

     total energy              =    -361.02541487 Ry
     estimated scf accuracy    <       0.00216333 Ry

     iteration #  6     ecut=    50.00 Ry     beta= 0.30
     Davidson diagonalization with overlap
     ethr =  6.01E-06,  avg # of iterations =  3.1

     total cpu time spent up to now is       43.2 secs

     total energy              =    -361.02535301 Ry
     estimated scf accuracy    <       0.00068936 Ry

     iteration #  7     ecut=    50.00 Ry     beta= 0.30
     Davidson diagonalization with overlap
     c_bands:  1 eigenvalues not converged
     ethr =  1.91E-06,  avg # of iterations =  6.6

     total cpu time spent up to now is       52.9 secs

     total energy              =    -361.02586151 Ry
     estimated scf accuracy    <       0.00078441 Ry

     iteration #  8     ecut=    50.00 Ry     beta= 0.30
     Davidson diagonalization with overlap
     ethr =  1.91E-06,  avg # of iterations =  1.4

     total cpu time spent up to now is       57.4 secs

     total energy              =    -361.02550626 Ry
     estimated scf accuracy    <       0.00048598 Ry

     iteration #  9     ecut=    50.00 Ry     beta= 0.30
     Davidson diagonalization with overlap
     ethr =  1.35E-06,  avg # of iterations =  6.7

     total cpu time spent up to now is       67.7 secs

     total energy              =    -361.02589881 Ry
     estimated scf accuracy    <       0.00124645 Ry

     iteration # 10     ecut=    50.00 Ry     beta= 0.30
     Davidson diagonalization with overlap
     ethr =  1.35E-06,  avg # of iterations =  1.3

     total cpu time spent up to now is       72.2 secs

     total energy              =    -361.02558055 Ry
     estimated scf accuracy    <       0.00073990 Ry

     iteration # 11     ecut=    50.00 Ry     beta= 0.30
     Davidson diagonalization with overlap
     ethr =  1.35E-06,  avg # of iterations =  4.7

     total cpu time spent up to now is       80.2 secs

     total energy              =    -361.02582278 Ry
     estimated scf accuracy    <       0.00007903 Ry

     iteration # 12     ecut=    50.00 Ry     beta= 0.30
     Davidson diagonalization with overlap
     ethr =  2.20E-07,  avg # of iterations =  2.3

     total cpu time spent up to now is       85.2 secs

     total energy              =    -361.02580240 Ry
     estimated scf accuracy    <       0.00005622 Ry

     iteration # 13     ecut=    50.00 Ry     beta= 0.30
     Davidson diagonalization with overlap
     ethr =  1.56E-07,  avg # of iterations =  6.8

     total cpu time spent up to now is       92.4 secs

     total energy              =    -361.02582212 Ry
     estimated scf accuracy    <       0.00002238 Ry

     iteration # 14     ecut=    50.00 Ry     beta= 0.30
     Davidson diagonalization with overlap
     ethr =  6.22E-08,  avg # of iterations =  1.7

     total cpu time spent up to now is       96.9 secs

     total energy              =    -361.02582409 Ry
     estimated scf accuracy    <       0.00001914 Ry

     iteration # 15     ecut=    50.00 Ry     beta= 0.30
     Davidson diagonalization with overlap
     ethr =  5.32E-08,  avg # of iterations =  1.2

     total cpu time spent up to now is      101.3 secs

     total energy              =    -361.02582233 Ry
     estimated scf accuracy    <       0.00002182 Ry

     iteration # 16     ecut=    50.00 Ry     beta= 0.30
     Davidson diagonalization with overlap
     ethr =  5.32E-08,  avg # of iterations =  1.0

     total cpu time spent up to now is      105.6 secs

     total energy              =    -361.02581978 Ry
     estimated scf accuracy    <       0.00001797 Ry

     iteration # 17     ecut=    50.00 Ry     beta= 0.30
     Davidson diagonalization with overlap
     ethr =  4.99E-08,  avg # of iterations =  2.1

     total cpu time spent up to now is      110.4 secs

     total energy              =    -361.02582040 Ry
     estimated scf accuracy    <       0.00000716 Ry

     iteration # 18     ecut=    50.00 Ry     beta= 0.30
     Davidson diagonalization with overlap
     ethr =  1.99E-08,  avg # of iterations =  2.5

     total cpu time spent up to now is      115.3 secs

     total energy              =    -361.02581946 Ry
     estimated scf accuracy    <       0.00000511 Ry

     iteration # 19     ecut=    50.00 Ry     beta= 0.30
     Davidson diagonalization with overlap
     ethr =  1.42E-08,  avg # of iterations =  6.6

     total cpu time spent up to now is      121.6 secs

     total energy              =    -361.02582111 Ry
     estimated scf accuracy    <       0.00000089 Ry

     iteration # 20     ecut=    50.00 Ry     beta= 0.30
     Davidson diagonalization with overlap
     c_bands:  2 eigenvalues not converged
     c_bands:  1 eigenvalues not converged
     ethr =  2.47E-09,  avg # of iterations =  8.7

     total cpu time spent up to now is      130.4 secs

     total energy              =    -361.02581998 Ry
     estimated scf accuracy    <       0.00000871 Ry

     iteration # 21     ecut=    50.00 Ry     beta= 0.30
     Davidson diagonalization with overlap
     ethr =  2.47E-09,  avg # of iterations =  7.8

     total cpu time spent up to now is      138.3 secs

     total energy              =    -361.02582078 Ry
     estimated scf accuracy    <       0.00000042 Ry

     iteration # 22     ecut=    50.00 Ry     beta= 0.30
     Davidson diagonalization with overlap
     ethr =  1.18E-09,  avg # of iterations =  1.5

     total cpu time spent up to now is      142.7 secs

     total energy              =    -361.02582076 Ry
     estimated scf accuracy    <       0.00000037 Ry

     iteration # 23     ecut=    50.00 Ry     beta= 0.30
     Davidson diagonalization with overlap
     ethr =  1.02E-09,  avg # of iterations =  1.5

     total cpu time spent up to now is      147.2 secs

     total energy              =    -361.02582070 Ry
     estimated scf accuracy    <       0.00000025 Ry

     iteration # 24     ecut=    50.00 Ry     beta= 0.30
     Davidson diagonalization with overlap
     ethr =  6.95E-10,  avg # of iterations =  5.8

     total cpu time spent up to now is      153.3 secs

     End of self-consistent calculation

     Number of k-points >= 100: set verbosity='high' to print the bands.

     highest occupied level (ev):     9.9745

!    total energy              =    -361.02582076 Ry
     estimated scf accuracy    <          9.6E-09 Ry

     The total energy is the sum of the following terms:
     one-electron contribution =    -175.11904637 Ry
     hartree contribution      =     129.08309370 Ry
     xc contribution           =    -109.84146063 Ry
     ewald contribution        =    -205.14840747 Ry

     convergence has been achieved in  24 iterations

     Forces acting on atoms (cartesian axes, Ry/au):

     atom    1 type  1   force =     0.20294663   -0.02592393    0.32634094
     atom    2 type  1   force =    -0.05925824    0.16863675   -0.76185525
     atom    3 type  2   force =     0.00809260   -0.00504076    0.17907091
     atom    4 type  2   force =    -0.15178099   -0.13767206    0.25644341
     The non-local contrib.  to forces
     atom    1 type  1   force =     0.22490041   -0.48433525   -0.65324871
     atom    2 type  1   force =    -0.10079038    0.48574176   -0.08040145
     atom    3 type  2   force =     0.12822543   -0.30811854    0.03273606
     atom    4 type  2   force =    -0.00216117    0.17858775   -0.82534353
     The ionic contribution  to forces
     atom    1 type  1   force =     2.67928198   -0.84377922   15.59850316
     atom    2 type  1   force =    -1.13964951    2.09718811  -28.48116973
     atom    3 type  2   force =    -0.10843210    1.51617822    4.62773029
     atom    4 type  2   force =    -1.43120037   -2.76958710    8.25493628
     The local contribution  to forces
     atom    1 type  1   force =    -2.67095921    1.26426520  -14.61909196
     atom    2 type  1   force =     1.16905424   -2.36222879   27.71826727
     atom    3 type  2   force =    -0.01039238   -1.21597375   -4.47974818
     atom    4 type  2   force =     1.28081791    2.45414861   -7.17878823
     The core correction contribution to forces
     atom    1 type  1   force =    -0.03028710    0.03788933    0.00006004
     atom    2 type  1   force =     0.01213514   -0.05209610    0.08165868
     atom    3 type  2   force =    -0.00134508    0.00291816   -0.00164665
     atom    4 type  2   force =     0.00076334   -0.00080312    0.00553765
     The Hubbard contrib.    to forces
     atom    1 type  1   force =     0.00000000    0.00000000    0.00000000
     atom    2 type  1   force =     0.00000000    0.00000000    0.00000000
     atom    3 type  2   force =     0.00000000    0.00000000    0.00000000
     atom    4 type  2   force =     0.00000000    0.00000000    0.00000000
     The SCF correction term to forces
     atom    1 type  1   force =     0.00001059    0.00005589    0.00013188
     atom    2 type  1   force =    -0.00000769    0.00005165   -0.00019656
     atom    3 type  2   force =     0.00003678   -0.00002499    0.00001284
     atom    4 type  2   force =    -0.00000067    0.00000167    0.00011471

     Total force =     0.949022     Total SCF correction =     0.000278

     Writing all to output data dir ./ZnO_ANN.save/

     init_run     :      3.30s CPU      3.37s WALL (       1 calls)
     electrons    :    146.58s CPU    149.48s WALL (       1 calls)
     forces       :      1.01s CPU      1.02s WALL (       1 calls)

     Called by init_run:
     wfcinit      :      2.43s CPU      2.48s WALL (       1 calls)
     potinit      :      0.25s CPU      0.25s WALL (       1 calls)
     hinit0       :      0.52s CPU      0.54s WALL (       1 calls)

     Called by electrons:
     c_bands      :    128.55s CPU    131.01s WALL (      24 calls)
     sum_band     :     16.41s CPU     16.80s WALL (      24 calls)
     v_of_rho     :      0.34s CPU      0.37s WALL (      25 calls)
     newd         :      1.28s CPU      1.29s WALL (      25 calls)
     mix_rho      :      0.06s CPU      0.06s WALL (      24 calls)

     Called by c_bands:
     init_us_2    :      1.11s CPU      1.13s WALL (    5600 calls)
     init_us_2:cp :      1.09s CPU      1.11s WALL (    5600 calls)
     cegterg      :    125.06s CPU    127.46s WALL (    2688 calls)

     Called by *egterg:
     cdiaghg      :     14.51s CPU     14.64s WALL (   13493 calls)
     h_psi        :     77.20s CPU     79.01s WALL (   13605 calls)
     s_psi        :      8.86s CPU      8.94s WALL (   13605 calls)
     g_psi        :      0.22s CPU      0.22s WALL (   10805 calls)

     Called by h_psi:
     h_psi:calbec :      9.47s CPU      9.81s WALL (   13605 calls)
     vloc_psi     :     58.63s CPU     60.00s WALL (   13605 calls)
     add_vuspsi   :      8.85s CPU      8.94s WALL (   13605 calls)

     General routines
     calbec       :     13.27s CPU     13.73s WALL (   16741 calls)
     fft          :      0.47s CPU      0.50s WALL (     334 calls)
     ffts         :      0.08s CPU      0.08s WALL (      49 calls)
     fftw         :     61.69s CPU     63.13s WALL (  318004 calls)
     interpolate  :      0.09s CPU      0.09s WALL (      25 calls)

     Parallel routines

     PWSCF        :   2m31.62s CPU   2m34.75s WALL


   This run was terminated on:  16: 8: 9  24Jun2025            

=------------------------------------------------------------------------------=
   JOB DONE.
=------------------------------------------------------------------------------=
Note: The following floating-point exceptions are signalling: IEEE_INVALID_FLAG
