
     Program PWSCF v.7.2 starts on 24Jun2025 at 18:40: 0 

     This program is part of the open-source Quantum ESPRESSO suite
     for quantum simulation of materials; please cite
         "P. Giannozzi et al., J. Phys.:Condens. Matter 21 395502 (2009);
         "P. Giannozzi et al., J. Phys.:Condens. Matter 29 465901 (2017);
         "P. Giannozzi et al., J. Chem. Phys. 152 154105 (2020);
          URL http://www.quantum-espresso.org", 
     in publications or presentations arising from this work. More details at
     http://www.quantum-espresso.org/quote

     Parallel version (MPI), running on     8 processors

     MPI processes distributed on     1 nodes
     90861 MiB available memory on the printing compute node when the environment starts

     Reading input from /home/jvc/QEspresso7.2/ZnO_DataBase/scf_025_NOSYM.in/scf-6.43-1.74-0.25-2.in

     Current dimensions of program PWSCF are:
     Max number of different atomic species (ntypx) = 10
     Max number of k-points (npk) =  40000
     Max angular momentum in pseudopotentials (lmaxx) =  4
     file Zn.upf: wavefunction(s)  3D renormalized

     R & G space division:  proc/nbgrp/npool/nimage =       8
     Subspace diagonalization in iterative solution of the eigenvalue problem:
     a serial algorithm will be used


     Parallelization info
     --------------------
     sticks:   dense  smooth     PW     G-vecs:    dense   smooth      PW
     Min         143      71     20                 6229     2189     360
     Max         145      73     21                 6232     2190     367
     Sum        1147     571    163                49835    17513    2899

     Using Slab Decomposition



     bravais-lattice index     =            0
     lattice parameter (alat)  =       6.4260  a.u.
     unit-cell volume          =     367.6779 (a.u.)^3
     number of atoms/cell      =            4
     number of atomic types    =            2
     number of electrons       =        36.00
     number of Kohn-Sham states=           18
     kinetic-energy cutoff     =      50.0000  Ry
     charge density cutoff     =     400.0000  Ry
     scf convergence threshold =      1.0E-08
     mixing beta               =       0.3000
     number of iterations used =            8  plain     mixing
     Exchange-correlation= PBE
                           (   1   4   3   4   0   0   0)

     celldm(1)=   6.425974  celldm(2)=   0.000000  celldm(3)=   0.000000
     celldm(4)=   0.000000  celldm(5)=   0.000000  celldm(6)=   0.000000

     crystal axes: (cart. coord. in units of alat)
               a(1) = (   1.000000   0.000000   0.000000 )  
               a(2) = (  -0.500000   0.866025   0.000000 )  
               a(3) = (   0.000000   0.000000   1.600000 )  

     reciprocal axes: (cart. coord. in units 2 pi/alat)
               b(1) = (  1.000000  0.577350 -0.000000 )  
               b(2) = (  0.000000  1.154701  0.000000 )  
               b(3) = (  0.000000 -0.000000  0.625000 )  


     PseudoPot. # 1 for Zn read from file:
     ./pseudos/Zn.upf
     MD5 check sum: 7f56cabf9682ed8c977c2f7d0c5985c5
     Pseudo is Ultrasoft + core correction, Zval = 12.0
     Generated using &quot;atomic&quot; code by A. Dal Corso  v.6.2.2
     Using radial grid of 1201 points,  6 beta functions with: 
                l(1) =   0
                l(2) =   0
                l(3) =   1
                l(4) =   1
                l(5) =   2
                l(6) =   2
     Q(r) pseudized with 0 coefficients 


     PseudoPot. # 2 for O  read from file:
     ./pseudos/O.upf
     MD5 check sum: 91400c9766925bcf19f520983a725ff0
     Pseudo is Ultrasoft + core correction, Zval =  6.0
     Generated using &quot;atomic&quot; code by A. Dal Corso  v.6.3MaX
     Using radial grid of 1095 points,  4 beta functions with: 
                l(1) =   0
                l(2) =   0
                l(3) =   1
                l(4) =   1
     Q(r) pseudized with 0 coefficients 


     atomic species   valence    mass     pseudopotential
        Zn            12.00    63.38000     Zn( 1.00)
        O              6.00    15.99900     O ( 1.00)

     No symmetry found



   Cartesian axes

     site n.     atom                  positions (alat units)
         1           Zn  tau(   1) = (   0.5603011   0.3847576   0.8748788  )
         2           Zn  tau(   2) = (   0.2895049   0.4033269  -0.3384407  )
         3           O   tau(   3) = (   0.5385197   0.1896266   1.3063452  )
         4           O   tau(   4) = (   0.0652319   0.5974456   0.3296982  )

     number of k points=   112

     Number of k-points >= 100: set verbosity='high' to print them.

     Dense  grid:    49835 G-vectors     FFT dimensions: (  45,  45,  72)

     Smooth grid:    17513 G-vectors     FFT dimensions: (  30,  30,  48)

     Estimated max dynamical RAM per process >      34.06 MB

     Estimated total dynamical RAM >     272.46 MB

     Check: negative core charge=   -0.000003

     Initial potential from superposition of free atoms

     starting charge      35.9925, renormalised to      36.0000
     Starting wfcs are   26 randomized atomic wfcs

     total cpu time spent up to now is        4.4 secs

     Self-consistent Calculation

     iteration #  1     ecut=    50.00 Ry     beta= 0.30
     Davidson diagonalization with overlap
     ethr =  1.00E-02,  avg # of iterations =  2.0

     total cpu time spent up to now is       10.4 secs

     total energy              =    -358.71367940 Ry
     estimated scf accuracy    <       1.80133501 Ry

     iteration #  2     ecut=    50.00 Ry     beta= 0.30
     Davidson diagonalization with overlap
     ethr =  5.00E-03,  avg # of iterations =  8.3

     total cpu time spent up to now is       18.8 secs

     total energy              =    -358.99194113 Ry
     estimated scf accuracy    <       1.18142900 Ry

     iteration #  3     ecut=    50.00 Ry     beta= 0.30
     Davidson diagonalization with overlap
     ethr =  3.28E-03,  avg # of iterations =  1.8

     total cpu time spent up to now is       24.2 secs

     total energy              =    -358.69054975 Ry
     estimated scf accuracy    <       0.57936447 Ry

     iteration #  4     ecut=    50.00 Ry     beta= 0.30
     Davidson diagonalization with overlap
     ethr =  1.61E-03,  avg # of iterations =  9.2

     total cpu time spent up to now is       36.4 secs

     total energy              =    -359.39110752 Ry
     estimated scf accuracy    <       2.73013684 Ry

     iteration #  5     ecut=    50.00 Ry     beta= 0.30
     Davidson diagonalization with overlap
     ethr =  1.61E-03,  avg # of iterations =  2.0

     total cpu time spent up to now is       42.0 secs

     total energy              =    -359.33472555 Ry
     estimated scf accuracy    <       1.85889653 Ry

     iteration #  6     ecut=    50.00 Ry     beta= 0.30
     Davidson diagonalization with overlap
     ethr =  1.61E-03,  avg # of iterations =  1.3

     total cpu time spent up to now is       47.1 secs

     total energy              =    -359.34799155 Ry
     estimated scf accuracy    <       1.60652406 Ry

     iteration #  7     ecut=    50.00 Ry     beta= 0.30
     Davidson diagonalization with overlap
     ethr =  1.61E-03,  avg # of iterations =  1.2

     total cpu time spent up to now is       52.1 secs

     total energy              =    -359.72198656 Ry
     estimated scf accuracy    <       1.47887116 Ry

     iteration #  8     ecut=    50.00 Ry     beta= 0.30
     Davidson diagonalization with overlap
     ethr =  1.61E-03,  avg # of iterations =  1.1

     total cpu time spent up to now is       57.2 secs

     total energy              =    -360.27447674 Ry
     estimated scf accuracy    <       2.13971524 Ry

     iteration #  9     ecut=    50.00 Ry     beta= 0.30
     Davidson diagonalization with overlap
     ethr =  1.61E-03,  avg # of iterations =  5.5

     total cpu time spent up to now is       64.7 secs

     total energy              =    -360.14836381 Ry
     estimated scf accuracy    <       4.65839834 Ry

     iteration # 10     ecut=    50.00 Ry     beta= 0.30
     Davidson diagonalization with overlap
     ethr =  1.61E-03,  avg # of iterations =  1.1

     total cpu time spent up to now is       69.8 secs

     total energy              =    -358.51088590 Ry
     estimated scf accuracy    <       4.31251446 Ry

     iteration # 11     ecut=    50.00 Ry     beta= 0.30
     Davidson diagonalization with overlap
     ethr =  1.61E-03,  avg # of iterations = 12.1

     total cpu time spent up to now is       81.1 secs

     total energy              =    -359.10276169 Ry
     estimated scf accuracy    <       1.12958272 Ry

     iteration # 12     ecut=    50.00 Ry     beta= 0.30
     Davidson diagonalization with overlap
     ethr =  1.61E-03,  avg # of iterations =  1.9

     total cpu time spent up to now is       86.6 secs

     total energy              =    -359.44777812 Ry
     estimated scf accuracy    <       0.71378379 Ry

     iteration # 13     ecut=    50.00 Ry     beta= 0.30
     Davidson diagonalization with overlap
     ethr =  1.61E-03,  avg # of iterations =  4.3

     total cpu time spent up to now is       92.9 secs

     total energy              =    -359.35902179 Ry
     estimated scf accuracy    <       2.17133447 Ry

     iteration # 14     ecut=    50.00 Ry     beta= 0.30
     Davidson diagonalization with overlap
     ethr =  1.61E-03,  avg # of iterations =  1.0

     total cpu time spent up to now is       97.9 secs

     total energy              =    -358.33898505 Ry
     estimated scf accuracy    <       1.96579118 Ry

     iteration # 15     ecut=    50.00 Ry     beta= 0.30
     Davidson diagonalization with overlap
     ethr =  1.61E-03,  avg # of iterations = 10.5

     total cpu time spent up to now is      110.0 secs

     total energy              =    -359.30563629 Ry
     estimated scf accuracy    <       3.06503551 Ry

     iteration # 16     ecut=    50.00 Ry     beta= 0.30
     Davidson diagonalization with overlap
     ethr =  1.61E-03,  avg # of iterations =  2.1

     total cpu time spent up to now is      115.9 secs

     total energy              =    -359.05970273 Ry
     estimated scf accuracy    <       1.89070348 Ry

     iteration # 17     ecut=    50.00 Ry     beta= 0.30
     Davidson diagonalization with overlap
     ethr =  1.61E-03,  avg # of iterations =  6.9

     total cpu time spent up to now is      123.3 secs

     total energy              =    -359.18690377 Ry
     estimated scf accuracy    <       0.37474118 Ry

     iteration # 18     ecut=    50.00 Ry     beta= 0.30
     Davidson diagonalization with overlap
     ethr =  1.04E-03,  avg # of iterations =  1.8

     total cpu time spent up to now is      128.6 secs

     total energy              =    -359.22381613 Ry
     estimated scf accuracy    <       0.30810349 Ry

     iteration # 19     ecut=    50.00 Ry     beta= 0.30
     Davidson diagonalization with overlap
     ethr =  8.56E-04,  avg # of iterations =  1.2

     total cpu time spent up to now is      133.7 secs

     total energy              =    -359.21504771 Ry
     estimated scf accuracy    <       0.33267274 Ry

     iteration # 20     ecut=    50.00 Ry     beta= 0.30
     Davidson diagonalization with overlap
     ethr =  8.56E-04,  avg # of iterations =  1.1

     total cpu time spent up to now is      138.7 secs

     total energy              =    -359.20742293 Ry
     estimated scf accuracy    <       0.29633658 Ry

     iteration # 21     ecut=    50.00 Ry     beta= 0.30
     Davidson diagonalization with overlap
     ethr =  8.23E-04,  avg # of iterations =  1.1

     total cpu time spent up to now is      143.7 secs

     total energy              =    -359.17792258 Ry
     estimated scf accuracy    <       0.25807485 Ry

     iteration # 22     ecut=    50.00 Ry     beta= 0.30
     Davidson diagonalization with overlap
     ethr =  7.17E-04,  avg # of iterations =  1.5

     total cpu time spent up to now is      148.9 secs

     total energy              =    -359.13353094 Ry
     estimated scf accuracy    <       0.16755771 Ry

     iteration # 23     ecut=    50.00 Ry     beta= 0.30
     Davidson diagonalization with overlap
     ethr =  4.65E-04,  avg # of iterations =  9.3

     total cpu time spent up to now is      157.6 secs

     total energy              =    -359.07572406 Ry
     estimated scf accuracy    <       0.47216709 Ry

     iteration # 24     ecut=    50.00 Ry     beta= 0.30
     Davidson diagonalization with overlap
     ethr =  4.65E-04,  avg # of iterations =  8.0

     total cpu time spent up to now is      166.5 secs

     total energy              =    -359.34163906 Ry
     estimated scf accuracy    <       0.26294906 Ry

     iteration # 25     ecut=    50.00 Ry     beta= 0.30
     Davidson diagonalization with overlap
     ethr =  4.65E-04,  avg # of iterations =  6.3

     total cpu time spent up to now is      174.3 secs

     total energy              =    -359.18322365 Ry
     estimated scf accuracy    <       0.99817098 Ry

     iteration # 26     ecut=    50.00 Ry     beta= 0.30
     Davidson diagonalization with overlap
     ethr =  4.65E-04,  avg # of iterations =  6.8

     total cpu time spent up to now is      181.6 secs

     total energy              =    -359.20062886 Ry
     estimated scf accuracy    <       0.29586173 Ry

     iteration # 27     ecut=    50.00 Ry     beta= 0.30
     Davidson diagonalization with overlap
     ethr =  4.65E-04,  avg # of iterations =  1.3

     total cpu time spent up to now is      186.6 secs

     total energy              =    -359.20198587 Ry
     estimated scf accuracy    <       0.24438685 Ry

     iteration # 28     ecut=    50.00 Ry     beta= 0.30
     Davidson diagonalization with overlap
     ethr =  4.65E-04,  avg # of iterations =  1.1

     total cpu time spent up to now is      191.6 secs

     total energy              =    -359.17590994 Ry
     estimated scf accuracy    <       0.22041283 Ry

     iteration # 29     ecut=    50.00 Ry     beta= 0.30
     Davidson diagonalization with overlap
     ethr =  4.65E-04,  avg # of iterations =  1.7

     total cpu time spent up to now is      196.8 secs

     total energy              =    -359.14620344 Ry
     estimated scf accuracy    <       0.14448245 Ry

     iteration # 30     ecut=    50.00 Ry     beta= 0.30
     Davidson diagonalization with overlap
     ethr =  4.01E-04,  avg # of iterations =  9.4

     total cpu time spent up to now is      205.1 secs

     total energy              =    -359.16041301 Ry
     estimated scf accuracy    <       0.27697693 Ry

     iteration # 31     ecut=    50.00 Ry     beta= 0.30
     Davidson diagonalization with overlap
     ethr =  4.01E-04,  avg # of iterations =  2.9

     total cpu time spent up to now is      210.8 secs

     total energy              =    -359.13943454 Ry
     estimated scf accuracy    <       0.11169635 Ry

     iteration # 32     ecut=    50.00 Ry     beta= 0.30
     Davidson diagonalization with overlap
     ethr =  3.10E-04,  avg # of iterations =  7.6

     total cpu time spent up to now is      219.1 secs

     total energy              =    -359.21277171 Ry
     estimated scf accuracy    <       0.24230228 Ry

     iteration # 33     ecut=    50.00 Ry     beta= 0.30
     Davidson diagonalization with overlap
     ethr =  3.10E-04,  avg # of iterations =  1.0

     total cpu time spent up to now is      224.0 secs

     total energy              =    -359.18425498 Ry
     estimated scf accuracy    <       0.20508952 Ry

     iteration # 34     ecut=    50.00 Ry     beta= 0.30
     Davidson diagonalization with overlap
     ethr =  3.10E-04,  avg # of iterations =  3.2

     total cpu time spent up to now is      229.8 secs

     total energy              =    -359.18523619 Ry
     estimated scf accuracy    <       0.07505171 Ry

     iteration # 35     ecut=    50.00 Ry     beta= 0.30
     Davidson diagonalization with overlap
     ethr =  2.08E-04,  avg # of iterations =  3.1

     total cpu time spent up to now is      235.5 secs

     total energy              =    -359.18822608 Ry
     estimated scf accuracy    <       0.03282424 Ry

     iteration # 36     ecut=    50.00 Ry     beta= 0.30
     Davidson diagonalization with overlap
     ethr =  9.12E-05,  avg # of iterations =  6.6

     total cpu time spent up to now is      242.3 secs

     total energy              =    -359.19533022 Ry
     estimated scf accuracy    <       0.00080232 Ry

     iteration # 37     ecut=    50.00 Ry     beta= 0.30
     Davidson diagonalization with overlap
     c_bands:  1 eigenvalues not converged
     c_bands:  2 eigenvalues not converged
     c_bands:  1 eigenvalues not converged
     ethr =  2.23E-06,  avg # of iterations =  9.1

     total cpu time spent up to now is      251.4 secs

     total energy              =    -359.19693633 Ry
     estimated scf accuracy    <       0.00226873 Ry

     iteration # 38     ecut=    50.00 Ry     beta= 0.30
     Davidson diagonalization with overlap
     ethr =  2.23E-06,  avg # of iterations =  1.5

     total cpu time spent up to now is      256.6 secs

     total energy              =    -359.19648194 Ry
     estimated scf accuracy    <       0.00302263 Ry

     iteration # 39     ecut=    50.00 Ry     beta= 0.30
     Davidson diagonalization with overlap
     ethr =  2.23E-06,  avg # of iterations =  5.2

     total cpu time spent up to now is      263.2 secs

     total energy              =    -359.19673645 Ry
     estimated scf accuracy    <       0.00094085 Ry

     iteration # 40     ecut=    50.00 Ry     beta= 0.30
     Davidson diagonalization with overlap
     ethr =  2.23E-06,  avg # of iterations =  1.1

     total cpu time spent up to now is      268.1 secs

     total energy              =    -359.19690117 Ry
     estimated scf accuracy    <       0.00099497 Ry

     iteration # 41     ecut=    50.00 Ry     beta= 0.30
     Davidson diagonalization with overlap
     c_bands:  2 eigenvalues not converged
     c_bands:  1 eigenvalues not converged
     ethr =  2.23E-06,  avg # of iterations =  8.0

     total cpu time spent up to now is      276.0 secs

     total energy              =    -359.19626148 Ry
     estimated scf accuracy    <       0.00580419 Ry

     iteration # 42     ecut=    50.00 Ry     beta= 0.30
     Davidson diagonalization with overlap
     ethr =  2.23E-06,  avg # of iterations =  7.8

     total cpu time spent up to now is      284.0 secs

     total energy              =    -359.19729006 Ry
     estimated scf accuracy    <       0.00085694 Ry

     iteration # 43     ecut=    50.00 Ry     beta= 0.30
     Davidson diagonalization with overlap
     c_bands:  2 eigenvalues not converged
     c_bands:  2 eigenvalues not converged
     c_bands:  2 eigenvalues not converged
     c_bands:  2 eigenvalues not converged
     c_bands:  1 eigenvalues not converged
     c_bands:  2 eigenvalues not converged
     c_bands:  2 eigenvalues not converged
     c_bands:  1 eigenvalues not converged
     c_bands:  1 eigenvalues not converged
     c_bands:  2 eigenvalues not converged
     c_bands:  2 eigenvalues not converged
     c_bands:  1 eigenvalues not converged
     c_bands:  1 eigenvalues not converged
     c_bands:  1 eigenvalues not converged
     c_bands:  1 eigenvalues not converged
     c_bands:  1 eigenvalues not converged
     c_bands:  1 eigenvalues not converged
     c_bands:  1 eigenvalues not converged
     c_bands:  1 eigenvalues not converged
     c_bands:  1 eigenvalues not converged
     c_bands:  1 eigenvalues not converged
     c_bands:  1 eigenvalues not converged
     c_bands:  1 eigenvalues not converged
     c_bands:  1 eigenvalues not converged
     c_bands:  1 eigenvalues not converged
     c_bands:  1 eigenvalues not converged
     c_bands:  1 eigenvalues not converged
     c_bands:  1 eigenvalues not converged
     c_bands:  1 eigenvalues not converged
     c_bands:  1 eigenvalues not converged
     c_bands:  1 eigenvalues not converged
     c_bands:  1 eigenvalues not converged
     c_bands:  1 eigenvalues not converged
     c_bands:  1 eigenvalues not converged
     ethr =  2.23E-06,  avg # of iterations = 17.2

     total cpu time spent up to now is      299.4 secs

     total energy              =    -359.20221068 Ry
     estimated scf accuracy    <       0.07657935 Ry

     iteration # 44     ecut=    50.00 Ry     beta= 0.30
     Davidson diagonalization with overlap
     ethr =  2.23E-06,  avg # of iterations =  2.9

     total cpu time spent up to now is      304.9 secs

     total energy              =    -359.19864425 Ry
     estimated scf accuracy    <       0.08150588 Ry

     iteration # 45     ecut=    50.00 Ry     beta= 0.30
     Davidson diagonalization with overlap
     c_bands:  1 eigenvalues not converged
     c_bands:  1 eigenvalues not converged
     c_bands:  1 eigenvalues not converged
     c_bands:  1 eigenvalues not converged
     ethr =  2.23E-06,  avg # of iterations =  9.0

     total cpu time spent up to now is      313.9 secs

     total energy              =    -359.19787818 Ry
     estimated scf accuracy    <       0.03937276 Ry

     iteration # 46     ecut=    50.00 Ry     beta= 0.30
     Davidson diagonalization with overlap
     ethr =  2.23E-06,  avg # of iterations =  3.7

     total cpu time spent up to now is      319.9 secs

     total energy              =    -359.19757853 Ry
     estimated scf accuracy    <       0.03076581 Ry

     iteration # 47     ecut=    50.00 Ry     beta= 0.30
     Davidson diagonalization with overlap
     ethr =  2.23E-06,  avg # of iterations =  6.5

     total cpu time spent up to now is      326.9 secs

     total energy              =    -359.19233847 Ry
     estimated scf accuracy    <       0.02040139 Ry

     iteration # 48     ecut=    50.00 Ry     beta= 0.30
     Davidson diagonalization with overlap
     c_bands:  2 eigenvalues not converged
     c_bands:  2 eigenvalues not converged
     c_bands:  2 eigenvalues not converged
     c_bands:  3 eigenvalues not converged
     c_bands:  1 eigenvalues not converged
     c_bands:  1 eigenvalues not converged
     c_bands:  1 eigenvalues not converged
     c_bands:  1 eigenvalues not converged
     c_bands:  2 eigenvalues not converged
     c_bands:  2 eigenvalues not converged
     c_bands:  2 eigenvalues not converged
     c_bands:  1 eigenvalues not converged
     c_bands:  1 eigenvalues not converged
     c_bands:  2 eigenvalues not converged
     c_bands:  2 eigenvalues not converged
     c_bands:  1 eigenvalues not converged
     c_bands:  1 eigenvalues not converged
     c_bands:  1 eigenvalues not converged
     c_bands:  1 eigenvalues not converged
     c_bands:  1 eigenvalues not converged
     c_bands:  1 eigenvalues not converged
     ethr =  2.23E-06,  avg # of iterations = 14.4

     total cpu time spent up to now is      339.7 secs

     total energy              =    -359.19551730 Ry
     estimated scf accuracy    <       0.00632639 Ry

     iteration # 49     ecut=    50.00 Ry     beta= 0.30
     Davidson diagonalization with overlap
     c_bands:  1 eigenvalues not converged
     c_bands:  1 eigenvalues not converged
     c_bands:  1 eigenvalues not converged
     ethr =  2.23E-06,  avg # of iterations =  8.5

     total cpu time spent up to now is      348.8 secs

     total energy              =    -359.19644153 Ry
     estimated scf accuracy    <       0.00014771 Ry

     iteration # 50     ecut=    50.00 Ry     beta= 0.30
     Davidson diagonalization with overlap
     ethr =  4.10E-07,  avg # of iterations =  5.7

     total cpu time spent up to now is      355.7 secs

     total energy              =    -359.19652722 Ry
     estimated scf accuracy    <       0.00005445 Ry

     iteration # 51     ecut=    50.00 Ry     beta= 0.30
     Davidson diagonalization with overlap
     c_bands:  1 eigenvalues not converged
     c_bands:  2 eigenvalues not converged
     c_bands:  1 eigenvalues not converged
     ethr =  1.51E-07,  avg # of iterations =  8.7

     total cpu time spent up to now is      364.8 secs

     total energy              =    -359.19651693 Ry
     estimated scf accuracy    <       0.00050018 Ry

     iteration # 52     ecut=    50.00 Ry     beta= 0.30
     Davidson diagonalization with overlap
     ethr =  1.51E-07,  avg # of iterations =  7.8

     total cpu time spent up to now is      372.3 secs

     total energy              =    -359.19652379 Ry
     estimated scf accuracy    <       0.00013423 Ry

     iteration # 53     ecut=    50.00 Ry     beta= 0.30
     Davidson diagonalization with overlap
     ethr =  1.51E-07,  avg # of iterations =  3.2

     total cpu time spent up to now is      377.9 secs

     total energy              =    -359.19652250 Ry
     estimated scf accuracy    <       0.00008768 Ry

     iteration # 54     ecut=    50.00 Ry     beta= 0.30
     Davidson diagonalization with overlap
     ethr =  1.51E-07,  avg # of iterations =  1.4

     total cpu time spent up to now is      383.0 secs

     total energy              =    -359.19651558 Ry
     estimated scf accuracy    <       0.00006814 Ry

     iteration # 55     ecut=    50.00 Ry     beta= 0.30
     Davidson diagonalization with overlap
     ethr =  1.51E-07,  avg # of iterations =  2.0

     total cpu time spent up to now is      388.4 secs

     total energy              =    -359.19650682 Ry
     estimated scf accuracy    <       0.00004016 Ry

     iteration # 56     ecut=    50.00 Ry     beta= 0.30
     Davidson diagonalization with overlap
     ethr =  1.12E-07,  avg # of iterations =  9.0

     total cpu time spent up to now is      396.7 secs

     total energy              =    -359.19652362 Ry
     estimated scf accuracy    <       0.00005839 Ry

     iteration # 57     ecut=    50.00 Ry     beta= 0.30
     Davidson diagonalization with overlap
     ethr =  1.12E-07,  avg # of iterations =  1.0

     total cpu time spent up to now is      401.6 secs

     total energy              =    -359.19651627 Ry
     estimated scf accuracy    <       0.00004876 Ry

     iteration # 58     ecut=    50.00 Ry     beta= 0.30
     Davidson diagonalization with overlap
     ethr =  1.12E-07,  avg # of iterations =  2.6

     total cpu time spent up to now is      407.3 secs

     total energy              =    -359.19651694 Ry
     estimated scf accuracy    <       0.00001290 Ry

     iteration # 59     ecut=    50.00 Ry     beta= 0.30
     Davidson diagonalization with overlap
     ethr =  3.58E-08,  avg # of iterations =  8.3

     total cpu time spent up to now is      415.4 secs

     total energy              =    -359.19652245 Ry
     estimated scf accuracy    <       0.00001534 Ry

     iteration # 60     ecut=    50.00 Ry     beta= 0.30
     Davidson diagonalization with overlap
     ethr =  3.58E-08,  avg # of iterations =  1.0

     total cpu time spent up to now is      420.3 secs

     total energy              =    -359.19652242 Ry
     estimated scf accuracy    <       0.00001231 Ry

     iteration # 61     ecut=    50.00 Ry     beta= 0.30
     Davidson diagonalization with overlap
     ethr =  3.42E-08,  avg # of iterations =  1.0

     total cpu time spent up to now is      425.2 secs

     total energy              =    -359.19651983 Ry
     estimated scf accuracy    <       0.00001160 Ry

     iteration # 62     ecut=    50.00 Ry     beta= 0.30
     Davidson diagonalization with overlap
     ethr =  3.22E-08,  avg # of iterations =  2.3

     total cpu time spent up to now is      430.7 secs

     total energy              =    -359.19651919 Ry
     estimated scf accuracy    <       0.00000370 Ry

     iteration # 63     ecut=    50.00 Ry     beta= 0.30
     Davidson diagonalization with overlap
     c_bands:  1 eigenvalues not converged
     c_bands:  2 eigenvalues not converged
     c_bands:  1 eigenvalues not converged
     c_bands:  2 eigenvalues not converged
     c_bands:  2 eigenvalues not converged
     c_bands:  1 eigenvalues not converged
     c_bands:  1 eigenvalues not converged
     ethr =  1.03E-08,  avg # of iterations =  9.5

     total cpu time spent up to now is      440.1 secs

     total energy              =    -359.19652207 Ry
     estimated scf accuracy    <       0.00003829 Ry

     iteration # 64     ecut=    50.00 Ry     beta= 0.30
     Davidson diagonalization with overlap
     ethr =  1.03E-08,  avg # of iterations =  5.6

     total cpu time spent up to now is      446.6 secs

     total energy              =    -359.19652678 Ry
     estimated scf accuracy    <       0.00001966 Ry

     iteration # 65     ecut=    50.00 Ry     beta= 0.30
     Davidson diagonalization with overlap
     ethr =  1.03E-08,  avg # of iterations =  5.7

     total cpu time spent up to now is      453.1 secs

     total energy              =    -359.19652564 Ry
     estimated scf accuracy    <       0.00005006 Ry

     iteration # 66     ecut=    50.00 Ry     beta= 0.30
     Davidson diagonalization with overlap
     ethr =  1.03E-08,  avg # of iterations =  1.0

     total cpu time spent up to now is      458.0 secs

     total energy              =    -359.19651304 Ry
     estimated scf accuracy    <       0.00004645 Ry

     iteration # 67     ecut=    50.00 Ry     beta= 0.30
     Davidson diagonalization with overlap
     c_bands:  1 eigenvalues not converged
     c_bands:  2 eigenvalues not converged
     c_bands:  2 eigenvalues not converged
     c_bands:  1 eigenvalues not converged
     c_bands:  1 eigenvalues not converged
     c_bands:  1 eigenvalues not converged
     c_bands:  1 eigenvalues not converged
     c_bands:  1 eigenvalues not converged
     c_bands:  2 eigenvalues not converged
     c_bands:  1 eigenvalues not converged
     c_bands:  1 eigenvalues not converged
     ethr =  1.03E-08,  avg # of iterations = 11.9

     total cpu time spent up to now is      468.8 secs

     total energy              =    -359.19652165 Ry
     estimated scf accuracy    <       0.00001860 Ry

     iteration # 68     ecut=    50.00 Ry     beta= 0.30
     Davidson diagonalization with overlap
     ethr =  1.03E-08,  avg # of iterations =  5.3

     total cpu time spent up to now is      475.2 secs

     total energy              =    -359.19652125 Ry
     estimated scf accuracy    <       0.00000832 Ry

     iteration # 69     ecut=    50.00 Ry     beta= 0.30
     Davidson diagonalization with overlap
     ethr =  1.03E-08,  avg # of iterations =  7.1

     total cpu time spent up to now is      482.4 secs

     total energy              =    -359.19652211 Ry
     estimated scf accuracy    <       0.00000042 Ry

     iteration # 70     ecut=    50.00 Ry     beta= 0.30
     Davidson diagonalization with overlap
     c_bands:  1 eigenvalues not converged
     c_bands:  2 eigenvalues not converged
     ethr =  1.17E-09,  avg # of iterations =  7.0

     total cpu time spent up to now is      489.9 secs

     total energy              =    -359.19652233 Ry
     estimated scf accuracy    <       0.00000018 Ry

     iteration # 71     ecut=    50.00 Ry     beta= 0.30
     Davidson diagonalization with overlap
     c_bands:  1 eigenvalues not converged
     ethr =  5.12E-10,  avg # of iterations =  5.8

     total cpu time spent up to now is      496.6 secs

     total energy              =    -359.19652237 Ry
     estimated scf accuracy    <       0.00000001 Ry

     iteration # 72     ecut=    50.00 Ry     beta= 0.30
     Davidson diagonalization with overlap
     c_bands:  2 eigenvalues not converged
     c_bands:  2 eigenvalues not converged
     c_bands:  1 eigenvalues not converged
     c_bands:  2 eigenvalues not converged
     c_bands:  1 eigenvalues not converged
     c_bands:  2 eigenvalues not converged
     c_bands:  1 eigenvalues not converged
     c_bands:  1 eigenvalues not converged
     c_bands:  1 eigenvalues not converged
     c_bands:  1 eigenvalues not converged
     ethr =  3.08E-11,  avg # of iterations = 11.5

     total cpu time spent up to now is      507.2 secs

     total energy              =    -359.19652238 Ry
     estimated scf accuracy    <       0.00000011 Ry

     iteration # 73     ecut=    50.00 Ry     beta= 0.30
     Davidson diagonalization with overlap
     c_bands:  1 eigenvalues not converged
     c_bands:  1 eigenvalues not converged
     c_bands:  1 eigenvalues not converged
     c_bands:  1 eigenvalues not converged
     ethr =  3.08E-11,  avg # of iterations =  9.4

     total cpu time spent up to now is      516.6 secs

     End of self-consistent calculation

     Number of k-points >= 100: set verbosity='high' to print the bands.

     highest occupied level (ev):     6.9039

!    total energy              =    -359.19652239 Ry
     estimated scf accuracy    <          7.3E-09 Ry

     The total energy is the sum of the following terms:
     one-electron contribution =    -250.15007750 Ry
     hartree contribution      =     160.83623616 Ry
     xc contribution           =    -110.07893316 Ry
     ewald contribution        =    -159.80374790 Ry

     convergence has been achieved in  73 iterations

     Forces acting on atoms (cartesian axes, Ry/au):

     atom    1 type  1   force =     0.69827045    0.09435669   -1.44908312
     atom    2 type  1   force =    -3.77078081    2.73201554    0.53014902
     atom    3 type  2   force =     3.06934829   -2.81207270    0.81367499
     atom    4 type  2   force =     0.00316207   -0.01429953    0.10525911
     The non-local contrib.  to forces
     atom    1 type  1   force =    -0.21146694    0.05996893    0.42565115
     atom    2 type  1   force =    -0.06529790    0.37849183   -0.73466794
     atom    3 type  2   force =    -0.49132830    0.65648332   -1.12283483
     atom    4 type  2   force =     0.06116759   -0.20189120    0.35433596
     The ionic contribution  to forces
     atom    1 type  1   force =    11.27070675    3.05232154  -37.61230128
     atom    2 type  1   force =   -29.15467934   16.27820669   20.06627900
     atom    3 type  2   force =    18.51503762  -19.86020867   17.58050941
     atom    4 type  2   force =    -0.63106503    0.52968043   -0.03448713
     The local contribution  to forces
     atom    1 type  1   force =   -10.31900035   -2.99445212   35.62729987
     atom    2 type  1   force =    25.15876778  -13.70429543  -18.79684915
     atom    3 type  2   force =   -14.94711562   16.38642719  -15.64909092
     atom    4 type  2   force =     0.57360073   -0.34425525   -0.21052191
     The core correction contribution to forces
     atom    1 type  1   force =    -0.04192771   -0.02347866    0.10993427
     atom    2 type  1   force =     0.29038613   -0.22036315   -0.00450151
     atom    3 type  2   force =    -0.00720808    0.00520305    0.00520691
     atom    4 type  2   force =    -0.00053732    0.00214899   -0.00398960
     The Hubbard contrib.    to forces
     atom    1 type  1   force =     0.00000000    0.00000000    0.00000000
     atom    2 type  1   force =     0.00000000    0.00000000    0.00000000
     atom    3 type  2   force =     0.00000000    0.00000000    0.00000000
     atom    4 type  2   force =     0.00000000    0.00000000    0.00000000
     The SCF correction term to forces
     atom    1 type  1   force =    -0.00003056   -0.00001335    0.00035791
     atom    2 type  1   force =     0.00005325   -0.00003474   -0.00008634
     atom    3 type  2   force =    -0.00002661    0.00001207   -0.00009054
     atom    4 type  2   force =     0.00000683    0.00000716   -0.00005316

     Total force =     6.523963     Total SCF correction =     0.000391

     Writing all to output data dir ./ZnO_ANN.save/

     init_run     :      3.88s CPU      3.97s WALL (       1 calls)
     electrons    :    504.01s CPU    512.19s WALL (       1 calls)
     forces       :      1.26s CPU      1.27s WALL (       1 calls)

     Called by init_run:
     wfcinit      :      2.77s CPU      2.82s WALL (       1 calls)
     potinit      :      0.38s CPU      0.38s WALL (       1 calls)
     hinit0       :      0.65s CPU      0.66s WALL (       1 calls)

     Called by electrons:
     c_bands      :    440.45s CPU    447.37s WALL (      73 calls)
     sum_band     :     57.27s CPU     58.36s WALL (      73 calls)
     v_of_rho     :      1.41s CPU      1.51s WALL (      74 calls)
     newd         :      4.56s CPU      4.61s WALL (      74 calls)
     mix_rho      :      0.24s CPU      0.26s WALL (      73 calls)

     Called by c_bands:
     init_us_2    :      3.86s CPU      3.92s WALL (   16576 calls)
     init_us_2:cp :      3.80s CPU      3.87s WALL (   16576 calls)
     cegterg      :    427.12s CPU    433.83s WALL (    8176 calls)

     Called by *egterg:
     cdiaghg      :     50.45s CPU     50.89s WALL (   50316 calls)
     h_psi        :    247.72s CPU    252.58s WALL (   50428 calls)
     s_psi        :     26.87s CPU     27.11s WALL (   50428 calls)
     g_psi        :      0.80s CPU      0.81s WALL (   42140 calls)

     Called by h_psi:
     h_psi:calbec :     34.65s CPU     35.55s WALL (   50428 calls)
     vloc_psi     :    185.25s CPU    188.99s WALL (   50428 calls)
     add_vuspsi   :     26.97s CPU     27.21s WALL (   50428 calls)

     General routines
     calbec       :     47.94s CPU     49.13s WALL (   59052 calls)
     fft          :      1.56s CPU      1.69s WALL (     971 calls)
     ffts         :      0.18s CPU      0.19s WALL (     147 calls)
     fftw         :    195.29s CPU    199.26s WALL (  928940 calls)
     interpolate  :      0.23s CPU      0.25s WALL (      74 calls)

     Parallel routines

     PWSCF        :   8m29.88s CPU   8m38.46s WALL


   This run was terminated on:  18:48:39  24Jun2025            

=------------------------------------------------------------------------------=
   JOB DONE.
=------------------------------------------------------------------------------=
Note: The following floating-point exceptions are signalling: IEEE_INVALID_FLAG
