
     Program PWSCF v.7.2 starts on 24Jun2025 at 15:11:35 

     This program is part of the open-source Quantum ESPRESSO suite
     for quantum simulation of materials; please cite
         "P. Giannozzi et al., J. Phys.:Condens. Matter 21 395502 (2009);
         "P. Giannozzi et al., J. Phys.:Condens. Matter 29 465901 (2017);
         "P. Giannozzi et al., J. Chem. Phys. 152 154105 (2020);
          URL http://www.quantum-espresso.org", 
     in publications or presentations arising from this work. More details at
     http://www.quantum-espresso.org/quote

     Parallel version (MPI), running on     8 processors

     MPI processes distributed on     1 nodes
     91252 MiB available memory on the printing compute node when the environment starts

     Reading input from /home/jvc/QEspresso7.2/ZnO_DataBase/scf_025_NOSYM.in/scf-5.81-1.45-0.25-3.in

     Current dimensions of program PWSCF are:
     Max number of different atomic species (ntypx) = 10
     Max number of k-points (npk) =  40000
     Max angular momentum in pseudopotentials (lmaxx) =  4
     file Zn.upf: wavefunction(s)  3D renormalized

     R & G space division:  proc/nbgrp/npool/nimage =       8
     Subspace diagonalization in iterative solution of the eigenvalue problem:
     a serial algorithm will be used


     Parallelization info
     --------------------
     sticks:   dense  smooth     PW     G-vecs:    dense   smooth      PW
     Min         116      57     18                 4582     1619     281
     Max         117      58     20                 4585     1622     284
     Sum         931     463    151                36665    12971    2261

     Using Slab Decomposition



     bravais-lattice index     =            0
     lattice parameter (alat)  =       5.8081  a.u.
     unit-cell volume          =     271.4883 (a.u.)^3
     number of atoms/cell      =            4
     number of atomic types    =            2
     number of electrons       =        36.00
     number of Kohn-Sham states=           18
     kinetic-energy cutoff     =      50.0000  Ry
     charge density cutoff     =     400.0000  Ry
     scf convergence threshold =      1.0E-08
     mixing beta               =       0.3000
     number of iterations used =            8  plain     mixing
     Exchange-correlation= PBE
                           (   1   4   3   4   0   0   0)

     celldm(1)=   5.808092  celldm(2)=   0.000000  celldm(3)=   0.000000
     celldm(4)=   0.000000  celldm(5)=   0.000000  celldm(6)=   0.000000

     crystal axes: (cart. coord. in units of alat)
               a(1) = (   1.000000   0.000000   0.000000 )  
               a(2) = (  -0.500000   0.866025   0.000000 )  
               a(3) = (   0.000000   0.000000   1.600000 )  

     reciprocal axes: (cart. coord. in units 2 pi/alat)
               b(1) = (  1.000000  0.577350 -0.000000 )  
               b(2) = (  0.000000  1.154701  0.000000 )  
               b(3) = (  0.000000 -0.000000  0.625000 )  


     PseudoPot. # 1 for Zn read from file:
     ./pseudos/Zn.upf
     MD5 check sum: 7f56cabf9682ed8c977c2f7d0c5985c5
     Pseudo is Ultrasoft + core correction, Zval = 12.0
     Generated using &quot;atomic&quot; code by A. Dal Corso  v.6.2.2
     Using radial grid of 1201 points,  6 beta functions with: 
                l(1) =   0
                l(2) =   0
                l(3) =   1
                l(4) =   1
                l(5) =   2
                l(6) =   2
     Q(r) pseudized with 0 coefficients 


     PseudoPot. # 2 for O  read from file:
     ./pseudos/O.upf
     MD5 check sum: 91400c9766925bcf19f520983a725ff0
     Pseudo is Ultrasoft + core correction, Zval =  6.0
     Generated using &quot;atomic&quot; code by A. Dal Corso  v.6.3MaX
     Using radial grid of 1095 points,  4 beta functions with: 
                l(1) =   0
                l(2) =   0
                l(3) =   1
                l(4) =   1
     Q(r) pseudized with 0 coefficients 


     atomic species   valence    mass     pseudopotential
        Zn            12.00    63.38000     Zn( 1.00)
        O              6.00    15.99900     O ( 1.00)

     No symmetry found



   Cartesian axes

     site n.     atom                  positions (alat units)
         1           Zn  tau(   1) = (   0.3297618   0.3502434   0.5061298  )
         2           Zn  tau(   2) = (  -0.2435429   0.6992468   0.3126285  )
         3           O   tau(   3) = (   0.5352539   0.4666459   1.7432493  )
         4           O   tau(   4) = (   0.0463895   0.5827337   0.4873174  )

     number of k points=   112

     Number of k-points >= 100: set verbosity='high' to print them.

     Dense  grid:    36665 G-vectors     FFT dimensions: (  40,  40,  60)

     Smooth grid:    12971 G-vectors     FFT dimensions: (  27,  27,  45)

     Estimated max dynamical RAM per process >      25.88 MB

     Estimated total dynamical RAM >     207.00 MB

     Check: negative core charge=   -0.000002

     Initial potential from superposition of free atoms

     starting charge      35.9925, renormalised to      36.0000
     Starting wfcs are   26 randomized atomic wfcs

     total cpu time spent up to now is        3.7 secs

     Self-consistent Calculation

     iteration #  1     ecut=    50.00 Ry     beta= 0.30
     Davidson diagonalization with overlap
     ethr =  1.00E-02,  avg # of iterations =  3.1

     total cpu time spent up to now is       10.5 secs

     total energy              =    -354.72212408 Ry
     estimated scf accuracy    <       2.44501070 Ry

     iteration #  2     ecut=    50.00 Ry     beta= 0.30
     Davidson diagonalization with overlap
     ethr =  6.79E-03,  avg # of iterations =  2.0

     total cpu time spent up to now is       15.7 secs

     total energy              =    -354.64429557 Ry
     estimated scf accuracy    <       0.53928394 Ry

     iteration #  3     ecut=    50.00 Ry     beta= 0.30
     Davidson diagonalization with overlap
     ethr =  1.50E-03,  avg # of iterations =  7.1

     total cpu time spent up to now is       25.4 secs

     total energy              =    -355.16816423 Ry
     estimated scf accuracy    <       0.57694508 Ry

     iteration #  4     ecut=    50.00 Ry     beta= 0.30
     Davidson diagonalization with overlap
     ethr =  1.50E-03,  avg # of iterations =  1.1

     total cpu time spent up to now is       29.7 secs

     total energy              =    -354.90392697 Ry
     estimated scf accuracy    <       0.48485991 Ry

     iteration #  5     ecut=    50.00 Ry     beta= 0.30
     Davidson diagonalization with overlap
     ethr =  1.35E-03,  avg # of iterations =  5.7

     total cpu time spent up to now is       36.2 secs

     total energy              =    -355.09676206 Ry
     estimated scf accuracy    <       0.03283053 Ry

     iteration #  6     ecut=    50.00 Ry     beta= 0.30
     Davidson diagonalization with overlap
     ethr =  9.12E-05,  avg # of iterations =  9.8

     total cpu time spent up to now is       51.2 secs

     total energy              =    -355.04520846 Ry
     estimated scf accuracy    <       0.69200259 Ry

     iteration #  7     ecut=    50.00 Ry     beta= 0.30
     Davidson diagonalization with overlap
     ethr =  9.12E-05,  avg # of iterations =  6.9

     total cpu time spent up to now is       61.9 secs

     total energy              =    -355.04045216 Ry
     estimated scf accuracy    <       0.14745186 Ry

     iteration #  8     ecut=    50.00 Ry     beta= 0.30
     Davidson diagonalization with overlap
     ethr =  9.12E-05,  avg # of iterations =  6.1

     total cpu time spent up to now is       69.6 secs

     total energy              =    -355.05196651 Ry
     estimated scf accuracy    <       0.01810127 Ry

     iteration #  9     ecut=    50.00 Ry     beta= 0.30
     Davidson diagonalization with overlap
     ethr =  5.03E-05,  avg # of iterations =  3.9

     total cpu time spent up to now is       75.0 secs

     total energy              =    -355.05185495 Ry
     estimated scf accuracy    <       0.00482715 Ry

     iteration # 10     ecut=    50.00 Ry     beta= 0.30
     Davidson diagonalization with overlap
     ethr =  1.34E-05,  avg # of iterations =  9.5

     total cpu time spent up to now is       84.7 secs

     total energy              =    -355.05508993 Ry
     estimated scf accuracy    <       0.00598539 Ry

     iteration # 11     ecut=    50.00 Ry     beta= 0.30
     Davidson diagonalization with overlap
     ethr =  1.34E-05,  avg # of iterations =  1.9

     total cpu time spent up to now is       89.4 secs

     total energy              =    -355.05413565 Ry
     estimated scf accuracy    <       0.00260268 Ry

     iteration # 12     ecut=    50.00 Ry     beta= 0.30
     Davidson diagonalization with overlap
     ethr =  7.23E-06,  avg # of iterations =  6.1

     total cpu time spent up to now is       96.6 secs

     total energy              =    -355.05524522 Ry
     estimated scf accuracy    <       0.00020168 Ry

     iteration # 13     ecut=    50.00 Ry     beta= 0.30
     Davidson diagonalization with overlap
     ethr =  5.60E-07,  avg # of iterations =  8.2

     total cpu time spent up to now is      106.9 secs

     total energy              =    -355.05558941 Ry
     estimated scf accuracy    <       0.00124766 Ry

     iteration # 14     ecut=    50.00 Ry     beta= 0.30
     Davidson diagonalization with overlap
     ethr =  5.60E-07,  avg # of iterations =  2.0

     total cpu time spent up to now is      111.6 secs

     total energy              =    -355.05547415 Ry
     estimated scf accuracy    <       0.00158385 Ry

     iteration # 15     ecut=    50.00 Ry     beta= 0.30
     Davidson diagonalization with overlap
     ethr =  5.60E-07,  avg # of iterations =  1.3

     total cpu time spent up to now is      116.0 secs

     total energy              =    -355.05533400 Ry
     estimated scf accuracy    <       0.00137538 Ry

     iteration # 16     ecut=    50.00 Ry     beta= 0.30
     Davidson diagonalization with overlap
     ethr =  5.60E-07,  avg # of iterations =  4.0

     total cpu time spent up to now is      121.8 secs

     total energy              =    -355.05536076 Ry
     estimated scf accuracy    <       0.00089924 Ry

     iteration # 17     ecut=    50.00 Ry     beta= 0.30
     Davidson diagonalization with overlap
     ethr =  5.60E-07,  avg # of iterations =  1.3

     total cpu time spent up to now is      126.2 secs

     total energy              =    -355.05541501 Ry
     estimated scf accuracy    <       0.00086158 Ry

     iteration # 18     ecut=    50.00 Ry     beta= 0.30
     Davidson diagonalization with overlap
     ethr =  5.60E-07,  avg # of iterations =  1.1

     total cpu time spent up to now is      130.5 secs

     total energy              =    -355.05512394 Ry
     estimated scf accuracy    <       0.00095525 Ry

     iteration # 19     ecut=    50.00 Ry     beta= 0.30
     Davidson diagonalization with overlap
     ethr =  5.60E-07,  avg # of iterations =  5.5

     total cpu time spent up to now is      136.9 secs

     total energy              =    -355.05508737 Ry
     estimated scf accuracy    <       0.00026327 Ry

     iteration # 20     ecut=    50.00 Ry     beta= 0.30
     Davidson diagonalization with overlap
     ethr =  5.60E-07,  avg # of iterations =  3.5

     total cpu time spent up to now is      142.8 secs

     total energy              =    -355.05509294 Ry
     estimated scf accuracy    <       0.00005416 Ry

     iteration # 21     ecut=    50.00 Ry     beta= 0.30
     Davidson diagonalization with overlap
     ethr =  1.50E-07,  avg # of iterations =  9.4

     total cpu time spent up to now is      153.8 secs

     total energy              =    -355.05513187 Ry
     estimated scf accuracy    <       0.00010136 Ry

     iteration # 22     ecut=    50.00 Ry     beta= 0.30
     Davidson diagonalization with overlap
     ethr =  1.50E-07,  avg # of iterations =  3.5

     total cpu time spent up to now is      159.3 secs

     total energy              =    -355.05512618 Ry
     estimated scf accuracy    <       0.00002149 Ry

     iteration # 23     ecut=    50.00 Ry     beta= 0.30
     Davidson diagonalization with overlap
     ethr =  5.97E-08,  avg # of iterations =  9.3

     total cpu time spent up to now is      169.5 secs

     total energy              =    -355.05513921 Ry
     estimated scf accuracy    <       0.00002814 Ry

     iteration # 24     ecut=    50.00 Ry     beta= 0.30
     Davidson diagonalization with overlap
     ethr =  5.97E-08,  avg # of iterations =  2.1

     total cpu time spent up to now is      174.4 secs

     total energy              =    -355.05513608 Ry
     estimated scf accuracy    <       0.00000812 Ry

     iteration # 25     ecut=    50.00 Ry     beta= 0.30
     Davidson diagonalization with overlap
     ethr =  2.26E-08,  avg # of iterations =  8.9

     total cpu time spent up to now is      184.6 secs

     total energy              =    -355.05514121 Ry
     estimated scf accuracy    <       0.00000977 Ry

     iteration # 26     ecut=    50.00 Ry     beta= 0.30
     Davidson diagonalization with overlap
     ethr =  2.26E-08,  avg # of iterations =  2.0

     total cpu time spent up to now is      189.4 secs

     total energy              =    -355.05514089 Ry
     estimated scf accuracy    <       0.00000309 Ry

     iteration # 27     ecut=    50.00 Ry     beta= 0.30
     Davidson diagonalization with overlap
     ethr =  8.60E-09,  avg # of iterations =  5.6

     total cpu time spent up to now is      196.2 secs

     End of self-consistent calculation

     Number of k-points >= 100: set verbosity='high' to print the bands.

     highest occupied level (ev):    13.3747

!    total energy              =    -355.05514197 Ry
     estimated scf accuracy    <          5.8E-09 Ry

     The total energy is the sum of the following terms:
     one-electron contribution =    -410.41660268 Ry
     hartree contribution      =     245.08212978 Ry
     xc contribution           =    -113.06761009 Ry
     ewald contribution        =     -76.65305897 Ry

     convergence has been achieved in  27 iterations

     Forces acting on atoms (cartesian axes, Ry/au):

     atom    1 type  1   force =     2.21042872   -2.74520456    2.06174124
     atom    2 type  1   force =    -0.92637948    4.11655245   -0.71973782
     atom    3 type  2   force =    -2.00486044   -2.51250365   -3.75796347
     atom    4 type  2   force =     0.72081121    1.14115577    2.41596005
     The non-local contrib.  to forces
     atom    1 type  1   force =     0.25237182   -0.66235621    0.26667463
     atom    2 type  1   force =     0.16435477    0.63013132    0.60005787
     atom    3 type  2   force =     0.16083264    0.15732336    0.63981558
     atom    4 type  2   force =    -0.21475748    0.23190100    0.22108216
     The ionic contribution  to forces
     atom    1 type  1   force =     7.49407165  -14.32385538   43.22089448
     atom    2 type  1   force =    -2.95707089   19.84822723  -21.15962596
     atom    3 type  2   force =    -7.18032150  -11.60788484  -44.92516325
     atom    4 type  2   force =     2.64332074    6.08351299   22.86389473
     The local contribution  to forces
     atom    1 type  1   force =    -5.37736029   12.01472382  -41.22153330
     atom    2 type  1   force =     1.80855964  -16.02163331   19.79261430
     atom    3 type  2   force =     5.01053904    8.93173359   40.51778699
     atom    4 type  2   force =    -1.70784915   -5.16814457  -20.65836787
     The core correction contribution to forces
     atom    1 type  1   force =    -0.15854624    0.22608566   -0.20411657
     atom    2 type  1   force =     0.05765162   -0.33993420    0.04745427
     atom    3 type  2   force =     0.00409136    0.00632496    0.00973298
     atom    4 type  2   force =     0.00010209   -0.00608367   -0.01051842
     The Hubbard contrib.    to forces
     atom    1 type  1   force =     0.00000000    0.00000000    0.00000000
     atom    2 type  1   force =     0.00000000    0.00000000    0.00000000
     atom    3 type  2   force =     0.00000000    0.00000000    0.00000000
     atom    4 type  2   force =     0.00000000    0.00000000    0.00000000
     The SCF correction term to forces
     atom    1 type  1   force =    -0.00010155    0.00022601   -0.00014807
     atom    2 type  1   force =     0.00013205   -0.00021012   -0.00020837
     atom    3 type  2   force =     0.00000468    0.00002774   -0.00010584
     atom    4 type  2   force =     0.00000168   -0.00000150   -0.00010062

     Total force =     8.191961     Total SCF correction =     0.000459

     Writing all to output data dir ./ZnO_ANN.save/

     init_run     :      3.18s CPU      3.25s WALL (       1 calls)
     electrons    :    188.73s CPU    192.52s WALL (       1 calls)
     forces       :      0.95s CPU      0.96s WALL (       1 calls)

     Called by init_run:
     wfcinit      :      2.35s CPU      2.40s WALL (       1 calls)
     potinit      :      0.23s CPU      0.23s WALL (       1 calls)
     hinit0       :      0.54s CPU      0.55s WALL (       1 calls)

     Called by electrons:
     c_bands      :    168.66s CPU    171.96s WALL (      27 calls)
     sum_band     :     18.38s CPU     18.82s WALL (      27 calls)
     v_of_rho     :      0.38s CPU      0.41s WALL (      28 calls)
     newd         :      1.27s CPU      1.29s WALL (      28 calls)
     mix_rho      :      0.07s CPU      0.07s WALL (      27 calls)

     Called by c_bands:
     init_us_2    :      1.21s CPU      1.23s WALL (    6272 calls)
     init_us_2:cp :      1.19s CPU      1.21s WALL (    6272 calls)
     cegterg      :    164.97s CPU    168.20s WALL (    3024 calls)

     Called by *egterg:
     cdiaghg      :     20.70s CPU     20.91s WALL (   17697 calls)
     h_psi        :    100.53s CPU    102.92s WALL (   17809 calls)
     s_psi        :     11.26s CPU     11.38s WALL (   17809 calls)
     g_psi        :      0.29s CPU      0.30s WALL (   14673 calls)

     Called by h_psi:
     h_psi:calbec :     11.72s CPU     12.16s WALL (   17809 calls)
     vloc_psi     :     77.22s CPU     79.06s WALL (   17809 calls)
     add_vuspsi   :     11.27s CPU     11.38s WALL (   17809 calls)

     General routines
     calbec       :     15.74s CPU     16.30s WALL (   21281 calls)
     fft          :      0.53s CPU      0.56s WALL (     373 calls)
     ffts         :      0.08s CPU      0.08s WALL (      55 calls)
     fftw         :     79.82s CPU     81.74s WALL (  404980 calls)
     interpolate  :      0.09s CPU      0.09s WALL (      28 calls)

     Parallel routines

     PWSCF        :   3m13.59s CPU   3m17.62s WALL


   This run was terminated on:  15:14:53  24Jun2025            

=------------------------------------------------------------------------------=
   JOB DONE.
=------------------------------------------------------------------------------=
Note: The following floating-point exceptions are signalling: IEEE_INVALID_FLAG
