
     Program PWSCF v.7.2 starts on 24Jun2025 at 20: 3:23 

     This program is part of the open-source Quantum ESPRESSO suite
     for quantum simulation of materials; please cite
         "P. Giannozzi et al., J. Phys.:Condens. Matter 21 395502 (2009);
         "P. Giannozzi et al., J. Phys.:Condens. Matter 29 465901 (2017);
         "P. Giannozzi et al., J. Chem. Phys. 152 154105 (2020);
          URL http://www.quantum-espresso.org", 
     in publications or presentations arising from this work. More details at
     http://www.quantum-espresso.org/quote

     Parallel version (MPI), running on     8 processors

     MPI processes distributed on     1 nodes
     90898 MiB available memory on the printing compute node when the environment starts

     Reading input from /home/jvc/QEspresso7.2/ZnO_DataBase/scf_025_NOSYM.in/scf-6.67-1.61-0.25-5.in

     Current dimensions of program PWSCF are:
     Max number of different atomic species (ntypx) = 10
     Max number of k-points (npk) =  40000
     Max angular momentum in pseudopotentials (lmaxx) =  4
     file Zn.upf: wavefunction(s)  3D renormalized

     R & G space division:  proc/nbgrp/npool/nimage =       8
     Subspace diagonalization in iterative solution of the eigenvalue problem:
     a serial algorithm will be used


     Parallelization info
     --------------------
     sticks:   dense  smooth     PW     G-vecs:    dense   smooth      PW
     Min         154      75     23                 6952     2457     407
     Max         155      78     24                 6957     2461     412
     Sum        1237     613    187                55639    19669    3273

     Using Slab Decomposition



     bravais-lattice index     =            0
     lattice parameter (alat)  =       6.6731  a.u.
     unit-cell volume          =     411.7549 (a.u.)^3
     number of atoms/cell      =            4
     number of atomic types    =            2
     number of electrons       =        36.00
     number of Kohn-Sham states=           18
     kinetic-energy cutoff     =      50.0000  Ry
     charge density cutoff     =     400.0000  Ry
     scf convergence threshold =      1.0E-08
     mixing beta               =       0.3000
     number of iterations used =            8  plain     mixing
     Exchange-correlation= PBE
                           (   1   4   3   4   0   0   0)

     celldm(1)=   6.673127  celldm(2)=   0.000000  celldm(3)=   0.000000
     celldm(4)=   0.000000  celldm(5)=   0.000000  celldm(6)=   0.000000

     crystal axes: (cart. coord. in units of alat)
               a(1) = (   1.000000   0.000000   0.000000 )  
               a(2) = (  -0.500000   0.866025   0.000000 )  
               a(3) = (   0.000000   0.000000   1.600000 )  

     reciprocal axes: (cart. coord. in units 2 pi/alat)
               b(1) = (  1.000000  0.577350 -0.000000 )  
               b(2) = (  0.000000  1.154701  0.000000 )  
               b(3) = (  0.000000 -0.000000  0.625000 )  


     PseudoPot. # 1 for Zn read from file:
     ./pseudos/Zn.upf
     MD5 check sum: 7f56cabf9682ed8c977c2f7d0c5985c5
     Pseudo is Ultrasoft + core correction, Zval = 12.0
     Generated using &quot;atomic&quot; code by A. Dal Corso  v.6.2.2
     Using radial grid of 1201 points,  6 beta functions with: 
                l(1) =   0
                l(2) =   0
                l(3) =   1
                l(4) =   1
                l(5) =   2
                l(6) =   2
     Q(r) pseudized with 0 coefficients 


     PseudoPot. # 2 for O  read from file:
     ./pseudos/O.upf
     MD5 check sum: 91400c9766925bcf19f520983a725ff0
     Pseudo is Ultrasoft + core correction, Zval =  6.0
     Generated using &quot;atomic&quot; code by A. Dal Corso  v.6.3MaX
     Using radial grid of 1095 points,  4 beta functions with: 
                l(1) =   0
                l(2) =   0
                l(3) =   1
                l(4) =   1
     Q(r) pseudized with 0 coefficients 


     atomic species   valence    mass     pseudopotential
        Zn            12.00    63.38000     Zn( 1.00)
        O              6.00    15.99900     O ( 1.00)

     No symmetry found



   Cartesian axes

     site n.     atom                  positions (alat units)
         1           Zn  tau(   1) = (   0.5410091   0.1757563   0.8579561  )
         2           Zn  tau(   2) = (  -0.0567171   0.5491481  -0.1885543  )
         3           O   tau(   3) = (   0.6634410   0.3575562   1.6117148  )
         4           O   tau(   4) = (   0.1261722   0.4207729   0.9925167  )

     number of k points=   112

     Number of k-points >= 100: set verbosity='high' to print them.

     Dense  grid:    55639 G-vectors     FFT dimensions: (  45,  45,  72)

     Smooth grid:    19669 G-vectors     FFT dimensions: (  32,  32,  50)

     Estimated max dynamical RAM per process >      37.53 MB

     Estimated total dynamical RAM >     300.20 MB

     Check: negative core charge=   -0.000002

     Initial potential from superposition of free atoms

     starting charge      35.9925, renormalised to      36.0000
     Starting wfcs are   26 randomized atomic wfcs

     total cpu time spent up to now is        4.5 secs

     Self-consistent Calculation

     iteration #  1     ecut=    50.00 Ry     beta= 0.30
     Davidson diagonalization with overlap
     ethr =  1.00E-02,  avg # of iterations =  2.0

     total cpu time spent up to now is       10.8 secs

     total energy              =    -360.78131345 Ry
     estimated scf accuracy    <       1.30004057 Ry

     iteration #  2     ecut=    50.00 Ry     beta= 0.30
     Davidson diagonalization with overlap
     ethr =  3.61E-03,  avg # of iterations =  2.6

     total cpu time spent up to now is       17.5 secs

     total energy              =    -360.87175800 Ry
     estimated scf accuracy    <       0.19499691 Ry

     iteration #  3     ecut=    50.00 Ry     beta= 0.30
     Davidson diagonalization with overlap
     ethr =  5.42E-04,  avg # of iterations = 10.5

     total cpu time spent up to now is       32.1 secs

     total energy              =    -361.05637742 Ry
     estimated scf accuracy    <       0.64984768 Ry

     iteration #  4     ecut=    50.00 Ry     beta= 0.30
     Davidson diagonalization with overlap
     ethr =  5.42E-04,  avg # of iterations =  2.7

     total cpu time spent up to now is       38.4 secs

     total energy              =    -360.79728921 Ry
     estimated scf accuracy    <       0.33637489 Ry

     iteration #  5     ecut=    50.00 Ry     beta= 0.30
     Davidson diagonalization with overlap
     c_bands:  4 eigenvalues not converged
     c_bands:  3 eigenvalues not converged
     ethr =  5.42E-04,  avg # of iterations =  9.6

     total cpu time spent up to now is       58.6 secs

     total energy              =    -361.01138776 Ry
     estimated scf accuracy    <       1.61350181 Ry

     iteration #  6     ecut=    50.00 Ry     beta= 0.30
     Davidson diagonalization with overlap
     ethr =  5.42E-04,  avg # of iterations =  5.7

     total cpu time spent up to now is       68.7 secs

     total energy              =    -361.11732227 Ry
     estimated scf accuracy    <       0.30123955 Ry

     iteration #  7     ecut=    50.00 Ry     beta= 0.30
     Davidson diagonalization with overlap
     ethr =  5.42E-04,  avg # of iterations =  1.1

     total cpu time spent up to now is       74.1 secs

     total energy              =    -360.99793847 Ry
     estimated scf accuracy    <       0.28425243 Ry

     iteration #  8     ecut=    50.00 Ry     beta= 0.30
     Davidson diagonalization with overlap
     ethr =  5.42E-04,  avg # of iterations =  7.0

     total cpu time spent up to now is       82.8 secs

     total energy              =    -361.06954060 Ry
     estimated scf accuracy    <       0.06408122 Ry

     iteration #  9     ecut=    50.00 Ry     beta= 0.30
     Davidson diagonalization with overlap
     ethr =  1.78E-04,  avg # of iterations =  1.6

     total cpu time spent up to now is       88.4 secs

     total energy              =    -361.06090544 Ry
     estimated scf accuracy    <       0.04165148 Ry

     iteration # 10     ecut=    50.00 Ry     beta= 0.30
     Davidson diagonalization with overlap
     ethr =  1.16E-04,  avg # of iterations =  5.0

     total cpu time spent up to now is       95.8 secs

     total energy              =    -361.07052177 Ry
     estimated scf accuracy    <       0.00053752 Ry

     iteration # 11     ecut=    50.00 Ry     beta= 0.30
     Davidson diagonalization with overlap
     c_bands:  3 eigenvalues not converged
     c_bands:  4 eigenvalues not converged
     c_bands:  1 eigenvalues not converged
     c_bands:  2 eigenvalues not converged
     c_bands:  1 eigenvalues not converged
     c_bands:  1 eigenvalues not converged
     c_bands:  3 eigenvalues not converged
     ethr =  1.49E-06,  avg # of iterations = 13.2

     total cpu time spent up to now is      113.8 secs

     total energy              =    -361.07273576 Ry
     estimated scf accuracy    <       0.00791776 Ry

     iteration # 12     ecut=    50.00 Ry     beta= 0.30
     Davidson diagonalization with overlap
     ethr =  1.49E-06,  avg # of iterations =  6.2

     total cpu time spent up to now is      121.6 secs

     total energy              =    -361.07414609 Ry
     estimated scf accuracy    <       0.00397919 Ry

     iteration # 13     ecut=    50.00 Ry     beta= 0.30
     Davidson diagonalization with overlap
     ethr =  1.49E-06,  avg # of iterations =  7.8

     total cpu time spent up to now is      131.8 secs

     total energy              =    -361.07437080 Ry
     estimated scf accuracy    <       0.01154849 Ry

     iteration # 14     ecut=    50.00 Ry     beta= 0.30
     Davidson diagonalization with overlap
     ethr =  1.49E-06,  avg # of iterations =  1.1

     total cpu time spent up to now is      137.2 secs

     total energy              =    -361.07352052 Ry
     estimated scf accuracy    <       0.01139639 Ry

     iteration # 15     ecut=    50.00 Ry     beta= 0.30
     Davidson diagonalization with overlap
     ethr =  1.49E-06,  avg # of iterations =  3.0

     total cpu time spent up to now is      143.7 secs

     total energy              =    -361.07384135 Ry
     estimated scf accuracy    <       0.00886312 Ry

     iteration # 16     ecut=    50.00 Ry     beta= 0.30
     Davidson diagonalization with overlap
     ethr =  1.49E-06,  avg # of iterations =  1.0

     total cpu time spent up to now is      149.0 secs

     total energy              =    -361.07263541 Ry
     estimated scf accuracy    <       0.00915377 Ry

     iteration # 17     ecut=    50.00 Ry     beta= 0.30
     Davidson diagonalization with overlap
     ethr =  1.49E-06,  avg # of iterations =  7.1

     total cpu time spent up to now is      157.8 secs

     total energy              =    -361.07423943 Ry
     estimated scf accuracy    <       0.00348647 Ry

     iteration # 18     ecut=    50.00 Ry     beta= 0.30
     Davidson diagonalization with overlap
     c_bands:  1 eigenvalues not converged
     ethr =  1.49E-06,  avg # of iterations =  8.2

     total cpu time spent up to now is      168.6 secs

     total energy              =    -361.07050703 Ry
     estimated scf accuracy    <       0.01268325 Ry

     iteration # 19     ecut=    50.00 Ry     beta= 0.30
     Davidson diagonalization with overlap
     c_bands:  2 eigenvalues not converged
     c_bands:  2 eigenvalues not converged
     ethr =  1.49E-06,  avg # of iterations = 12.3

     total cpu time spent up to now is      185.9 secs

     total energy              =    -361.07232122 Ry
     estimated scf accuracy    <       0.00014710 Ry

     iteration # 20     ecut=    50.00 Ry     beta= 0.30
     Davidson diagonalization with overlap
     c_bands:  2 eigenvalues not converged
     c_bands:  1 eigenvalues not converged
     ethr =  4.09E-07,  avg # of iterations =  8.9

     total cpu time spent up to now is      197.4 secs

     total energy              =    -361.07225322 Ry
     estimated scf accuracy    <       0.00059716 Ry

     iteration # 21     ecut=    50.00 Ry     beta= 0.30
     Davidson diagonalization with overlap
     c_bands:  1 eigenvalues not converged
     c_bands:  1 eigenvalues not converged
     c_bands:  1 eigenvalues not converged
     ethr =  4.09E-07,  avg # of iterations =  7.5

     total cpu time spent up to now is      206.7 secs

     total energy              =    -361.07234444 Ry
     estimated scf accuracy    <       0.00001491 Ry

     iteration # 22     ecut=    50.00 Ry     beta= 0.30
     Davidson diagonalization with overlap
     c_bands:  1 eigenvalues not converged
     ethr =  4.14E-08,  avg # of iterations =  7.3

     total cpu time spent up to now is      216.4 secs

     total energy              =    -361.07234838 Ry
     estimated scf accuracy    <       0.00001964 Ry

     iteration # 23     ecut=    50.00 Ry     beta= 0.30
     Davidson diagonalization with overlap
     ethr =  4.14E-08,  avg # of iterations =  1.9

     total cpu time spent up to now is      222.2 secs

     total energy              =    -361.07234406 Ry
     estimated scf accuracy    <       0.00000954 Ry

     iteration # 24     ecut=    50.00 Ry     beta= 0.30
     Davidson diagonalization with overlap
     c_bands:  1 eigenvalues not converged
     ethr =  2.65E-08,  avg # of iterations =  8.4

     total cpu time spent up to now is      232.6 secs

     total energy              =    -361.07235013 Ry
     estimated scf accuracy    <       0.00001738 Ry

     iteration # 25     ecut=    50.00 Ry     beta= 0.30
     Davidson diagonalization with overlap
     ethr =  2.65E-08,  avg # of iterations =  1.3

     total cpu time spent up to now is      238.0 secs

     total energy              =    -361.07234829 Ry
     estimated scf accuracy    <       0.00001129 Ry

     iteration # 26     ecut=    50.00 Ry     beta= 0.30
     Davidson diagonalization with overlap
     ethr =  2.65E-08,  avg # of iterations =  4.0

     total cpu time spent up to now is      244.6 secs

     total energy              =    -361.07234945 Ry
     estimated scf accuracy    <       0.00000146 Ry

     iteration # 27     ecut=    50.00 Ry     beta= 0.30
     Davidson diagonalization with overlap
     c_bands:  2 eigenvalues not converged
     c_bands:  1 eigenvalues not converged
     ethr =  4.06E-09,  avg # of iterations =  6.3

     total cpu time spent up to now is      252.5 secs

     total energy              =    -361.07234999 Ry
     estimated scf accuracy    <       0.00000005 Ry

     iteration # 28     ecut=    50.00 Ry     beta= 0.30
     Davidson diagonalization with overlap
     c_bands:  1 eigenvalues not converged
     ethr =  1.30E-10,  avg # of iterations =  7.8

     total cpu time spent up to now is      263.9 secs

     total energy              =    -361.07235013 Ry
     estimated scf accuracy    <       0.00000021 Ry

     iteration # 29     ecut=    50.00 Ry     beta= 0.30
     Davidson diagonalization with overlap
     c_bands:  1 eigenvalues not converged
     ethr =  1.30E-10,  avg # of iterations =  9.0

     total cpu time spent up to now is      274.7 secs

     total energy              =    -361.07234992 Ry
     estimated scf accuracy    <       0.00000095 Ry

     iteration # 30     ecut=    50.00 Ry     beta= 0.30
     Davidson diagonalization with overlap
     c_bands:  2 eigenvalues not converged
     ethr =  1.30E-10,  avg # of iterations = 10.7

     total cpu time spent up to now is      288.5 secs

     total energy              =    -361.07235000 Ry
     estimated scf accuracy    <       0.00000006 Ry

     iteration # 31     ecut=    50.00 Ry     beta= 0.30
     Davidson diagonalization with overlap
     ethr =  1.30E-10,  avg # of iterations =  1.2

     total cpu time spent up to now is      293.9 secs

     total energy              =    -361.07235000 Ry
     estimated scf accuracy    <       0.00000004 Ry

     iteration # 32     ecut=    50.00 Ry     beta= 0.30
     Davidson diagonalization with overlap
     ethr =  1.24E-10,  avg # of iterations =  2.1

     total cpu time spent up to now is      299.9 secs

     total energy              =    -361.07234999 Ry
     estimated scf accuracy    <       0.00000002 Ry

     iteration # 33     ecut=    50.00 Ry     beta= 0.30
     Davidson diagonalization with overlap
     ethr =  6.60E-11,  avg # of iterations =  5.3

     total cpu time spent up to now is      307.0 secs

     End of self-consistent calculation

     Number of k-points >= 100: set verbosity='high' to print the bands.

     highest occupied level (ev):     5.1704

!    total energy              =    -361.07235000 Ry
     estimated scf accuracy    <          1.1E-09 Ry

     The total energy is the sum of the following terms:
     one-electron contribution =    -236.30949294 Ry
     hartree contribution      =     154.81636919 Ry
     xc contribution           =    -109.58701561 Ry
     ewald contribution        =    -169.99221063 Ry

     convergence has been achieved in  33 iterations

     Forces acting on atoms (cartesian axes, Ry/au):

     atom    1 type  1   force =     0.09683224   -0.04311058   -0.04383663
     atom    2 type  1   force =     0.63762090    0.50136507   -0.25877911
     atom    3 type  2   force =    -0.73446767   -0.48605455    0.53311673
     atom    4 type  2   force =     0.00001452    0.02780006   -0.23050099
     The non-local contrib.  to forces
     atom    1 type  1   force =     0.45896799   -0.31621594   -0.29036254
     atom    2 type  1   force =     0.71033727    0.80816083   -0.40707099
     atom    3 type  2   force =     0.68381622    0.45813468   -0.57764924
     atom    4 type  2   force =     0.18978437    0.18572273    0.06234205
     The ionic contribution  to forces
     atom    1 type  1   force =     3.10885000   -1.94603669  -20.05289096
     atom    2 type  1   force =     7.10158571    8.77586038   13.65260979
     atom    3 type  2   force =   -10.08166014   -6.55725824   16.61954850
     atom    4 type  2   force =    -0.12877557   -0.27256545  -10.21926733
     The local contribution  to forces
     atom    1 type  1   force =    -3.43684900    2.19871160   20.27440614
     atom    2 type  1   force =    -7.07923378   -8.97442327  -13.52885138
     atom    3 type  2   force =     8.66548454    5.61451949  -15.51076398
     atom    4 type  2   force =    -0.05911664    0.11667545    9.92517690
     The core correction contribution to forces
     atom    1 type  1   force =    -0.03415392    0.02044572    0.02504170
     atom    2 type  1   force =    -0.09502655   -0.10822181    0.02446042
     atom    3 type  2   force =    -0.00210777   -0.00145354    0.00196228
     atom    4 type  2   force =    -0.00187423   -0.00203862    0.00123546
     The Hubbard contrib.    to forces
     atom    1 type  1   force =     0.00000000    0.00000000    0.00000000
     atom    2 type  1   force =     0.00000000    0.00000000    0.00000000
     atom    3 type  2   force =     0.00000000    0.00000000    0.00000000
     atom    4 type  2   force =     0.00000000    0.00000000    0.00000000
     The SCF correction term to forces
     atom    1 type  1   force =     0.00001750   -0.00001834   -0.00003230
     atom    2 type  1   force =    -0.00004142   -0.00001412    0.00007173
     atom    3 type  2   force =    -0.00000019    0.00000001    0.00001785
     atom    4 type  2   force =    -0.00000308    0.00000287    0.00001060

     Total force =     1.360830     Total SCF correction =     0.000096

     Writing all to output data dir ./ZnO_ANN.save/

     init_run     :      3.99s CPU      4.08s WALL (       1 calls)
     electrons    :    297.38s CPU    302.46s WALL (       1 calls)
     forces       :      1.44s CPU      1.45s WALL (       1 calls)

     Called by init_run:
     wfcinit      :      2.91s CPU      2.96s WALL (       1 calls)
     potinit      :      0.37s CPU      0.38s WALL (       1 calls)
     hinit0       :      0.61s CPU      0.62s WALL (       1 calls)

     Called by electrons:
     c_bands      :    266.78s CPU    271.17s WALL (      33 calls)
     sum_band     :     27.38s CPU     27.98s WALL (      33 calls)
     v_of_rho     :      0.67s CPU      0.73s WALL (      34 calls)
     newd         :      2.45s CPU      2.48s WALL (      34 calls)
     mix_rho      :      0.12s CPU      0.13s WALL (      33 calls)

     Called by c_bands:
     init_us_2    :      2.17s CPU      2.21s WALL (    7616 calls)
     init_us_2:cp :      2.14s CPU      2.18s WALL (    7616 calls)
     cegterg      :    259.81s CPU    264.09s WALL (    3696 calls)

     Called by *egterg:
     cdiaghg      :     27.93s CPU     28.14s WALL (   24941 calls)
     h_psi        :    146.36s CPU    149.62s WALL (   25053 calls)
     s_psi        :     20.07s CPU     20.21s WALL (   25053 calls)
     g_psi        :      0.56s CPU      0.57s WALL (   21245 calls)

     Called by h_psi:
     h_psi:calbec :     21.92s CPU     22.57s WALL (   25053 calls)
     vloc_psi     :    103.90s CPU    106.35s WALL (   25053 calls)
     add_vuspsi   :     20.01s CPU     20.18s WALL (   25053 calls)

     General routines
     calbec       :     29.01s CPU     29.82s WALL (   29197 calls)
     fft          :      0.79s CPU      0.86s WALL (     451 calls)
     ffts         :      0.13s CPU      0.14s WALL (      67 calls)
     fftw         :    102.57s CPU    104.98s WALL (  507840 calls)
     interpolate  :      0.16s CPU      0.16s WALL (      34 calls)

     Parallel routines

     PWSCF        :   5m 3.58s CPU   5m 9.07s WALL


   This run was terminated on:  20: 8:33  24Jun2025            

=------------------------------------------------------------------------------=
   JOB DONE.
=------------------------------------------------------------------------------=
Note: The following floating-point exceptions are signalling: IEEE_INVALID_FLAG
