
     Program PWSCF v.7.2 starts on 24Jun2025 at 19:25:12 

     This program is part of the open-source Quantum ESPRESSO suite
     for quantum simulation of materials; please cite
         "P. Giannozzi et al., J. Phys.:Condens. Matter 21 395502 (2009);
         "P. Giannozzi et al., J. Phys.:Condens. Matter 29 465901 (2017);
         "P. Giannozzi et al., J. Chem. Phys. 152 154105 (2020);
          URL http://www.quantum-espresso.org", 
     in publications or presentations arising from this work. More details at
     http://www.quantum-espresso.org/quote

     Parallel version (MPI), running on     8 processors

     MPI processes distributed on     1 nodes
     90731 MiB available memory on the printing compute node when the environment starts

     Reading input from /home/jvc/QEspresso7.2/ZnO_DataBase/scf_025_NOSYM.in/scf-6.55-1.68-0.25-4.in

     Current dimensions of program PWSCF are:
     Max number of different atomic species (ntypx) = 10
     Max number of k-points (npk) =  40000
     Max angular momentum in pseudopotentials (lmaxx) =  4
     file Zn.upf: wavefunction(s)  3D renormalized

     R & G space division:  proc/nbgrp/npool/nimage =       8
     Subspace diagonalization in iterative solution of the eigenvalue problem:
     a serial algorithm will be used


     Parallelization info
     --------------------
     sticks:   dense  smooth     PW     G-vecs:    dense   smooth      PW
     Min         147      72     23                 6576     2326     385
     Max         148      73     24                 6577     2335     388
     Sum        1177     583    187                52615    18665    3091

     Using Slab Decomposition



     bravais-lattice index     =            0
     lattice parameter (alat)  =       6.5496  a.u.
     unit-cell volume          =     389.3007 (a.u.)^3
     number of atoms/cell      =            4
     number of atomic types    =            2
     number of electrons       =        36.00
     number of Kohn-Sham states=           18
     kinetic-energy cutoff     =      50.0000  Ry
     charge density cutoff     =     400.0000  Ry
     scf convergence threshold =      1.0E-08
     mixing beta               =       0.3000
     number of iterations used =            8  plain     mixing
     Exchange-correlation= PBE
                           (   1   4   3   4   0   0   0)

     celldm(1)=   6.549551  celldm(2)=   0.000000  celldm(3)=   0.000000
     celldm(4)=   0.000000  celldm(5)=   0.000000  celldm(6)=   0.000000

     crystal axes: (cart. coord. in units of alat)
               a(1) = (   1.000000   0.000000   0.000000 )  
               a(2) = (  -0.500000   0.866025   0.000000 )  
               a(3) = (   0.000000   0.000000   1.600000 )  

     reciprocal axes: (cart. coord. in units 2 pi/alat)
               b(1) = (  1.000000  0.577350 -0.000000 )  
               b(2) = (  0.000000  1.154701  0.000000 )  
               b(3) = (  0.000000 -0.000000  0.625000 )  


     PseudoPot. # 1 for Zn read from file:
     ./pseudos/Zn.upf
     MD5 check sum: 7f56cabf9682ed8c977c2f7d0c5985c5
     Pseudo is Ultrasoft + core correction, Zval = 12.0
     Generated using &quot;atomic&quot; code by A. Dal Corso  v.6.2.2
     Using radial grid of 1201 points,  6 beta functions with: 
                l(1) =   0
                l(2) =   0
                l(3) =   1
                l(4) =   1
                l(5) =   2
                l(6) =   2
     Q(r) pseudized with 0 coefficients 


     PseudoPot. # 2 for O  read from file:
     ./pseudos/O.upf
     MD5 check sum: 91400c9766925bcf19f520983a725ff0
     Pseudo is Ultrasoft + core correction, Zval =  6.0
     Generated using &quot;atomic&quot; code by A. Dal Corso  v.6.3MaX
     Using radial grid of 1095 points,  4 beta functions with: 
                l(1) =   0
                l(2) =   0
                l(3) =   1
                l(4) =   1
     Q(r) pseudized with 0 coefficients 


     atomic species   valence    mass     pseudopotential
        Zn            12.00    63.38000     Zn( 1.00)
        O              6.00    15.99900     O ( 1.00)

     No symmetry found



   Cartesian axes

     site n.     atom                  positions (alat units)
         1           Zn  tau(   1) = (   0.3472312   0.2727444   0.4482926  )
         2           Zn  tau(   2) = (   0.0403949   0.6226594   0.1884942  )
         3           O   tau(   3) = (   0.4147379   0.2194789   1.7966184  )
         4           O   tau(   4) = (   0.1806242   0.6925821   0.3029474  )

     number of k points=   112

     Number of k-points >= 100: set verbosity='high' to print them.

     Dense  grid:    52615 G-vectors     FFT dimensions: (  45,  45,  72)

     Smooth grid:    18665 G-vectors     FFT dimensions: (  30,  30,  48)

     Estimated max dynamical RAM per process >      35.72 MB

     Estimated total dynamical RAM >     285.77 MB

     Check: negative core charge=   -0.000002

     Initial potential from superposition of free atoms

     starting charge      35.9925, renormalised to      36.0000
     Starting wfcs are   26 randomized atomic wfcs

     total cpu time spent up to now is        4.5 secs

     Self-consistent Calculation

     iteration #  1     ecut=    50.00 Ry     beta= 0.30
     Davidson diagonalization with overlap
     ethr =  1.00E-02,  avg # of iterations =  5.4

     total cpu time spent up to now is       15.6 secs

     total energy              =    -340.95770843 Ry
     estimated scf accuracy    <       1.74384179 Ry

     iteration #  2     ecut=    50.00 Ry     beta= 0.30
     Davidson diagonalization with overlap
     ethr =  4.84E-03,  avg # of iterations =  2.9

     total cpu time spent up to now is       22.3 secs

     total energy              =    -340.97553106 Ry
     estimated scf accuracy    <       0.42214763 Ry

     iteration #  3     ecut=    50.00 Ry     beta= 0.30
     Davidson diagonalization with overlap
     ethr =  1.17E-03,  avg # of iterations =  9.8

     total cpu time spent up to now is       33.5 secs

     total energy              =    -341.27171759 Ry
     estimated scf accuracy    <       0.73522654 Ry

     iteration #  4     ecut=    50.00 Ry     beta= 0.30
     Davidson diagonalization with overlap
     ethr =  1.17E-03,  avg # of iterations =  1.1

     total cpu time spent up to now is       38.7 secs

     total energy              =    -340.89223898 Ry
     estimated scf accuracy    <       0.66723455 Ry

     iteration #  5     ecut=    50.00 Ry     beta= 0.30
     Davidson diagonalization with overlap
     ethr =  1.17E-03,  avg # of iterations = 10.5

     total cpu time spent up to now is       50.4 secs

     total energy              =    -341.23483719 Ry
     estimated scf accuracy    <       0.77174855 Ry

     iteration #  6     ecut=    50.00 Ry     beta= 0.30
     Davidson diagonalization with overlap
     ethr =  1.17E-03,  avg # of iterations =  1.1

     total cpu time spent up to now is       55.7 secs

     total energy              =    -341.06445952 Ry
     estimated scf accuracy    <       0.53104873 Ry

     iteration #  7     ecut=    50.00 Ry     beta= 0.30
     Davidson diagonalization with overlap
     ethr =  1.17E-03,  avg # of iterations =  5.2

     total cpu time spent up to now is       62.8 secs

     total energy              =    -341.13331071 Ry
     estimated scf accuracy    <       0.01647464 Ry

     iteration #  8     ecut=    50.00 Ry     beta= 0.30
     Davidson diagonalization with overlap
     c_bands:  1 eigenvalues not converged
     c_bands:  1 eigenvalues not converged
     c_bands:  1 eigenvalues not converged
     c_bands:  1 eigenvalues not converged
     c_bands:  1 eigenvalues not converged
     c_bands:  1 eigenvalues not converged
     c_bands:  1 eigenvalues not converged
     c_bands:  1 eigenvalues not converged
     c_bands:  1 eigenvalues not converged
     c_bands:  2 eigenvalues not converged
     c_bands:  1 eigenvalues not converged
     c_bands:  1 eigenvalues not converged
     c_bands:  1 eigenvalues not converged
     c_bands:  1 eigenvalues not converged
     c_bands:  2 eigenvalues not converged
     c_bands:  1 eigenvalues not converged
     c_bands:  2 eigenvalues not converged
     c_bands:  1 eigenvalues not converged
     c_bands:  1 eigenvalues not converged
     c_bands:  1 eigenvalues not converged
     c_bands:  1 eigenvalues not converged
     c_bands:  1 eigenvalues not converged
     c_bands:  1 eigenvalues not converged
     c_bands:  1 eigenvalues not converged
     c_bands:  1 eigenvalues not converged
     c_bands:  1 eigenvalues not converged
     c_bands:  1 eigenvalues not converged
     c_bands:  1 eigenvalues not converged
     ethr =  4.58E-05,  avg # of iterations = 15.3

     total cpu time spent up to now is       79.1 secs

     total energy              =    -341.16741987 Ry
     estimated scf accuracy    <       0.18161939 Ry

     iteration #  9     ecut=    50.00 Ry     beta= 0.30
     Davidson diagonalization with overlap
     c_bands:  1 eigenvalues not converged
     ethr =  4.58E-05,  avg # of iterations =  6.2

     total cpu time spent up to now is       86.6 secs

     total energy              =    -341.14161610 Ry
     estimated scf accuracy    <       0.07492691 Ry

     iteration # 10     ecut=    50.00 Ry     beta= 0.30
     Davidson diagonalization with overlap
     c_bands:  1 eigenvalues not converged
     c_bands:  1 eigenvalues not converged
     c_bands:  1 eigenvalues not converged
     c_bands:  1 eigenvalues not converged
     c_bands:  1 eigenvalues not converged
     c_bands:  1 eigenvalues not converged
     c_bands:  1 eigenvalues not converged
     c_bands:  1 eigenvalues not converged
     c_bands:  1 eigenvalues not converged
     c_bands:  1 eigenvalues not converged
     c_bands:  1 eigenvalues not converged
     c_bands:  1 eigenvalues not converged
     c_bands:  1 eigenvalues not converged
     c_bands:  1 eigenvalues not converged
     c_bands:  1 eigenvalues not converged
     c_bands:  1 eigenvalues not converged
     c_bands:  1 eigenvalues not converged
     ethr =  4.58E-05,  avg # of iterations = 14.7

     total cpu time spent up to now is      100.5 secs

     total energy              =    -341.17404791 Ry
     estimated scf accuracy    <       0.04782903 Ry

     iteration # 11     ecut=    50.00 Ry     beta= 0.30
     Davidson diagonalization with overlap
     ethr =  4.58E-05,  avg # of iterations =  1.8

     total cpu time spent up to now is      105.7 secs

     total energy              =    -341.17118061 Ry
     estimated scf accuracy    <       0.05216157 Ry

     iteration # 12     ecut=    50.00 Ry     beta= 0.30
     Davidson diagonalization with overlap
     ethr =  4.58E-05,  avg # of iterations =  1.1

     total cpu time spent up to now is      110.7 secs

     total energy              =    -341.16972529 Ry
     estimated scf accuracy    <       0.04261161 Ry

     iteration # 13     ecut=    50.00 Ry     beta= 0.30
     Davidson diagonalization with overlap
     ethr =  4.58E-05,  avg # of iterations =  1.1

     total cpu time spent up to now is      115.7 secs

     total energy              =    -341.16582151 Ry
     estimated scf accuracy    <       0.03690850 Ry

     iteration # 14     ecut=    50.00 Ry     beta= 0.30
     Davidson diagonalization with overlap
     ethr =  4.58E-05,  avg # of iterations =  2.5

     total cpu time spent up to now is      121.3 secs

     total energy              =    -341.16648257 Ry
     estimated scf accuracy    <       0.02062551 Ry

     iteration # 15     ecut=    50.00 Ry     beta= 0.30
     Davidson diagonalization with overlap
     ethr =  4.58E-05,  avg # of iterations =  1.0

     total cpu time spent up to now is      126.4 secs

     total energy              =    -341.16585815 Ry
     estimated scf accuracy    <       0.01883705 Ry

     iteration # 16     ecut=    50.00 Ry     beta= 0.30
     Davidson diagonalization with overlap
     ethr =  4.58E-05,  avg # of iterations =  1.1

     total cpu time spent up to now is      131.5 secs

     total energy              =    -341.16506998 Ry
     estimated scf accuracy    <       0.01539476 Ry

     iteration # 17     ecut=    50.00 Ry     beta= 0.30
     Davidson diagonalization with overlap
     ethr =  4.28E-05,  avg # of iterations =  1.3

     total cpu time spent up to now is      136.6 secs

     total energy              =    -341.16502224 Ry
     estimated scf accuracy    <       0.01151501 Ry

     iteration # 18     ecut=    50.00 Ry     beta= 0.30
     Davidson diagonalization with overlap
     ethr =  3.20E-05,  avg # of iterations =  2.6

     total cpu time spent up to now is      142.3 secs

     total energy              =    -341.16346198 Ry
     estimated scf accuracy    <       0.00679488 Ry

     iteration # 19     ecut=    50.00 Ry     beta= 0.30
     Davidson diagonalization with overlap
     ethr =  1.89E-05,  avg # of iterations =  9.2

     total cpu time spent up to now is      150.6 secs

     total energy              =    -341.16813229 Ry
     estimated scf accuracy    <       0.00939234 Ry

     iteration # 20     ecut=    50.00 Ry     beta= 0.30
     Davidson diagonalization with overlap
     ethr =  1.89E-05,  avg # of iterations =  1.1

     total cpu time spent up to now is      155.6 secs

     total energy              =    -341.16674840 Ry
     estimated scf accuracy    <       0.00992198 Ry

     iteration # 21     ecut=    50.00 Ry     beta= 0.30
     Davidson diagonalization with overlap
     ethr =  1.89E-05,  avg # of iterations =  1.8

     total cpu time spent up to now is      161.0 secs

     total energy              =    -341.16638716 Ry
     estimated scf accuracy    <       0.00595167 Ry

     iteration # 22     ecut=    50.00 Ry     beta= 0.30
     Davidson diagonalization with overlap
     ethr =  1.65E-05,  avg # of iterations =  1.0

     total cpu time spent up to now is      166.0 secs

     total energy              =    -341.16644201 Ry
     estimated scf accuracy    <       0.00449557 Ry

     iteration # 23     ecut=    50.00 Ry     beta= 0.30
     Davidson diagonalization with overlap
     ethr =  1.25E-05,  avg # of iterations =  1.6

     total cpu time spent up to now is      171.3 secs

     total energy              =    -341.16656107 Ry
     estimated scf accuracy    <       0.00394186 Ry

     iteration # 24     ecut=    50.00 Ry     beta= 0.30
     Davidson diagonalization with overlap
     ethr =  1.09E-05,  avg # of iterations =  1.4

     total cpu time spent up to now is      176.5 secs

     total energy              =    -341.16657246 Ry
     estimated scf accuracy    <       0.00362166 Ry

     iteration # 25     ecut=    50.00 Ry     beta= 0.30
     Davidson diagonalization with overlap
     ethr =  1.01E-05,  avg # of iterations =  1.3

     total cpu time spent up to now is      181.7 secs

     total energy              =    -341.16675205 Ry
     estimated scf accuracy    <       0.00336300 Ry

     iteration # 26     ecut=    50.00 Ry     beta= 0.30
     Davidson diagonalization with overlap
     ethr =  9.34E-06,  avg # of iterations =  1.2

     total cpu time spent up to now is      186.9 secs

     total energy              =    -341.16693906 Ry
     estimated scf accuracy    <       0.00347624 Ry

     iteration # 27     ecut=    50.00 Ry     beta= 0.30
     Davidson diagonalization with overlap
     ethr =  9.34E-06,  avg # of iterations =  1.2

     total cpu time spent up to now is      192.0 secs

     total energy              =    -341.16751703 Ry
     estimated scf accuracy    <       0.00353780 Ry

     iteration # 28     ecut=    50.00 Ry     beta= 0.30
     Davidson diagonalization with overlap
     ethr =  9.34E-06,  avg # of iterations =  1.1

     total cpu time spent up to now is      197.0 secs

     total energy              =    -341.16695496 Ry
     estimated scf accuracy    <       0.00499339 Ry

     iteration # 29     ecut=    50.00 Ry     beta= 0.30
     Davidson diagonalization with overlap
     ethr =  9.34E-06,  avg # of iterations =  1.1

     total cpu time spent up to now is      202.1 secs

     total energy              =    -341.16680307 Ry
     estimated scf accuracy    <       0.00374798 Ry

     iteration # 30     ecut=    50.00 Ry     beta= 0.30
     Davidson diagonalization with overlap
     ethr =  9.34E-06,  avg # of iterations =  1.1

     total cpu time spent up to now is      207.2 secs

     total energy              =    -341.16651052 Ry
     estimated scf accuracy    <       0.00306365 Ry

     iteration # 31     ecut=    50.00 Ry     beta= 0.30
     Davidson diagonalization with overlap
     ethr =  8.51E-06,  avg # of iterations =  2.1

     total cpu time spent up to now is      212.6 secs

     total energy              =    -341.16625443 Ry
     estimated scf accuracy    <       0.00172690 Ry

     iteration # 32     ecut=    50.00 Ry     beta= 0.30
     Davidson diagonalization with overlap
     ethr =  4.80E-06,  avg # of iterations =  8.1

     total cpu time spent up to now is      220.0 secs

     total energy              =    -341.16681674 Ry
     estimated scf accuracy    <       0.00041043 Ry

     iteration # 33     ecut=    50.00 Ry     beta= 0.30
     Davidson diagonalization with overlap
     ethr =  1.14E-06,  avg # of iterations =  3.6

     total cpu time spent up to now is      226.1 secs

     total energy              =    -341.16698344 Ry
     estimated scf accuracy    <       0.00044937 Ry

     iteration # 34     ecut=    50.00 Ry     beta= 0.30
     Davidson diagonalization with overlap
     ethr =  1.14E-06,  avg # of iterations =  1.9

     total cpu time spent up to now is      231.5 secs

     total energy              =    -341.16708693 Ry
     estimated scf accuracy    <       0.00075887 Ry

     iteration # 35     ecut=    50.00 Ry     beta= 0.30
     Davidson diagonalization with overlap
     ethr =  1.14E-06,  avg # of iterations =  2.5

     total cpu time spent up to now is      237.3 secs

     total energy              =    -341.16695802 Ry
     estimated scf accuracy    <       0.00121419 Ry

     iteration # 36     ecut=    50.00 Ry     beta= 0.30
     Davidson diagonalization with overlap
     ethr =  1.14E-06,  avg # of iterations =  1.2

     total cpu time spent up to now is      242.4 secs

     total energy              =    -341.16685049 Ry
     estimated scf accuracy    <       0.00090582 Ry

     iteration # 37     ecut=    50.00 Ry     beta= 0.30
     Davidson diagonalization with overlap
     ethr =  1.14E-06,  avg # of iterations =  2.2

     total cpu time spent up to now is      247.9 secs

     total energy              =    -341.16679108 Ry
     estimated scf accuracy    <       0.00048234 Ry

     iteration # 38     ecut=    50.00 Ry     beta= 0.30
     Davidson diagonalization with overlap
     ethr =  1.14E-06,  avg # of iterations =  4.9

     total cpu time spent up to now is      254.3 secs

     total energy              =    -341.16685901 Ry
     estimated scf accuracy    <       0.00002149 Ry

     iteration # 39     ecut=    50.00 Ry     beta= 0.30
     Davidson diagonalization with overlap
     c_bands:  1 eigenvalues not converged
     c_bands:  1 eigenvalues not converged
     c_bands:  1 eigenvalues not converged
     c_bands:  1 eigenvalues not converged
     c_bands:  1 eigenvalues not converged
     c_bands:  1 eigenvalues not converged
     c_bands:  1 eigenvalues not converged
     ethr =  5.97E-08,  avg # of iterations = 10.7

     total cpu time spent up to now is      263.9 secs

     total energy              =    -341.16689262 Ry
     estimated scf accuracy    <       0.00002836 Ry

     iteration # 40     ecut=    50.00 Ry     beta= 0.30
     Davidson diagonalization with overlap
     ethr =  5.97E-08,  avg # of iterations =  1.5

     total cpu time spent up to now is      269.1 secs

     total energy              =    -341.16689004 Ry
     estimated scf accuracy    <       0.00002119 Ry

     iteration # 41     ecut=    50.00 Ry     beta= 0.30
     Davidson diagonalization with overlap
     ethr =  5.89E-08,  avg # of iterations =  3.0

     total cpu time spent up to now is      275.0 secs

     total energy              =    -341.16688999 Ry
     estimated scf accuracy    <       0.00000617 Ry

     iteration # 42     ecut=    50.00 Ry     beta= 0.30
     Davidson diagonalization with overlap
     c_bands:  1 eigenvalues not converged
     ethr =  1.71E-08,  avg # of iterations =  9.0

     total cpu time spent up to now is      283.1 secs

     total energy              =    -341.16689187 Ry
     estimated scf accuracy    <       0.00000944 Ry

     iteration # 43     ecut=    50.00 Ry     beta= 0.30
     Davidson diagonalization with overlap
     ethr =  1.71E-08,  avg # of iterations =  8.5

     total cpu time spent up to now is      290.7 secs

     total energy              =    -341.16689474 Ry
     estimated scf accuracy    <       0.00000077 Ry

     iteration # 44     ecut=    50.00 Ry     beta= 0.30
     Davidson diagonalization with overlap
     c_bands:  1 eigenvalues not converged
     c_bands:  1 eigenvalues not converged
     c_bands:  1 eigenvalues not converged
     c_bands:  1 eigenvalues not converged
     c_bands:  1 eigenvalues not converged
     c_bands:  1 eigenvalues not converged
     c_bands:  1 eigenvalues not converged
     c_bands:  1 eigenvalues not converged
     c_bands:  1 eigenvalues not converged
     c_bands:  1 eigenvalues not converged
     c_bands:  1 eigenvalues not converged
     c_bands:  1 eigenvalues not converged
     c_bands:  1 eigenvalues not converged
     c_bands:  1 eigenvalues not converged
     ethr =  2.13E-09,  avg # of iterations = 14.7

     total cpu time spent up to now is      303.9 secs

     total energy              =    -341.16689425 Ry
     estimated scf accuracy    <       0.00002445 Ry

     iteration # 45     ecut=    50.00 Ry     beta= 0.30
     Davidson diagonalization with overlap
     c_bands:  1 eigenvalues not converged
     ethr =  2.13E-09,  avg # of iterations =  8.6

     total cpu time spent up to now is      312.1 secs

     total energy              =    -341.16689330 Ry
     estimated scf accuracy    <       0.00001010 Ry

     iteration # 46     ecut=    50.00 Ry     beta= 0.30
     Davidson diagonalization with overlap
     c_bands:  1 eigenvalues not converged
     ethr =  2.13E-09,  avg # of iterations =  8.8

     total cpu time spent up to now is      320.3 secs

     total energy              =    -341.16689338 Ry
     estimated scf accuracy    <       0.00000137 Ry

     iteration # 47     ecut=    50.00 Ry     beta= 0.30
     Davidson diagonalization with overlap
     ethr =  2.13E-09,  avg # of iterations =  8.1

     total cpu time spent up to now is      328.1 secs

     total energy              =    -341.16689379 Ry
     estimated scf accuracy    <       0.00000016 Ry

     iteration # 48     ecut=    50.00 Ry     beta= 0.30
     Davidson diagonalization with overlap
     c_bands:  1 eigenvalues not converged
     c_bands:  1 eigenvalues not converged
     c_bands:  1 eigenvalues not converged
     c_bands:  1 eigenvalues not converged
     c_bands:  1 eigenvalues not converged
     c_bands:  1 eigenvalues not converged
     c_bands:  1 eigenvalues not converged
     ethr =  4.51E-10,  avg # of iterations = 12.3

     total cpu time spent up to now is      339.7 secs

     total energy              =    -341.16689358 Ry
     estimated scf accuracy    <       0.00000219 Ry

     iteration # 49     ecut=    50.00 Ry     beta= 0.30
     Davidson diagonalization with overlap
     c_bands:  1 eigenvalues not converged
     c_bands:  1 eigenvalues not converged
     c_bands:  1 eigenvalues not converged
     ethr =  4.51E-10,  avg # of iterations =  8.9

     total cpu time spent up to now is      348.4 secs

     total energy              =    -341.16689368 Ry
     estimated scf accuracy    <       0.00000023 Ry

     iteration # 50     ecut=    50.00 Ry     beta= 0.30
     Davidson diagonalization with overlap
     ethr =  4.51E-10,  avg # of iterations =  1.8

     total cpu time spent up to now is      353.8 secs

     total energy              =    -341.16689362 Ry
     estimated scf accuracy    <       0.00000013 Ry

     iteration # 51     ecut=    50.00 Ry     beta= 0.30
     Davidson diagonalization with overlap
     c_bands:  1 eigenvalues not converged
     c_bands:  1 eigenvalues not converged
     c_bands:  1 eigenvalues not converged
     c_bands:  1 eigenvalues not converged
     c_bands:  1 eigenvalues not converged
     c_bands:  1 eigenvalues not converged
     ethr =  3.62E-10,  avg # of iterations = 11.3

     total cpu time spent up to now is      364.0 secs

     total energy              =    -341.16689371 Ry
     estimated scf accuracy    <       0.00000054 Ry

     iteration # 52     ecut=    50.00 Ry     beta= 0.30
     Davidson diagonalization with overlap
     ethr =  3.62E-10,  avg # of iterations =  1.5

     total cpu time spent up to now is      369.3 secs

     total energy              =    -341.16689365 Ry
     estimated scf accuracy    <       0.00000042 Ry

     iteration # 53     ecut=    50.00 Ry     beta= 0.30
     Davidson diagonalization with overlap
     ethr =  3.62E-10,  avg # of iterations =  7.8

     total cpu time spent up to now is      376.7 secs

     total energy              =    -341.16689369 Ry
     estimated scf accuracy    <       0.00000002 Ry

     iteration # 54     ecut=    50.00 Ry     beta= 0.30
     Davidson diagonalization with overlap
     ethr =  4.37E-11,  avg # of iterations =  5.9

     total cpu time spent up to now is      384.3 secs

     End of self-consistent calculation

     Number of k-points >= 100: set verbosity='high' to print the bands.

     highest occupied level (ev):     9.1175

!    total energy              =    -341.16689369 Ry
     estimated scf accuracy    <          1.2E-09 Ry

     The total energy is the sum of the following terms:
     one-electron contribution =    -510.29991627 Ry
     hartree contribution      =     285.22576444 Ry
     xc contribution           =    -114.30299888 Ry
     ewald contribution        =      -1.78974298 Ry

     convergence has been achieved in  54 iterations

     Forces acting on atoms (cartesian axes, Ry/au):

     atom    1 type  1   force =    -2.80261978    2.07664571   11.95771087
     atom    2 type  1   force =   -26.75581707  -13.25306233  -22.06795108
     atom    3 type  2   force =     2.96359924   -2.15724869  -11.43036071
     atom    4 type  2   force =    26.59483762   13.33366531   21.54060092
     The non-local contrib.  to forces
     atom    1 type  1   force =     0.03369861    0.16609946   -1.73866639
     atom    2 type  1   force =    11.38431689    5.57969056    9.59745938
     atom    3 type  2   force =    -0.26402027   -0.09975794    0.48852723
     atom    4 type  2   force =    -3.02056743   -1.90576647   -2.39009470
     The ionic contribution  to forces
     atom    1 type  1   force =    -5.78667668    1.47794467   73.31489487
     atom    2 type  1   force =   -66.53320865  -32.39992741  -73.63436118
     atom    3 type  2   force =    10.48626330   -3.57858328  -48.49556407
     atom    4 type  2   force =    61.83362204   34.50056602   48.81503037
     The local contribution  to forces
     atom    1 type  1   force =     2.82816037    0.51889257  -59.02686631
     atom    2 type  1   force =    27.54672496   13.16242414   41.26670926
     atom    3 type  2   force =    -7.25418687    1.51768870   36.55421215
     atom    4 type  2   force =   -32.16070064  -19.23394927  -24.83765854
     The core correction contribution to forces
     atom    1 type  1   force =     0.12219358   -0.08629987   -0.59167934
     atom    2 type  1   force =     0.84628409    0.40474550    0.70226385
     atom    3 type  2   force =    -0.00444297    0.00337761    0.02247144
     atom    4 type  2   force =    -0.05753797   -0.02717995   -0.04667645
     The Hubbard contrib.    to forces
     atom    1 type  1   force =     0.00000000    0.00000000    0.00000000
     atom    2 type  1   force =     0.00000000    0.00000000    0.00000000
     atom    3 type  2   force =     0.00000000    0.00000000    0.00000000
     atom    4 type  2   force =     0.00000000    0.00000000    0.00000000
     The SCF correction term to forces
     atom    1 type  1   force =     0.00001194    0.00000733    0.00002970
     atom    2 type  1   force =     0.00007324    0.00000335   -0.00002075
     atom    3 type  2   force =    -0.00000636    0.00002467   -0.00000582
     atom    4 type  2   force =     0.00002920   -0.00000656    0.00000188

     Total force =    55.016590     Total SCF correction =     0.000092

     Writing all to output data dir ./ZnO_ANN.save/

     init_run     :      3.94s CPU      4.04s WALL (       1 calls)
     electrons    :    373.79s CPU    379.86s WALL (       1 calls)
     forces       :      1.30s CPU      1.31s WALL (       1 calls)

     Called by init_run:
     wfcinit      :      2.89s CPU      2.94s WALL (       1 calls)
     potinit      :      0.39s CPU      0.39s WALL (       1 calls)
     hinit0       :      0.57s CPU      0.58s WALL (       1 calls)

     Called by electrons:
     c_bands      :    326.02s CPU    331.14s WALL (      54 calls)
     sum_band     :     42.96s CPU     43.79s WALL (      54 calls)
     v_of_rho     :      1.06s CPU      1.13s WALL (      55 calls)
     newd         :      3.55s CPU      3.59s WALL (      55 calls)
     mix_rho      :      0.17s CPU      0.19s WALL (      54 calls)

     Called by c_bands:
     init_us_2    :      3.14s CPU      3.18s WALL (   12320 calls)
     init_us_2:cp :      3.09s CPU      3.15s WALL (   12320 calls)
     cegterg      :    315.54s CPU    320.51s WALL (    6048 calls)

     Called by *egterg:
     cdiaghg      :     35.59s CPU     35.92s WALL (   34812 calls)
     h_psi        :    183.83s CPU    187.40s WALL (   34924 calls)
     s_psi        :     21.35s CPU     21.50s WALL (   34924 calls)
     g_psi        :      0.61s CPU      0.62s WALL (   28764 calls)

     Called by h_psi:
     h_psi:calbec :     26.41s CPU     27.12s WALL (   34924 calls)
     vloc_psi     :    135.47s CPU    138.21s WALL (   34924 calls)
     add_vuspsi   :     21.33s CPU     21.48s WALL (   34924 calls)

     General routines
     calbec       :     36.84s CPU     37.83s WALL (   41420 calls)
     fft          :      1.10s CPU      1.21s WALL (     724 calls)
     ffts         :      0.17s CPU      0.18s WALL (     109 calls)
     fftw         :    142.00s CPU    144.84s WALL (  682498 calls)
     interpolate  :      0.21s CPU      0.22s WALL (      55 calls)

     Parallel routines

     PWSCF        :   6m19.77s CPU   6m26.17s WALL


   This run was terminated on:  19:31:38  24Jun2025            

=------------------------------------------------------------------------------=
   JOB DONE.
=------------------------------------------------------------------------------=
Note: The following floating-point exceptions are signalling: IEEE_INVALID_FLAG
