
     Program PWSCF v.7.2 starts on 24Jun2025 at 15:53:12 

     This program is part of the open-source Quantum ESPRESSO suite
     for quantum simulation of materials; please cite
         "P. Giannozzi et al., J. Phys.:Condens. Matter 21 395502 (2009);
         "P. Giannozzi et al., J. Phys.:Condens. Matter 29 465901 (2017);
         "P. Giannozzi et al., J. Chem. Phys. 152 154105 (2020);
          URL http://www.quantum-espresso.org", 
     in publications or presentations arising from this work. More details at
     http://www.quantum-espresso.org/quote

     Parallel version (MPI), running on     8 processors

     MPI processes distributed on     1 nodes
     91114 MiB available memory on the printing compute node when the environment starts

     Reading input from /home/jvc/QEspresso7.2/ZnO_DataBase/scf_025_NOSYM.in/scf-5.93-1.58-0.25-5.in

     Current dimensions of program PWSCF are:
     Max number of different atomic species (ntypx) = 10
     Max number of k-points (npk) =  40000
     Max angular momentum in pseudopotentials (lmaxx) =  4
     file Zn.upf: wavefunction(s)  3D renormalized

     R & G space division:  proc/nbgrp/npool/nimage =       8
     Subspace diagonalization in iterative solution of the eigenvalue problem:
     a serial algorithm will be used


     Parallelization info
     --------------------
     sticks:   dense  smooth     PW     G-vecs:    dense   smooth      PW
     Min         119      62     18                 4887     1734     288
     Max         120      63     19                 4898     1737     293
     Sum         955     499    151                39127    13885    2333

     Using Slab Decomposition



     bravais-lattice index     =            0
     lattice parameter (alat)  =       5.9317  a.u.
     unit-cell volume          =     289.1886 (a.u.)^3
     number of atoms/cell      =            4
     number of atomic types    =            2
     number of electrons       =        36.00
     number of Kohn-Sham states=           18
     kinetic-energy cutoff     =      50.0000  Ry
     charge density cutoff     =     400.0000  Ry
     scf convergence threshold =      1.0E-08
     mixing beta               =       0.3000
     number of iterations used =            8  plain     mixing
     Exchange-correlation= PBE
                           (   1   4   3   4   0   0   0)

     celldm(1)=   5.931669  celldm(2)=   0.000000  celldm(3)=   0.000000
     celldm(4)=   0.000000  celldm(5)=   0.000000  celldm(6)=   0.000000

     crystal axes: (cart. coord. in units of alat)
               a(1) = (   1.000000   0.000000   0.000000 )  
               a(2) = (  -0.500000   0.866025   0.000000 )  
               a(3) = (   0.000000   0.000000   1.600000 )  

     reciprocal axes: (cart. coord. in units 2 pi/alat)
               b(1) = (  1.000000  0.577350 -0.000000 )  
               b(2) = (  0.000000  1.154701  0.000000 )  
               b(3) = (  0.000000 -0.000000  0.625000 )  


     PseudoPot. # 1 for Zn read from file:
     ./pseudos/Zn.upf
     MD5 check sum: 7f56cabf9682ed8c977c2f7d0c5985c5
     Pseudo is Ultrasoft + core correction, Zval = 12.0
     Generated using &quot;atomic&quot; code by A. Dal Corso  v.6.2.2
     Using radial grid of 1201 points,  6 beta functions with: 
                l(1) =   0
                l(2) =   0
                l(3) =   1
                l(4) =   1
                l(5) =   2
                l(6) =   2
     Q(r) pseudized with 0 coefficients 


     PseudoPot. # 2 for O  read from file:
     ./pseudos/O.upf
     MD5 check sum: 91400c9766925bcf19f520983a725ff0
     Pseudo is Ultrasoft + core correction, Zval =  6.0
     Generated using &quot;atomic&quot; code by A. Dal Corso  v.6.3MaX
     Using radial grid of 1095 points,  4 beta functions with: 
                l(1) =   0
                l(2) =   0
                l(3) =   1
                l(4) =   1
     Q(r) pseudized with 0 coefficients 


     atomic species   valence    mass     pseudopotential
        Zn            12.00    63.38000     Zn( 1.00)
        O              6.00    15.99900     O ( 1.00)

     No symmetry found



   Cartesian axes

     site n.     atom                  positions (alat units)
         1           Zn  tau(   1) = (   0.6757929   0.0890711   0.9000283  )
         2           Zn  tau(   2) = (  -0.0512692   0.4565098   0.3812096  )
         3           O   tau(   3) = (   0.6984532   0.3292785   1.4813859  )
         4           O   tau(   4) = (   0.1372233   0.7460004   0.2619297  )

     number of k points=   112

     Number of k-points >= 100: set verbosity='high' to print them.

     Dense  grid:    39127 G-vectors     FFT dimensions: (  40,  40,  64)

     Smooth grid:    13885 G-vectors     FFT dimensions: (  27,  27,  45)

     Estimated max dynamical RAM per process >      27.34 MB

     Estimated total dynamical RAM >     218.72 MB

     Check: negative core charge=   -0.000002

     Initial potential from superposition of free atoms

     starting charge      35.9925, renormalised to      36.0000
     Starting wfcs are   26 randomized atomic wfcs

     total cpu time spent up to now is        3.8 secs

     Self-consistent Calculation

     iteration #  1     ecut=    50.00 Ry     beta= 0.30
     Davidson diagonalization with overlap
     ethr =  1.00E-02,  avg # of iterations =  2.2

     total cpu time spent up to now is        9.0 secs

     total energy              =    -359.41534687 Ry
     estimated scf accuracy    <       1.51233461 Ry

     iteration #  2     ecut=    50.00 Ry     beta= 0.30
     Davidson diagonalization with overlap
     ethr =  4.20E-03,  avg # of iterations =  5.7

     total cpu time spent up to now is       16.1 secs

     total energy              =    -359.80257272 Ry
     estimated scf accuracy    <       0.19023448 Ry

     iteration #  3     ecut=    50.00 Ry     beta= 0.30
     Davidson diagonalization with overlap
     ethr =  5.28E-04,  avg # of iterations =  5.5

     total cpu time spent up to now is       23.6 secs

     total energy              =    -359.85469749 Ry
     estimated scf accuracy    <       0.06657770 Ry

     iteration #  4     ecut=    50.00 Ry     beta= 0.30
     Davidson diagonalization with overlap
     ethr =  1.85E-04,  avg # of iterations =  4.9

     total cpu time spent up to now is       29.7 secs

     total energy              =    -359.86449243 Ry
     estimated scf accuracy    <       0.01152567 Ry

     iteration #  5     ecut=    50.00 Ry     beta= 0.30
     Davidson diagonalization with overlap
     c_bands:  1 eigenvalues not converged
     ethr =  3.20E-05,  avg # of iterations =  7.2

     total cpu time spent up to now is       38.7 secs

     total energy              =    -359.86966624 Ry
     estimated scf accuracy    <       0.00660550 Ry

     iteration #  6     ecut=    50.00 Ry     beta= 0.30
     Davidson diagonalization with overlap
     c_bands:  1 eigenvalues not converged
     ethr =  1.83E-05,  avg # of iterations =  7.2

     total cpu time spent up to now is       46.2 secs

     total energy              =    -359.86970524 Ry
     estimated scf accuracy    <       0.00868770 Ry

     iteration #  7     ecut=    50.00 Ry     beta= 0.30
     Davidson diagonalization with overlap
     ethr =  1.83E-05,  avg # of iterations =  2.8

     total cpu time spent up to now is       51.4 secs

     total energy              =    -359.86889633 Ry
     estimated scf accuracy    <       0.00320544 Ry

     iteration #  8     ecut=    50.00 Ry     beta= 0.30
     Davidson diagonalization with overlap
     ethr =  8.90E-06,  avg # of iterations = 10.8

     total cpu time spent up to now is       61.5 secs

     total energy              =    -359.87090309 Ry
     estimated scf accuracy    <       0.00928366 Ry

     iteration #  9     ecut=    50.00 Ry     beta= 0.30
     Davidson diagonalization with overlap
     ethr =  8.90E-06,  avg # of iterations =  1.9

     total cpu time spent up to now is       66.3 secs

     total energy              =    -359.86950404 Ry
     estimated scf accuracy    <       0.00595345 Ry

     iteration # 10     ecut=    50.00 Ry     beta= 0.30
     Davidson diagonalization with overlap
     ethr =  8.90E-06,  avg # of iterations =  6.7

     total cpu time spent up to now is       73.9 secs

     total energy              =    -359.87084032 Ry
     estimated scf accuracy    <       0.00058185 Ry

     iteration # 11     ecut=    50.00 Ry     beta= 0.30
     Davidson diagonalization with overlap
     ethr =  1.62E-06,  avg # of iterations =  4.5

     total cpu time spent up to now is       79.8 secs

     total energy              =    -359.87091714 Ry
     estimated scf accuracy    <       0.00016025 Ry

     iteration # 12     ecut=    50.00 Ry     beta= 0.30
     Davidson diagonalization with overlap
     ethr =  4.45E-07,  avg # of iterations =  6.2

     total cpu time spent up to now is       87.3 secs

     total energy              =    -359.87097159 Ry
     estimated scf accuracy    <       0.00008157 Ry

     iteration # 13     ecut=    50.00 Ry     beta= 0.30
     Davidson diagonalization with overlap
     ethr =  2.27E-07,  avg # of iterations =  2.3

     total cpu time spent up to now is       92.4 secs

     total energy              =    -359.87096385 Ry
     estimated scf accuracy    <       0.00004480 Ry

     iteration # 14     ecut=    50.00 Ry     beta= 0.30
     Davidson diagonalization with overlap
     ethr =  1.24E-07,  avg # of iterations =  7.4

     total cpu time spent up to now is      100.0 secs

     total energy              =    -359.87098318 Ry
     estimated scf accuracy    <       0.00002253 Ry

     iteration # 15     ecut=    50.00 Ry     beta= 0.30
     Davidson diagonalization with overlap
     ethr =  6.26E-08,  avg # of iterations =  1.7

     total cpu time spent up to now is      104.6 secs

     total energy              =    -359.87097967 Ry
     estimated scf accuracy    <       0.00002015 Ry

     iteration # 16     ecut=    50.00 Ry     beta= 0.30
     Davidson diagonalization with overlap
     ethr =  5.60E-08,  avg # of iterations =  1.9

     total cpu time spent up to now is      109.4 secs

     total energy              =    -359.87097737 Ry
     estimated scf accuracy    <       0.00000976 Ry

     iteration # 17     ecut=    50.00 Ry     beta= 0.30
     Davidson diagonalization with overlap
     ethr =  2.71E-08,  avg # of iterations =  6.7

     total cpu time spent up to now is      116.8 secs

     total energy              =    -359.87098155 Ry
     estimated scf accuracy    <       0.00000185 Ry

     iteration # 18     ecut=    50.00 Ry     beta= 0.30
     Davidson diagonalization with overlap
     ethr =  5.14E-09,  avg # of iterations =  4.2

     total cpu time spent up to now is      122.6 secs

     total energy              =    -359.87098128 Ry
     estimated scf accuracy    <       0.00000324 Ry

     iteration # 19     ecut=    50.00 Ry     beta= 0.30
     Davidson diagonalization with overlap
     ethr =  5.14E-09,  avg # of iterations =  1.9

     total cpu time spent up to now is      127.4 secs

     total energy              =    -359.87098118 Ry
     estimated scf accuracy    <       0.00000214 Ry

     iteration # 20     ecut=    50.00 Ry     beta= 0.30
     Davidson diagonalization with overlap
     ethr =  5.14E-09,  avg # of iterations =  2.2

     total cpu time spent up to now is      132.4 secs

     total energy              =    -359.87098132 Ry
     estimated scf accuracy    <       0.00000157 Ry

     iteration # 21     ecut=    50.00 Ry     beta= 0.30
     Davidson diagonalization with overlap
     ethr =  4.36E-09,  avg # of iterations =  1.7

     total cpu time spent up to now is      137.1 secs

     total energy              =    -359.87098123 Ry
     estimated scf accuracy    <       0.00000145 Ry

     iteration # 22     ecut=    50.00 Ry     beta= 0.30
     Davidson diagonalization with overlap
     ethr =  4.03E-09,  avg # of iterations =  3.0

     total cpu time spent up to now is      142.5 secs

     total energy              =    -359.87098117 Ry
     estimated scf accuracy    <       0.00000127 Ry

     iteration # 23     ecut=    50.00 Ry     beta= 0.30
     Davidson diagonalization with overlap
     ethr =  3.53E-09,  avg # of iterations =  6.3

     total cpu time spent up to now is      149.0 secs

     total energy              =    -359.87098114 Ry
     estimated scf accuracy    <       0.00000125 Ry

     iteration # 24     ecut=    50.00 Ry     beta= 0.30
     Davidson diagonalization with overlap
     ethr =  3.48E-09,  avg # of iterations =  2.2

     total cpu time spent up to now is      154.0 secs

     total energy              =    -359.87098110 Ry
     estimated scf accuracy    <       0.00000058 Ry

     iteration # 25     ecut=    50.00 Ry     beta= 0.30
     Davidson diagonalization with overlap
     ethr =  1.61E-09,  avg # of iterations =  5.9

     total cpu time spent up to now is      161.1 secs

     total energy              =    -359.87098128 Ry
     estimated scf accuracy    <       0.00000036 Ry

     iteration # 26     ecut=    50.00 Ry     beta= 0.30
     Davidson diagonalization with overlap
     ethr =  9.93E-10,  avg # of iterations =  1.4

     total cpu time spent up to now is      165.6 secs

     total energy              =    -359.87098123 Ry
     estimated scf accuracy    <       0.00000034 Ry

     iteration # 27     ecut=    50.00 Ry     beta= 0.30
     Davidson diagonalization with overlap
     ethr =  9.54E-10,  avg # of iterations =  4.4

     total cpu time spent up to now is      171.6 secs

     total energy              =    -359.87098127 Ry
     estimated scf accuracy    <       0.00000032 Ry

     iteration # 28     ecut=    50.00 Ry     beta= 0.30
     Davidson diagonalization with overlap
     ethr =  8.88E-10,  avg # of iterations =  1.4

     total cpu time spent up to now is      176.2 secs

     total energy              =    -359.87098123 Ry
     estimated scf accuracy    <       0.00000026 Ry

     iteration # 29     ecut=    50.00 Ry     beta= 0.30
     Davidson diagonalization with overlap
     ethr =  7.09E-10,  avg # of iterations =  3.5

     total cpu time spent up to now is      181.7 secs

     total energy              =    -359.87098122 Ry
     estimated scf accuracy    <       0.00000014 Ry

     iteration # 30     ecut=    50.00 Ry     beta= 0.30
     Davidson diagonalization with overlap
     ethr =  3.93E-10,  avg # of iterations =  4.0

     total cpu time spent up to now is      187.4 secs

     total energy              =    -359.87098123 Ry
     estimated scf accuracy    <       0.00000002 Ry

     iteration # 31     ecut=    50.00 Ry     beta= 0.30
     Davidson diagonalization with overlap
     c_bands:  1 eigenvalues not converged
     ethr =  6.86E-11,  avg # of iterations =  7.1

     total cpu time spent up to now is      195.8 secs

     End of self-consistent calculation

     Number of k-points >= 100: set verbosity='high' to print the bands.

     highest occupied level (ev):    10.0064

!    total energy              =    -359.87098124 Ry
     estimated scf accuracy    <          9.1E-09 Ry

     The total energy is the sum of the following terms:
     one-electron contribution =    -172.17296997 Ry
     hartree contribution      =     127.25695627 Ry
     xc contribution           =    -109.99627579 Ry
     ewald contribution        =    -204.95869175 Ry

     convergence has been achieved in  31 iterations

     Forces acting on atoms (cartesian axes, Ry/au):

     atom    1 type  1   force =    -0.02451781   -0.01465308    0.20240957
     atom    2 type  1   force =    -1.78190539   -2.83382787    1.09724424
     atom    3 type  2   force =    -0.05555200   -0.02939133   -0.25576756
     atom    4 type  2   force =     1.86197519    2.87787229   -1.04388625
     The non-local contrib.  to forces
     atom    1 type  1   force =    -0.09564052   -0.27198021   -0.36449865
     atom    2 type  1   force =     0.04922288   -0.10219168    0.34216480
     atom    3 type  2   force =     0.20599917   -0.35469820   -0.22261067
     atom    4 type  2   force =    -0.19773216   -0.24587440    0.98094910
     The ionic contribution  to forces
     atom    1 type  1   force =    -0.94844643   -1.39240766   16.05719800
     atom    2 type  1   force =    -7.81518439  -15.05592684    5.53919002
     atom    3 type  2   force =    -2.35406232    1.53037313   -8.84773104
     atom    4 type  2   force =    11.11769314   14.91796137  -12.74865698
     The local contribution  to forces
     atom    1 type  1   force =     1.01483630    1.63756110  -15.48872870
     atom    2 type  1   force =     5.85276912   12.10379392   -4.67374466
     atom    3 type  2   force =     2.09366608   -1.20869972    8.81075467
     atom    4 type  2   force =    -9.05214063  -11.78535889   10.72712476
     The core correction contribution to forces
     atom    1 type  1   force =     0.00472218    0.01217534   -0.00128797
     atom    2 type  1   force =     0.13127673    0.22050045   -0.11070016
     atom    3 type  2   force =    -0.00115483    0.00362975    0.00384097
     atom    4 type  2   force =    -0.00582501   -0.00879497   -0.00349941
     The Hubbard contrib.    to forces
     atom    1 type  1   force =     0.00000000    0.00000000    0.00000000
     atom    2 type  1   force =     0.00000000    0.00000000    0.00000000
     atom    3 type  2   force =     0.00000000    0.00000000    0.00000000
     atom    4 type  2   force =     0.00000000    0.00000000    0.00000000
     The SCF correction term to forces
     atom    1 type  1   force =     0.00001797    0.00000778   -0.00025920
     atom    2 type  1   force =     0.00001759    0.00000570    0.00034816
     atom    3 type  2   force =     0.00000722    0.00001313   -0.00000757
     atom    4 type  2   force =    -0.00001283   -0.00005141    0.00021020

     Total force =     5.035838     Total SCF correction =     0.000486

     Writing all to output data dir ./ZnO_ANN.save/

     init_run     :      3.27s CPU      3.37s WALL (       1 calls)
     electrons    :    187.97s CPU    191.94s WALL (       1 calls)
     forces       :      1.06s CPU      1.07s WALL (       1 calls)

     Called by init_run:
     wfcinit      :      2.42s CPU      2.49s WALL (       1 calls)
     potinit      :      0.26s CPU      0.26s WALL (       1 calls)
     hinit0       :      0.52s CPU      0.53s WALL (       1 calls)

     Called by electrons:
     c_bands      :    164.93s CPU    168.27s WALL (      31 calls)
     sum_band     :     20.99s CPU     21.55s WALL (      31 calls)
     v_of_rho     :      0.43s CPU      0.47s WALL (      32 calls)
     newd         :      1.55s CPU      1.58s WALL (      32 calls)
     mix_rho      :      0.08s CPU      0.08s WALL (      31 calls)

     Called by c_bands:
     init_us_2    :      1.44s CPU      1.48s WALL (    7168 calls)
     init_us_2:cp :      1.42s CPU      1.46s WALL (    7168 calls)
     cegterg      :    160.51s CPU    163.75s WALL (    3472 calls)

     Called by *egterg:
     cdiaghg      :     19.99s CPU     20.17s WALL (   18553 calls)
     h_psi        :     97.76s CPU    100.25s WALL (   18665 calls)
     s_psi        :     11.66s CPU     11.76s WALL (   18665 calls)
     g_psi        :      0.28s CPU      0.28s WALL (   15081 calls)

     Called by h_psi:
     h_psi:calbec :     12.03s CPU     12.48s WALL (   18665 calls)
     vloc_psi     :     73.74s CPU     75.66s WALL (   18665 calls)
     add_vuspsi   :     11.64s CPU     11.77s WALL (   18665 calls)

     General routines
     calbec       :     16.78s CPU     17.39s WALL (   22585 calls)
     fft          :      0.46s CPU      0.51s WALL (     425 calls)
     ffts         :      0.08s CPU      0.09s WALL (      63 calls)
     fftw         :     77.50s CPU     79.54s WALL (  402298 calls)
     interpolate  :      0.09s CPU      0.10s WALL (      32 calls)

     Parallel routines

     PWSCF        :   3m13.04s CPU   3m17.27s WALL


   This run was terminated on:  15:56:30  24Jun2025            

=------------------------------------------------------------------------------=
   JOB DONE.
=------------------------------------------------------------------------------=
Note: The following floating-point exceptions are signalling: IEEE_INVALID_FLAG
