
     Program PWSCF v.7.2 starts on 24Jun2025 at 14:39:11 

     This program is part of the open-source Quantum ESPRESSO suite
     for quantum simulation of materials; please cite
         "P. Giannozzi et al., J. Phys.:Condens. Matter 21 395502 (2009);
         "P. Giannozzi et al., J. Phys.:Condens. Matter 29 465901 (2017);
         "P. Giannozzi et al., J. Chem. Phys. 152 154105 (2020);
          URL http://www.quantum-espresso.org", 
     in publications or presentations arising from this work. More details at
     http://www.quantum-espresso.org/quote

     Parallel version (MPI), running on     8 processors

     MPI processes distributed on     1 nodes
     91275 MiB available memory on the printing compute node when the environment starts

     Reading input from /home/jvc/QEspresso7.2/ZnO_DataBase/scf_025_NOSYM.in/scf-5.56-1.68-0.25-4.in

     Current dimensions of program PWSCF are:
     Max number of different atomic species (ntypx) = 10
     Max number of k-points (npk) =  40000
     Max angular momentum in pseudopotentials (lmaxx) =  4
     file Zn.upf: wavefunction(s)  3D renormalized

     R & G space division:  proc/nbgrp/npool/nimage =       8
     Subspace diagonalization in iterative solution of the eigenvalue problem:
     a serial algorithm will be used


     Parallelization info
     --------------------
     sticks:   dense  smooth     PW     G-vecs:    dense   smooth      PW
     Min         105      53     15                 4025     1425     243
     Max         106      55     16                 4034     1428     250
     Sum         847     433    127                32259    11417    1961

     Using Slab Decomposition



     bravais-lattice index     =            0
     lattice parameter (alat)  =       5.5609  a.u.
     unit-cell volume          =     238.2841 (a.u.)^3
     number of atoms/cell      =            4
     number of atomic types    =            2
     number of electrons       =        36.00
     number of Kohn-Sham states=           18
     kinetic-energy cutoff     =      50.0000  Ry
     charge density cutoff     =     400.0000  Ry
     scf convergence threshold =      1.0E-08
     mixing beta               =       0.3000
     number of iterations used =            8  plain     mixing
     Exchange-correlation= PBE
                           (   1   4   3   4   0   0   0)

     celldm(1)=   5.560939  celldm(2)=   0.000000  celldm(3)=   0.000000
     celldm(4)=   0.000000  celldm(5)=   0.000000  celldm(6)=   0.000000

     crystal axes: (cart. coord. in units of alat)
               a(1) = (   1.000000   0.000000   0.000000 )  
               a(2) = (  -0.500000   0.866025   0.000000 )  
               a(3) = (   0.000000   0.000000   1.600000 )  

     reciprocal axes: (cart. coord. in units 2 pi/alat)
               b(1) = (  1.000000  0.577350 -0.000000 )  
               b(2) = (  0.000000  1.154701  0.000000 )  
               b(3) = (  0.000000 -0.000000  0.625000 )  


     PseudoPot. # 1 for Zn read from file:
     ./pseudos/Zn.upf
     MD5 check sum: 7f56cabf9682ed8c977c2f7d0c5985c5
     Pseudo is Ultrasoft + core correction, Zval = 12.0
     Generated using &quot;atomic&quot; code by A. Dal Corso  v.6.2.2
     Using radial grid of 1201 points,  6 beta functions with: 
                l(1) =   0
                l(2) =   0
                l(3) =   1
                l(4) =   1
                l(5) =   2
                l(6) =   2
     Q(r) pseudized with 0 coefficients 


     PseudoPot. # 2 for O  read from file:
     ./pseudos/O.upf
     MD5 check sum: 91400c9766925bcf19f520983a725ff0
     Pseudo is Ultrasoft + core correction, Zval =  6.0
     Generated using &quot;atomic&quot; code by A. Dal Corso  v.6.3MaX
     Using radial grid of 1095 points,  4 beta functions with: 
                l(1) =   0
                l(2) =   0
                l(3) =   1
                l(4) =   1
     Q(r) pseudized with 0 coefficients 


     atomic species   valence    mass     pseudopotential
        Zn            12.00    63.38000     Zn( 1.00)
        O              6.00    15.99900     O ( 1.00)

     No symmetry found



   Cartesian axes

     site n.     atom                  positions (alat units)
         1           Zn  tau(   1) = (   0.4715757   0.2862847   0.7090812  )
         2           Zn  tau(   2) = (  -0.1114657   0.5319668   0.2336219  )
         3           O   tau(   3) = (   0.7500514   0.0952315   1.1590984  )
         4           O   tau(   4) = (   0.0260636   0.6224888   0.9677767  )

     number of k points=   112

     Number of k-points >= 100: set verbosity='high' to print them.

     Dense  grid:    32259 G-vectors     FFT dimensions: (  36,  36,  60)

     Smooth grid:    11417 G-vectors     FFT dimensions: (  25,  25,  45)

     Estimated max dynamical RAM per process >      23.07 MB

     Estimated total dynamical RAM >     184.57 MB

     Check: negative core charge=   -0.000002

     Initial potential from superposition of free atoms

     starting charge      35.9925, renormalised to      36.0000
     Starting wfcs are   26 randomized atomic wfcs

     total cpu time spent up to now is        3.2 secs

     Self-consistent Calculation

     iteration #  1     ecut=    50.00 Ry     beta= 0.30
     Davidson diagonalization with overlap
     ethr =  1.00E-02,  avg # of iterations =  2.0

     total cpu time spent up to now is        7.3 secs

     total energy              =    -360.58134458 Ry
     estimated scf accuracy    <       0.48409897 Ry

     iteration #  2     ecut=    50.00 Ry     beta= 0.30
     Davidson diagonalization with overlap
     ethr =  1.34E-03,  avg # of iterations =  5.1

     total cpu time spent up to now is       12.8 secs

     total energy              =    -360.71890608 Ry
     estimated scf accuracy    <       0.06424035 Ry

     iteration #  3     ecut=    50.00 Ry     beta= 0.30
     Davidson diagonalization with overlap
     ethr =  1.78E-04,  avg # of iterations =  4.9

     total cpu time spent up to now is       19.0 secs

     total energy              =    -360.73617195 Ry
     estimated scf accuracy    <       0.01745797 Ry

     iteration #  4     ecut=    50.00 Ry     beta= 0.30
     Davidson diagonalization with overlap
     ethr =  4.85E-05,  avg # of iterations =  4.8

     total cpu time spent up to now is       24.3 secs

     total energy              =    -360.74024960 Ry
     estimated scf accuracy    <       0.00275960 Ry

     iteration #  5     ecut=    50.00 Ry     beta= 0.30
     Davidson diagonalization with overlap
     ethr =  7.67E-06,  avg # of iterations =  5.7

     total cpu time spent up to now is       30.2 secs

     total energy              =    -360.74102882 Ry
     estimated scf accuracy    <       0.00065442 Ry

     iteration #  6     ecut=    50.00 Ry     beta= 0.30
     Davidson diagonalization with overlap
     ethr =  1.82E-06,  avg # of iterations =  7.3

     total cpu time spent up to now is       36.7 secs

     total energy              =    -360.74101733 Ry
     estimated scf accuracy    <       0.00068916 Ry

     iteration #  7     ecut=    50.00 Ry     beta= 0.30
     Davidson diagonalization with overlap
     ethr =  1.82E-06,  avg # of iterations =  6.7

     total cpu time spent up to now is       42.5 secs

     total energy              =    -360.74124315 Ry
     estimated scf accuracy    <       0.00023356 Ry

     iteration #  8     ecut=    50.00 Ry     beta= 0.30
     Davidson diagonalization with overlap
     ethr =  6.49E-07,  avg # of iterations =  2.6

     total cpu time spent up to now is       46.4 secs

     total energy              =    -360.74120130 Ry
     estimated scf accuracy    <       0.00009143 Ry

     iteration #  9     ecut=    50.00 Ry     beta= 0.30
     Davidson diagonalization with overlap
     c_bands:  1 eigenvalues not converged
     ethr =  2.54E-07,  avg # of iterations =  8.7

     total cpu time spent up to now is       53.7 secs

     total energy              =    -360.74125674 Ry
     estimated scf accuracy    <       0.00016606 Ry

     iteration # 10     ecut=    50.00 Ry     beta= 0.30
     Davidson diagonalization with overlap
     ethr =  2.54E-07,  avg # of iterations =  3.7

     total cpu time spent up to now is       57.8 secs

     total energy              =    -360.74124111 Ry
     estimated scf accuracy    <       0.00004574 Ry

     iteration # 11     ecut=    50.00 Ry     beta= 0.30
     Davidson diagonalization with overlap
     ethr =  1.27E-07,  avg # of iterations =  8.1

     total cpu time spent up to now is       64.8 secs

     total energy              =    -360.74127049 Ry
     estimated scf accuracy    <       0.00003770 Ry

     iteration # 12     ecut=    50.00 Ry     beta= 0.30
     Davidson diagonalization with overlap
     ethr =  1.05E-07,  avg # of iterations =  1.2

     total cpu time spent up to now is       68.3 secs

     total energy              =    -360.74125802 Ry
     estimated scf accuracy    <       0.00002513 Ry

     iteration # 13     ecut=    50.00 Ry     beta= 0.30
     Davidson diagonalization with overlap
     ethr =  6.98E-08,  avg # of iterations =  6.8

     total cpu time spent up to now is       74.0 secs

     total energy              =    -360.74126794 Ry
     estimated scf accuracy    <       0.00000734 Ry

     iteration # 14     ecut=    50.00 Ry     beta= 0.30
     Davidson diagonalization with overlap
     ethr =  2.04E-08,  avg # of iterations =  2.9

     total cpu time spent up to now is       78.1 secs

     total energy              =    -360.74126758 Ry
     estimated scf accuracy    <       0.00000263 Ry

     iteration # 15     ecut=    50.00 Ry     beta= 0.30
     Davidson diagonalization with overlap
     ethr =  7.30E-09,  avg # of iterations =  6.6

     total cpu time spent up to now is       83.6 secs

     total energy              =    -360.74126869 Ry
     estimated scf accuracy    <       0.00000014 Ry

     iteration # 16     ecut=    50.00 Ry     beta= 0.30
     Davidson diagonalization with overlap
     ethr =  3.93E-10,  avg # of iterations =  5.5

     total cpu time spent up to now is       89.5 secs

     total energy              =    -360.74126871 Ry
     estimated scf accuracy    <       0.00000011 Ry

     iteration # 17     ecut=    50.00 Ry     beta= 0.30
     Davidson diagonalization with overlap
     ethr =  3.11E-10,  avg # of iterations =  3.8

     total cpu time spent up to now is       93.8 secs

     total energy              =    -360.74126873 Ry
     estimated scf accuracy    <       0.00000001 Ry

     iteration # 18     ecut=    50.00 Ry     beta= 0.30
     Davidson diagonalization with overlap
     ethr =  3.73E-11,  avg # of iterations =  9.0

     total cpu time spent up to now is      101.7 secs

     End of self-consistent calculation

     Number of k-points >= 100: set verbosity='high' to print the bands.

     highest occupied level (ev):    14.6066

!    total energy              =    -360.74126873 Ry
     estimated scf accuracy    <          8.3E-09 Ry

     The total energy is the sum of the following terms:
     one-electron contribution =    -132.32852652 Ry
     hartree contribution      =     112.34622510 Ry
     xc contribution           =    -110.12850774 Ry
     ewald contribution        =    -230.63045957 Ry

     convergence has been achieved in  18 iterations

     Forces acting on atoms (cartesian axes, Ry/au):

     atom    1 type  1   force =    -0.21853014    0.12492985   -0.19451699
     atom    2 type  1   force =     0.08617164    0.04647877   -0.25475422
     atom    3 type  2   force =     0.20266677   -0.00053430    0.37695808
     atom    4 type  2   force =    -0.07030827   -0.17087433    0.07231314
     The non-local contrib.  to forces
     atom    1 type  1   force =    -0.00118961    0.03208139   -0.16254768
     atom    2 type  1   force =     0.19749033    0.12723707   -0.26719180
     atom    3 type  2   force =    -1.24171754   -1.27333174   -0.91899084
     atom    4 type  2   force =     1.24215661    1.53185455   -0.01751395
     The ionic contribution  to forces
     atom    1 type  1   force =    -4.13441376    2.35357079   -4.28954441
     atom    2 type  1   force =     1.38419435    1.07194034  -20.75038963
     atom    3 type  2   force =     6.04691517    1.62454156   16.31857888
     atom    4 type  2   force =    -3.29669577   -5.05005269    8.72135516
     The local contribution  to forces
     atom    1 type  1   force =     3.90198598   -2.23468463    4.21485269
     atom    2 type  1   force =    -1.48536060   -1.14544943   20.72641560
     atom    3 type  2   force =    -4.61306797   -0.36480616  -15.02811799
     atom    4 type  2   force =     1.99582825    3.36120362   -8.63036083
     The core correction contribution to forces
     atom    1 type  1   force =     0.01507027   -0.02601040    0.04239433
     atom    2 type  1   force =    -0.01015551   -0.00724957    0.03654763
     atom    3 type  2   force =     0.01056115    0.01308797    0.00557674
     atom    4 type  2   force =    -0.01161427   -0.01391083   -0.00125747
     The Hubbard contrib.    to forces
     atom    1 type  1   force =     0.00000000    0.00000000    0.00000000
     atom    2 type  1   force =     0.00000000    0.00000000    0.00000000
     atom    3 type  2   force =     0.00000000    0.00000000    0.00000000
     atom    4 type  2   force =     0.00000000    0.00000000    0.00000000
     The SCF correction term to forces
     atom    1 type  1   force =     0.00001952   -0.00003190    0.00035839
     atom    2 type  1   force =     0.00000562   -0.00000425   -0.00010572
     atom    3 type  2   force =    -0.00002149   -0.00003052   -0.00005840
     atom    4 type  2   force =     0.00001946    0.00002641    0.00012054

     Total force =     0.631053     Total SCF correction =     0.000402

     Writing all to output data dir ./ZnO_ANN.save/

     init_run     :      2.72s CPU      2.80s WALL (       1 calls)
     electrons    :     96.11s CPU     98.50s WALL (       1 calls)
     forces       :      0.86s CPU      0.87s WALL (       1 calls)

     Called by init_run:
     wfcinit      :      1.91s CPU      1.96s WALL (       1 calls)
     potinit      :      0.19s CPU      0.20s WALL (       1 calls)
     hinit0       :      0.53s CPU      0.54s WALL (       1 calls)

     Called by electrons:
     c_bands      :     85.96s CPU     88.02s WALL (      18 calls)
     sum_band     :      9.18s CPU      9.47s WALL (      18 calls)
     v_of_rho     :      0.21s CPU      0.23s WALL (      19 calls)
     newd         :      0.79s CPU      0.81s WALL (      19 calls)
     mix_rho      :      0.03s CPU      0.04s WALL (      18 calls)

     Called by c_bands:
     init_us_2    :      0.73s CPU      0.74s WALL (    4256 calls)
     init_us_2:cp :      0.71s CPU      0.72s WALL (    4256 calls)
     cegterg      :     83.76s CPU     85.77s WALL (    2016 calls)

     Called by *egterg:
     cdiaghg      :     14.19s CPU     14.37s WALL (   12700 calls)
     h_psi        :     46.58s CPU     48.05s WALL (   12812 calls)
     s_psi        :      6.35s CPU      6.43s WALL (   12812 calls)
     g_psi        :      0.16s CPU      0.16s WALL (   10684 calls)

     Called by h_psi:
     h_psi:calbec :      6.41s CPU      6.70s WALL (   12812 calls)
     vloc_psi     :     33.61s CPU     34.71s WALL (   12812 calls)
     add_vuspsi   :      6.35s CPU      6.44s WALL (   12812 calls)

     General routines
     calbec       :      8.89s CPU      9.28s WALL (   15276 calls)
     fft          :      0.36s CPU      0.39s WALL (     256 calls)
     ffts         :      0.05s CPU      0.05s WALL (      37 calls)
     fftw         :     34.17s CPU     35.28s WALL (  253540 calls)
     interpolate  :      0.06s CPU      0.06s WALL (      19 calls)

     Parallel routines

     PWSCF        :   1m40.40s CPU   1m43.01s WALL


   This run was terminated on:  14:40:54  24Jun2025            

=------------------------------------------------------------------------------=
   JOB DONE.
=------------------------------------------------------------------------------=
Note: The following floating-point exceptions are signalling: IEEE_INVALID_FLAG
