
     Program PWSCF v.7.2 starts on 24Jun2025 at 18:59:32 

     This program is part of the open-source Quantum ESPRESSO suite
     for quantum simulation of materials; please cite
         "P. Giannozzi et al., J. Phys.:Condens. Matter 21 395502 (2009);
         "P. Giannozzi et al., J. Phys.:Condens. Matter 29 465901 (2017);
         "P. Giannozzi et al., J. Chem. Phys. 152 154105 (2020);
          URL http://www.quantum-espresso.org", 
     in publications or presentations arising from this work. More details at
     http://www.quantum-espresso.org/quote

     Parallel version (MPI), running on     8 processors

     MPI processes distributed on     1 nodes
     90807 MiB available memory on the printing compute node when the environment starts

     Reading input from /home/jvc/QEspresso7.2/ZnO_DataBase/scf_025_NOSYM.in/scf-6.55-1.49-0.25-5.in

     Current dimensions of program PWSCF are:
     Max number of different atomic species (ntypx) = 10
     Max number of k-points (npk) =  40000
     Max angular momentum in pseudopotentials (lmaxx) =  4
     file Zn.upf: wavefunction(s)  3D renormalized

     R & G space division:  proc/nbgrp/npool/nimage =       8
     Subspace diagonalization in iterative solution of the eigenvalue problem:
     a serial algorithm will be used


     Parallelization info
     --------------------
     sticks:   dense  smooth     PW     G-vecs:    dense   smooth      PW
     Min         147      72     23                 6576     2326     385
     Max         148      73     24                 6577     2335     388
     Sum        1177     583    187                52615    18665    3091

     Using Slab Decomposition



     bravais-lattice index     =            0
     lattice parameter (alat)  =       6.5496  a.u.
     unit-cell volume          =     389.3007 (a.u.)^3
     number of atoms/cell      =            4
     number of atomic types    =            2
     number of electrons       =        36.00
     number of Kohn-Sham states=           18
     kinetic-energy cutoff     =      50.0000  Ry
     charge density cutoff     =     400.0000  Ry
     scf convergence threshold =      1.0E-08
     mixing beta               =       0.3000
     number of iterations used =            8  plain     mixing
     Exchange-correlation= PBE
                           (   1   4   3   4   0   0   0)

     celldm(1)=   6.549551  celldm(2)=   0.000000  celldm(3)=   0.000000
     celldm(4)=   0.000000  celldm(5)=   0.000000  celldm(6)=   0.000000

     crystal axes: (cart. coord. in units of alat)
               a(1) = (   1.000000   0.000000   0.000000 )  
               a(2) = (  -0.500000   0.866025   0.000000 )  
               a(3) = (   0.000000   0.000000   1.600000 )  

     reciprocal axes: (cart. coord. in units 2 pi/alat)
               b(1) = (  1.000000  0.577350 -0.000000 )  
               b(2) = (  0.000000  1.154701  0.000000 )  
               b(3) = (  0.000000 -0.000000  0.625000 )  


     PseudoPot. # 1 for Zn read from file:
     ./pseudos/Zn.upf
     MD5 check sum: 7f56cabf9682ed8c977c2f7d0c5985c5
     Pseudo is Ultrasoft + core correction, Zval = 12.0
     Generated using &quot;atomic&quot; code by A. Dal Corso  v.6.2.2
     Using radial grid of 1201 points,  6 beta functions with: 
                l(1) =   0
                l(2) =   0
                l(3) =   1
                l(4) =   1
                l(5) =   2
                l(6) =   2
     Q(r) pseudized with 0 coefficients 


     PseudoPot. # 2 for O  read from file:
     ./pseudos/O.upf
     MD5 check sum: 91400c9766925bcf19f520983a725ff0
     Pseudo is Ultrasoft + core correction, Zval =  6.0
     Generated using &quot;atomic&quot; code by A. Dal Corso  v.6.3MaX
     Using radial grid of 1095 points,  4 beta functions with: 
                l(1) =   0
                l(2) =   0
                l(3) =   1
                l(4) =   1
     Q(r) pseudized with 0 coefficients 


     atomic species   valence    mass     pseudopotential
        Zn            12.00    63.38000     Zn( 1.00)
        O              6.00    15.99900     O ( 1.00)

     No symmetry found



   Cartesian axes

     site n.     atom                  positions (alat units)
         1           Zn  tau(   1) = (   0.5307662   0.0807899   0.6795367  )
         2           Zn  tau(   2) = (   0.0933715   0.7090876   0.3791277  )
         3           O   tau(   3) = (   0.5813907   0.1180828   1.1088859  )
         4           O   tau(   4) = (  -0.0192036   0.7661658   0.6747046  )

     number of k points=   112

     Number of k-points >= 100: set verbosity='high' to print them.

     Dense  grid:    52615 G-vectors     FFT dimensions: (  45,  45,  72)

     Smooth grid:    18665 G-vectors     FFT dimensions: (  30,  30,  48)

     Estimated max dynamical RAM per process >      35.72 MB

     Estimated total dynamical RAM >     285.77 MB

     Check: negative core charge=   -0.000003

     Initial potential from superposition of free atoms

     starting charge      35.9925, renormalised to      36.0000
     Starting wfcs are   26 randomized atomic wfcs

     total cpu time spent up to now is        4.5 secs

     Self-consistent Calculation

     iteration #  1     ecut=    50.00 Ry     beta= 0.30
     Davidson diagonalization with overlap
     ethr =  1.00E-02,  avg # of iterations =  5.1

     total cpu time spent up to now is       14.5 secs

     total energy              =    -340.90360640 Ry
     estimated scf accuracy    <       2.00745389 Ry

     iteration #  2     ecut=    50.00 Ry     beta= 0.30
     Davidson diagonalization with overlap
     ethr =  5.58E-03,  avg # of iterations =  2.1

     total cpu time spent up to now is       20.7 secs

     total energy              =    -340.72557023 Ry
     estimated scf accuracy    <       0.54240214 Ry

     iteration #  3     ecut=    50.00 Ry     beta= 0.30
     Davidson diagonalization with overlap
     ethr =  1.51E-03,  avg # of iterations = 11.2

     total cpu time spent up to now is       33.2 secs

     total energy              =    -341.72022824 Ry
     estimated scf accuracy    <       4.08199331 Ry

     iteration #  4     ecut=    50.00 Ry     beta= 0.30
     Davidson diagonalization with overlap
     ethr =  1.51E-03,  avg # of iterations =  1.1

     total cpu time spent up to now is       38.4 secs

     total energy              =    -341.65657236 Ry
     estimated scf accuracy    <       4.20158463 Ry

     iteration #  5     ecut=    50.00 Ry     beta= 0.30
     Davidson diagonalization with overlap
     ethr =  1.51E-03,  avg # of iterations =  1.1

     total cpu time spent up to now is       43.7 secs

     total energy              =    -341.35054213 Ry
     estimated scf accuracy    <       4.15196093 Ry

     iteration #  6     ecut=    50.00 Ry     beta= 0.30
     Davidson diagonalization with overlap
     ethr =  1.51E-03,  avg # of iterations =  2.0

     total cpu time spent up to now is       49.7 secs

     total energy              =    -340.43245838 Ry
     estimated scf accuracy    <       3.58788188 Ry

     iteration #  7     ecut=    50.00 Ry     beta= 0.30
     Davidson diagonalization with overlap
     ethr =  1.51E-03,  avg # of iterations = 11.0

     total cpu time spent up to now is       64.4 secs

     total energy              =    -342.93236473 Ry
     estimated scf accuracy    <       3.57535064 Ry

     iteration #  8     ecut=    50.00 Ry     beta= 0.30
     Davidson diagonalization with overlap
     ethr =  1.51E-03,  avg # of iterations =  5.1

     total cpu time spent up to now is       72.0 secs

     total energy              =    -342.21898165 Ry
     estimated scf accuracy    <       6.48121764 Ry

     iteration #  9     ecut=    50.00 Ry     beta= 0.30
     Davidson diagonalization with overlap
     ethr =  1.51E-03,  avg # of iterations =  2.1

     total cpu time spent up to now is       77.9 secs

     total energy              =    -341.33303440 Ry
     estimated scf accuracy    <       4.81649931 Ry

     iteration # 10     ecut=    50.00 Ry     beta= 0.30
     Davidson diagonalization with overlap
     ethr =  1.51E-03,  avg # of iterations =  6.3

     total cpu time spent up to now is       87.0 secs

     total energy              =    -341.64067827 Ry
     estimated scf accuracy    <       1.98157083 Ry

     iteration # 11     ecut=    50.00 Ry     beta= 0.30
     Davidson diagonalization with overlap
     ethr =  1.51E-03,  avg # of iterations =  1.0

     total cpu time spent up to now is       92.1 secs

     total energy              =    -341.39855056 Ry
     estimated scf accuracy    <       2.12000181 Ry

     iteration # 12     ecut=    50.00 Ry     beta= 0.30
     Davidson diagonalization with overlap
     ethr =  1.51E-03,  avg # of iterations =  5.8

     total cpu time spent up to now is       99.1 secs

     total energy              =    -341.33900601 Ry
     estimated scf accuracy    <       1.66738687 Ry

     iteration # 13     ecut=    50.00 Ry     beta= 0.30
     Davidson diagonalization with overlap
     ethr =  1.51E-03,  avg # of iterations =  8.1

     total cpu time spent up to now is      111.7 secs

     total energy              =    -341.49237689 Ry
     estimated scf accuracy    <       3.45298615 Ry

     iteration # 14     ecut=    50.00 Ry     beta= 0.30
     Davidson diagonalization with overlap
     ethr =  1.51E-03,  avg # of iterations =  2.0

     total cpu time spent up to now is      117.3 secs

     total energy              =    -340.58907477 Ry
     estimated scf accuracy    <       2.35610528 Ry

     iteration # 15     ecut=    50.00 Ry     beta= 0.30
     Davidson diagonalization with overlap
     ethr =  1.51E-03,  avg # of iterations = 10.1

     total cpu time spent up to now is      128.3 secs

     total energy              =    -341.29315758 Ry
     estimated scf accuracy    <       0.06327366 Ry

     iteration # 16     ecut=    50.00 Ry     beta= 0.30
     Davidson diagonalization with overlap
     c_bands:  1 eigenvalues not converged
     c_bands:  1 eigenvalues not converged
     ethr =  1.76E-04,  avg # of iterations = 14.8

     total cpu time spent up to now is      146.0 secs

     total energy              =    -340.96839879 Ry
     estimated scf accuracy    <       2.48227754 Ry

     iteration # 17     ecut=    50.00 Ry     beta= 0.30
     Davidson diagonalization with overlap
     c_bands:  1 eigenvalues not converged
     c_bands:  1 eigenvalues not converged
     c_bands:  1 eigenvalues not converged
     c_bands:  1 eigenvalues not converged
     ethr =  1.76E-04,  avg # of iterations = 12.6

     total cpu time spent up to now is      162.1 secs

     total energy              =    -341.13297994 Ry
     estimated scf accuracy    <       0.30499116 Ry

     iteration # 18     ecut=    50.00 Ry     beta= 0.30
     Davidson diagonalization with overlap
     ethr =  1.76E-04,  avg # of iterations =  2.2

     total cpu time spent up to now is      167.9 secs

     total energy              =    -341.10105630 Ry
     estimated scf accuracy    <       0.23002641 Ry

     iteration # 19     ecut=    50.00 Ry     beta= 0.30
     Davidson diagonalization with overlap
     ethr =  1.76E-04,  avg # of iterations =  7.7

     total cpu time spent up to now is      176.3 secs

     total energy              =    -341.10992286 Ry
     estimated scf accuracy    <       0.08001329 Ry

     iteration # 20     ecut=    50.00 Ry     beta= 0.30
     Davidson diagonalization with overlap
     ethr =  1.76E-04,  avg # of iterations =  2.0

     total cpu time spent up to now is      182.3 secs

     total energy              =    -341.08797683 Ry
     estimated scf accuracy    <       0.05523049 Ry

     iteration # 21     ecut=    50.00 Ry     beta= 0.30
     Davidson diagonalization with overlap
     ethr =  1.53E-04,  avg # of iterations = 11.4

     total cpu time spent up to now is      192.3 secs

     total energy              =    -341.11729983 Ry
     estimated scf accuracy    <       0.07395249 Ry

     iteration # 22     ecut=    50.00 Ry     beta= 0.30
     Davidson diagonalization with overlap
     ethr =  1.53E-04,  avg # of iterations =  1.2

     total cpu time spent up to now is      197.5 secs

     total energy              =    -341.09583181 Ry
     estimated scf accuracy    <       0.05325840 Ry

     iteration # 23     ecut=    50.00 Ry     beta= 0.30
     Davidson diagonalization with overlap
     ethr =  1.48E-04,  avg # of iterations =  8.0

     total cpu time spent up to now is      205.6 secs

     total energy              =    -341.11573709 Ry
     estimated scf accuracy    <       0.01738883 Ry

     iteration # 24     ecut=    50.00 Ry     beta= 0.30
     Davidson diagonalization with overlap
     ethr =  4.83E-05,  avg # of iterations =  1.8

     total cpu time spent up to now is      211.2 secs

     total energy              =    -341.11438746 Ry
     estimated scf accuracy    <       0.01701601 Ry

     iteration # 25     ecut=    50.00 Ry     beta= 0.30
     Davidson diagonalization with overlap
     ethr =  4.73E-05,  avg # of iterations =  1.3

     total cpu time spent up to now is      216.5 secs

     total energy              =    -341.11444977 Ry
     estimated scf accuracy    <       0.01226518 Ry

     iteration # 26     ecut=    50.00 Ry     beta= 0.30
     Davidson diagonalization with overlap
     ethr =  3.41E-05,  avg # of iterations =  1.1

     total cpu time spent up to now is      221.6 secs

     total energy              =    -341.11193998 Ry
     estimated scf accuracy    <       0.01146827 Ry

     iteration # 27     ecut=    50.00 Ry     beta= 0.30
     Davidson diagonalization with overlap
     ethr =  3.19E-05,  avg # of iterations =  2.9

     total cpu time spent up to now is      227.5 secs

     total energy              =    -341.11171049 Ry
     estimated scf accuracy    <       0.00392415 Ry

     iteration # 28     ecut=    50.00 Ry     beta= 0.30
     Davidson diagonalization with overlap
     ethr =  1.09E-05,  avg # of iterations =  8.3

     total cpu time spent up to now is      235.6 secs

     total energy              =    -341.11326331 Ry
     estimated scf accuracy    <       0.00063967 Ry

     iteration # 29     ecut=    50.00 Ry     beta= 0.30
     Davidson diagonalization with overlap
     ethr =  1.78E-06,  avg # of iterations =  4.7

     total cpu time spent up to now is      242.2 secs

     total energy              =    -341.11330987 Ry
     estimated scf accuracy    <       0.00022097 Ry

     iteration # 30     ecut=    50.00 Ry     beta= 0.30
     Davidson diagonalization with overlap
     ethr =  6.14E-07,  avg # of iterations =  6.9

     total cpu time spent up to now is      249.8 secs

     total energy              =    -341.11338752 Ry
     estimated scf accuracy    <       0.00000249 Ry

     iteration # 31     ecut=    50.00 Ry     beta= 0.30
     Davidson diagonalization with overlap
     c_bands:  1 eigenvalues not converged
     c_bands:  1 eigenvalues not converged
     c_bands:  1 eigenvalues not converged
     c_bands:  1 eigenvalues not converged
     c_bands:  1 eigenvalues not converged
     c_bands:  1 eigenvalues not converged
     c_bands:  1 eigenvalues not converged
     c_bands:  1 eigenvalues not converged
     c_bands:  1 eigenvalues not converged
     c_bands:  1 eigenvalues not converged
     ethr =  6.93E-09,  avg # of iterations = 11.1

     total cpu time spent up to now is      261.7 secs

     total energy              =    -341.11339426 Ry
     estimated scf accuracy    <       0.00000854 Ry

     iteration # 32     ecut=    50.00 Ry     beta= 0.30
     Davidson diagonalization with overlap
     ethr =  6.93E-09,  avg # of iterations =  2.9

     total cpu time spent up to now is      267.7 secs

     total energy              =    -341.11339536 Ry
     estimated scf accuracy    <       0.00000517 Ry

     iteration # 33     ecut=    50.00 Ry     beta= 0.30
     Davidson diagonalization with overlap
     ethr =  6.93E-09,  avg # of iterations =  1.4

     total cpu time spent up to now is      273.0 secs

     total energy              =    -341.11339535 Ry
     estimated scf accuracy    <       0.00000675 Ry

     iteration # 34     ecut=    50.00 Ry     beta= 0.30
     Davidson diagonalization with overlap
     ethr =  6.93E-09,  avg # of iterations =  1.1

     total cpu time spent up to now is      278.1 secs

     total energy              =    -341.11339419 Ry
     estimated scf accuracy    <       0.00000691 Ry

     iteration # 35     ecut=    50.00 Ry     beta= 0.30
     Davidson diagonalization with overlap
     ethr =  6.93E-09,  avg # of iterations =  1.7

     total cpu time spent up to now is      283.5 secs

     total energy              =    -341.11339410 Ry
     estimated scf accuracy    <       0.00000451 Ry

     iteration # 36     ecut=    50.00 Ry     beta= 0.30
     Davidson diagonalization with overlap
     ethr =  6.93E-09,  avg # of iterations =  1.4

     total cpu time spent up to now is      288.7 secs

     total energy              =    -341.11339460 Ry
     estimated scf accuracy    <       0.00000375 Ry

     iteration # 37     ecut=    50.00 Ry     beta= 0.30
     Davidson diagonalization with overlap
     ethr =  6.93E-09,  avg # of iterations =  1.2

     total cpu time spent up to now is      293.8 secs

     total energy              =    -341.11339402 Ry
     estimated scf accuracy    <       0.00000440 Ry

     iteration # 38     ecut=    50.00 Ry     beta= 0.30
     Davidson diagonalization with overlap
     ethr =  6.93E-09,  avg # of iterations =  2.2

     total cpu time spent up to now is      299.5 secs

     total energy              =    -341.11339232 Ry
     estimated scf accuracy    <       0.00000268 Ry

     iteration # 39     ecut=    50.00 Ry     beta= 0.30
     Davidson diagonalization with overlap
     c_bands:  1 eigenvalues not converged
     ethr =  6.93E-09,  avg # of iterations = 12.7

     total cpu time spent up to now is      310.8 secs

     total energy              =    -341.11339375 Ry
     estimated scf accuracy    <       0.00001286 Ry

     iteration # 40     ecut=    50.00 Ry     beta= 0.30
     Davidson diagonalization with overlap
     ethr =  6.93E-09,  avg # of iterations =  6.9

     total cpu time spent up to now is      318.1 secs

     total energy              =    -341.11339393 Ry
     estimated scf accuracy    <       0.00000357 Ry

     iteration # 41     ecut=    50.00 Ry     beta= 0.30
     Davidson diagonalization with overlap
     ethr =  6.93E-09,  avg # of iterations =  2.3

     total cpu time spent up to now is      323.7 secs

     total energy              =    -341.11339396 Ry
     estimated scf accuracy    <       0.00000230 Ry

     iteration # 42     ecut=    50.00 Ry     beta= 0.30
     Davidson diagonalization with overlap
     ethr =  6.40E-09,  avg # of iterations =  2.9

     total cpu time spent up to now is      329.6 secs

     total energy              =    -341.11339401 Ry
     estimated scf accuracy    <       0.00000134 Ry

     iteration # 43     ecut=    50.00 Ry     beta= 0.30
     Davidson diagonalization with overlap
     ethr =  3.73E-09,  avg # of iterations =  2.4

     total cpu time spent up to now is      335.4 secs

     total energy              =    -341.11339390 Ry
     estimated scf accuracy    <       0.00000089 Ry

     iteration # 44     ecut=    50.00 Ry     beta= 0.30
     Davidson diagonalization with overlap
     ethr =  2.47E-09,  avg # of iterations =  7.1

     total cpu time spent up to now is      342.9 secs

     End of self-consistent calculation

     Number of k-points >= 100: set verbosity='high' to print the bands.

     highest occupied level (ev):     7.3996

!    total energy              =    -341.11339411 Ry
     estimated scf accuracy    <          5.0E-09 Ry

     The total energy is the sum of the following terms:
     one-electron contribution =    -416.78340932 Ry
     hartree contribution      =     237.07964129 Ry
     xc contribution           =    -113.81673113 Ry
     ewald contribution        =     -47.59289495 Ry

     convergence has been achieved in  44 iterations

     Forces acting on atoms (cartesian axes, Ry/au):

     atom    1 type  1   force =    10.25193067   41.84347015    3.56475972
     atom    2 type  1   force =     2.20100379   -3.17478622   -7.23389038
     atom    3 type  2   force =     0.10092092    0.14347527    0.69513115
     atom    4 type  2   force =   -12.55385538  -38.81215920    2.97399951
     The non-local contrib.  to forces
     atom    1 type  1   force =    -4.39740299  -17.55498910   -1.91971488
     atom    2 type  1   force =    -0.50957086    1.98009708    2.14616030
     atom    3 type  2   force =    -0.16301023   -0.11586249   -1.51877333
     atom    4 type  2   force =     1.43483225    4.40141932   -0.56000643
     The ionic contribution  to forces
     atom    1 type  1   force =    17.70798066  107.75782621   22.41669356
     atom    2 type  1   force =    15.03414746  -25.79647648  -71.62223854
     atom    3 type  2   force =     2.27773771    3.43938145   27.09245496
     atom    4 type  2   force =   -35.01986583  -85.40073119   22.11309002
     The local contribution  to forces
     atom    1 type  1   force =    -2.76153014  -47.07817016  -16.82268830
     atom    2 type  1   force =   -12.18812290   20.51855950   61.82723868
     atom    3 type  2   force =    -2.01462306   -3.18002954  -24.88686136
     atom    4 type  2   force =    21.00257683   42.09783829  -18.57550557
     The core correction contribution to forces
     atom    1 type  1   force =    -0.29717396   -1.28122808   -0.10943012
     atom    2 type  1   force =    -0.13545137    0.12298781    0.41524255
     atom    3 type  2   force =     0.00080795    0.00005307    0.00829840
     atom    4 type  2   force =     0.02857844    0.08935263   -0.00352652
     The Hubbard contrib.    to forces
     atom    1 type  1   force =     0.00000000    0.00000000    0.00000000
     atom    2 type  1   force =     0.00000000    0.00000000    0.00000000
     atom    3 type  2   force =     0.00000000    0.00000000    0.00000000
     atom    4 type  2   force =     0.00000000    0.00000000    0.00000000
     The SCF correction term to forces
     atom    1 type  1   force =     0.00006894    0.00010150   -0.00009101
     atom    2 type  1   force =     0.00001328    0.00011609   -0.00028382
     atom    3 type  2   force =     0.00002038    0.00000301    0.00002203
     atom    4 type  2   force =     0.00003476    0.00003198   -0.00004246

     Total force =    60.077284     Total SCF correction =     0.000350

     Writing all to output data dir ./ZnO_ANN.save/

     init_run     :      3.91s CPU      4.01s WALL (       1 calls)
     electrons    :    333.12s CPU    338.47s WALL (       1 calls)
     forces       :      1.36s CPU      1.37s WALL (       1 calls)

     Called by init_run:
     wfcinit      :      2.86s CPU      2.92s WALL (       1 calls)
     potinit      :      0.39s CPU      0.39s WALL (       1 calls)
     hinit0       :      0.56s CPU      0.57s WALL (       1 calls)

     Called by electrons:
     c_bands      :    293.44s CPU    297.98s WALL (      44 calls)
     sum_band     :     35.61s CPU     36.32s WALL (      44 calls)
     v_of_rho     :      0.86s CPU      0.93s WALL (      45 calls)
     newd         :      3.06s CPU      3.10s WALL (      45 calls)
     mix_rho      :      0.14s CPU      0.16s WALL (      44 calls)

     Called by c_bands:
     init_us_2    :      2.52s CPU      2.56s WALL (   10080 calls)
     init_us_2:cp :      2.49s CPU      2.53s WALL (   10080 calls)
     cegterg      :    284.79s CPU    289.22s WALL (    4928 calls)

     Called by *egterg:
     cdiaghg      :     30.72s CPU     30.98s WALL (   29341 calls)
     h_psi        :    165.02s CPU    168.25s WALL (   29453 calls)
     s_psi        :     18.64s CPU     18.79s WALL (   29453 calls)
     g_psi        :      0.56s CPU      0.56s WALL (   24413 calls)

     Called by h_psi:
     h_psi:calbec :     23.51s CPU     24.12s WALL (   29453 calls)
     vloc_psi     :    122.25s CPU    124.74s WALL (   29453 calls)
     add_vuspsi   :     18.72s CPU     18.87s WALL (   29453 calls)

     General routines
     calbec       :     32.23s CPU     33.03s WALL (   34829 calls)
     fft          :      1.04s CPU      1.13s WALL (     594 calls)
     ffts         :      0.17s CPU      0.17s WALL (      89 calls)
     fftw         :    127.44s CPU    130.06s WALL (  593976 calls)
     interpolate  :      0.20s CPU      0.21s WALL (      45 calls)

     Parallel routines

     PWSCF        :   5m39.13s CPU   5m44.90s WALL


   This run was terminated on:  19: 5:17  24Jun2025            

=------------------------------------------------------------------------------=
   JOB DONE.
=------------------------------------------------------------------------------=
Note: The following floating-point exceptions are signalling: IEEE_INVALID_FLAG
