
     Program PWSCF v.7.2 starts on 24Jun2025 at 20:28:30 

     This program is part of the open-source Quantum ESPRESSO suite
     for quantum simulation of materials; please cite
         "P. Giannozzi et al., J. Phys.:Condens. Matter 21 395502 (2009);
         "P. Giannozzi et al., J. Phys.:Condens. Matter 29 465901 (2017);
         "P. Giannozzi et al., J. Chem. Phys. 152 154105 (2020);
          URL http://www.quantum-espresso.org", 
     in publications or presentations arising from this work. More details at
     http://www.quantum-espresso.org/quote

     Parallel version (MPI), running on     8 processors

     MPI processes distributed on     1 nodes
     90676 MiB available memory on the printing compute node when the environment starts

     Reading input from /home/jvc/QEspresso7.2/ZnO_DataBase/scf_025_NOSYM.in/scf-6.80-1.45-0.25-3.in

     Current dimensions of program PWSCF are:
     Max number of different atomic species (ntypx) = 10
     Max number of k-points (npk) =  40000
     Max angular momentum in pseudopotentials (lmaxx) =  4
     file Zn.upf: wavefunction(s)  3D renormalized

     R & G space division:  proc/nbgrp/npool/nimage =       8
     Subspace diagonalization in iterative solution of the eigenvalue problem:
     a serial algorithm will be used


     Parallelization info
     --------------------
     sticks:   dense  smooth     PW     G-vecs:    dense   smooth      PW
     Min         160      81     24                 7354     2595     429
     Max         162      82     26                 7355     2598     432
     Sum        1285     649    199                58833    20773    3441

     Using Slab Decomposition



     bravais-lattice index     =            0
     lattice parameter (alat)  =       6.7967  a.u.
     unit-cell volume          =     435.0564 (a.u.)^3
     number of atoms/cell      =            4
     number of atomic types    =            2
     number of electrons       =        36.00
     number of Kohn-Sham states=           18
     kinetic-energy cutoff     =      50.0000  Ry
     charge density cutoff     =     400.0000  Ry
     scf convergence threshold =      1.0E-08
     mixing beta               =       0.3000
     number of iterations used =            8  plain     mixing
     Exchange-correlation= PBE
                           (   1   4   3   4   0   0   0)

     celldm(1)=   6.796704  celldm(2)=   0.000000  celldm(3)=   0.000000
     celldm(4)=   0.000000  celldm(5)=   0.000000  celldm(6)=   0.000000

     crystal axes: (cart. coord. in units of alat)
               a(1) = (   1.000000   0.000000   0.000000 )  
               a(2) = (  -0.500000   0.866025   0.000000 )  
               a(3) = (   0.000000   0.000000   1.600000 )  

     reciprocal axes: (cart. coord. in units 2 pi/alat)
               b(1) = (  1.000000  0.577350 -0.000000 )  
               b(2) = (  0.000000  1.154701  0.000000 )  
               b(3) = (  0.000000 -0.000000  0.625000 )  


     PseudoPot. # 1 for Zn read from file:
     ./pseudos/Zn.upf
     MD5 check sum: 7f56cabf9682ed8c977c2f7d0c5985c5
     Pseudo is Ultrasoft + core correction, Zval = 12.0
     Generated using &quot;atomic&quot; code by A. Dal Corso  v.6.2.2
     Using radial grid of 1201 points,  6 beta functions with: 
                l(1) =   0
                l(2) =   0
                l(3) =   1
                l(4) =   1
                l(5) =   2
                l(6) =   2
     Q(r) pseudized with 0 coefficients 


     PseudoPot. # 2 for O  read from file:
     ./pseudos/O.upf
     MD5 check sum: 91400c9766925bcf19f520983a725ff0
     Pseudo is Ultrasoft + core correction, Zval =  6.0
     Generated using &quot;atomic&quot; code by A. Dal Corso  v.6.3MaX
     Using radial grid of 1095 points,  4 beta functions with: 
                l(1) =   0
                l(2) =   0
                l(3) =   1
                l(4) =   1
     Q(r) pseudized with 0 coefficients 


     atomic species   valence    mass     pseudopotential
        Zn            12.00    63.38000     Zn( 1.00)
        O              6.00    15.99900     O ( 1.00)

     No symmetry found



   Cartesian axes

     site n.     atom                  positions (alat units)
         1           Zn  tau(   1) = (   0.3036328   0.2911061   1.0261784  )
         2           Zn  tau(   2) = (   0.2190204   0.5552491  -0.1812483  )
         3           O   tau(   3) = (   0.2297653   0.3978690   1.5553990  )
         4           O   tau(   4) = (  -0.0533903   0.4051622   0.3224431  )

     number of k points=   112

     Number of k-points >= 100: set verbosity='high' to print them.

     Dense  grid:    58833 G-vectors     FFT dimensions: (  45,  45,  72)

     Smooth grid:    20773 G-vectors     FFT dimensions: (  32,  32,  50)

     Estimated max dynamical RAM per process >      39.41 MB

     Estimated total dynamical RAM >     315.24 MB

     Check: negative core charge=   -0.000003

     Initial potential from superposition of free atoms

     starting charge      35.9925, renormalised to      36.0000
     Starting wfcs are   26 randomized atomic wfcs

     total cpu time spent up to now is        4.8 secs

     Self-consistent Calculation

     iteration #  1     ecut=    50.00 Ry     beta= 0.30
     Davidson diagonalization with overlap
     ethr =  1.00E-02,  avg # of iterations =  4.7

     total cpu time spent up to now is       14.0 secs

     total energy              =    -349.99326478 Ry
     estimated scf accuracy    <       1.96655937 Ry

     iteration #  2     ecut=    50.00 Ry     beta= 0.30
     Davidson diagonalization with overlap
     ethr =  5.46E-03,  avg # of iterations =  8.0

     total cpu time spent up to now is       23.7 secs

     total energy              =    -350.46560216 Ry
     estimated scf accuracy    <       2.47662436 Ry

     iteration #  3     ecut=    50.00 Ry     beta= 0.30
     Davidson diagonalization with overlap
     ethr =  5.46E-03,  avg # of iterations =  1.2

     total cpu time spent up to now is       29.2 secs

     total energy              =    -349.59934562 Ry
     estimated scf accuracy    <       1.46787408 Ry

     iteration #  4     ecut=    50.00 Ry     beta= 0.30
     Davidson diagonalization with overlap
     ethr =  4.08E-03,  avg # of iterations = 10.8

     total cpu time spent up to now is       43.7 secs

     total energy              =    -351.14696699 Ry
     estimated scf accuracy    <       4.74421344 Ry

     iteration #  5     ecut=    50.00 Ry     beta= 0.30
     Davidson diagonalization with overlap
     ethr =  4.08E-03,  avg # of iterations =  1.4

     total cpu time spent up to now is       49.4 secs

     total energy              =    -350.18061752 Ry
     estimated scf accuracy    <       3.29237861 Ry

     iteration #  6     ecut=    50.00 Ry     beta= 0.30
     Davidson diagonalization with overlap
     ethr =  4.08E-03,  avg # of iterations =  8.0

     total cpu time spent up to now is       58.3 secs

     total energy              =    -350.66001344 Ry
     estimated scf accuracy    <       0.11367931 Ry

     iteration #  7     ecut=    50.00 Ry     beta= 0.30
     Davidson diagonalization with overlap
     ethr =  3.16E-04,  avg # of iterations =  4.3

     total cpu time spent up to now is       65.5 secs

     total energy              =    -350.68825888 Ry
     estimated scf accuracy    <       0.18954515 Ry

     iteration #  8     ecut=    50.00 Ry     beta= 0.30
     Davidson diagonalization with overlap
     ethr =  3.16E-04,  avg # of iterations =  1.1

     total cpu time spent up to now is       71.0 secs

     total energy              =    -350.61568127 Ry
     estimated scf accuracy    <       0.17758676 Ry

     iteration #  9     ecut=    50.00 Ry     beta= 0.30
     Davidson diagonalization with overlap
     c_bands:  1 eigenvalues not converged
     ethr =  3.16E-04,  avg # of iterations = 14.0

     total cpu time spent up to now is       82.5 secs

     total energy              =    -350.84647934 Ry
     estimated scf accuracy    <       0.70366744 Ry

     iteration # 10     ecut=    50.00 Ry     beta= 0.30
     Davidson diagonalization with overlap
     ethr =  3.16E-04,  avg # of iterations =  7.5

     total cpu time spent up to now is       89.8 secs

     total energy              =    -350.55267582 Ry
     estimated scf accuracy    <       1.40590270 Ry

     iteration # 11     ecut=    50.00 Ry     beta= 0.30
     Davidson diagonalization with overlap
     c_bands:  1 eigenvalues not converged
     c_bands:  1 eigenvalues not converged
     ethr =  3.16E-04,  avg # of iterations =  9.4

     total cpu time spent up to now is       99.2 secs

     total energy              =    -350.64808876 Ry
     estimated scf accuracy    <       0.03336880 Ry

     iteration # 12     ecut=    50.00 Ry     beta= 0.30
     Davidson diagonalization with overlap
     c_bands:  1 eigenvalues not converged
     ethr =  9.27E-05,  avg # of iterations =  8.4

     total cpu time spent up to now is      107.3 secs

     total energy              =    -350.66011222 Ry
     estimated scf accuracy    <       0.05560853 Ry

     iteration # 13     ecut=    50.00 Ry     beta= 0.30
     Davidson diagonalization with overlap
     ethr =  9.27E-05,  avg # of iterations =  1.2

     total cpu time spent up to now is      112.3 secs

     total energy              =    -350.68166650 Ry
     estimated scf accuracy    <       0.04099321 Ry

     iteration # 14     ecut=    50.00 Ry     beta= 0.30
     Davidson diagonalization with overlap
     ethr =  9.27E-05,  avg # of iterations =  7.0

     total cpu time spent up to now is      119.9 secs

     total energy              =    -350.63901713 Ry
     estimated scf accuracy    <       0.20885225 Ry

     iteration # 15     ecut=    50.00 Ry     beta= 0.30
     Davidson diagonalization with overlap
     c_bands:  1 eigenvalues not converged
     ethr =  9.27E-05,  avg # of iterations =  7.5

     total cpu time spent up to now is      128.4 secs

     total energy              =    -350.66658080 Ry
     estimated scf accuracy    <       0.00896023 Ry

     iteration # 16     ecut=    50.00 Ry     beta= 0.30
     Davidson diagonalization with overlap
     c_bands:  1 eigenvalues not converged
     c_bands:  1 eigenvalues not converged
     ethr =  2.49E-05,  avg # of iterations =  8.6

     total cpu time spent up to now is      137.5 secs

     total energy              =    -350.66216564 Ry
     estimated scf accuracy    <       0.08904468 Ry

     iteration # 17     ecut=    50.00 Ry     beta= 0.30
     Davidson diagonalization with overlap
     ethr =  2.49E-05,  avg # of iterations =  4.7

     total cpu time spent up to now is      143.8 secs

     total energy              =    -350.66413900 Ry
     estimated scf accuracy    <       0.05259876 Ry

     iteration # 18     ecut=    50.00 Ry     beta= 0.30
     Davidson diagonalization with overlap
     ethr =  2.49E-05,  avg # of iterations =  1.2

     total cpu time spent up to now is      148.8 secs

     total energy              =    -350.66418261 Ry
     estimated scf accuracy    <       0.05153274 Ry

     iteration # 19     ecut=    50.00 Ry     beta= 0.30
     Davidson diagonalization with overlap
     ethr =  2.49E-05,  avg # of iterations =  1.2

     total cpu time spent up to now is      153.7 secs

     total energy              =    -350.66395236 Ry
     estimated scf accuracy    <       0.04982682 Ry

     iteration # 20     ecut=    50.00 Ry     beta= 0.30
     Davidson diagonalization with overlap
     ethr =  2.49E-05,  avg # of iterations =  1.2

     total cpu time spent up to now is      158.7 secs

     total energy              =    -350.66897046 Ry
     estimated scf accuracy    <       0.04585472 Ry

     iteration # 21     ecut=    50.00 Ry     beta= 0.30
     Davidson diagonalization with overlap
     ethr =  2.49E-05,  avg # of iterations =  3.7

     total cpu time spent up to now is      165.0 secs

     total energy              =    -350.64874191 Ry
     estimated scf accuracy    <       0.06918248 Ry

     iteration # 22     ecut=    50.00 Ry     beta= 0.30
     Davidson diagonalization with overlap
     c_bands:  1 eigenvalues not converged
     c_bands:  1 eigenvalues not converged
     c_bands:  1 eigenvalues not converged
     c_bands:  1 eigenvalues not converged
     c_bands:  1 eigenvalues not converged
     c_bands:  1 eigenvalues not converged
     c_bands:  1 eigenvalues not converged
     ethr =  2.49E-05,  avg # of iterations = 13.9

     total cpu time spent up to now is      176.2 secs

     total energy              =    -350.66051524 Ry
     estimated scf accuracy    <       0.01027624 Ry

     iteration # 23     ecut=    50.00 Ry     beta= 0.30
     Davidson diagonalization with overlap
     ethr =  2.49E-05,  avg # of iterations =  1.5

     total cpu time spent up to now is      181.2 secs

     total energy              =    -350.65851078 Ry
     estimated scf accuracy    <       0.00686328 Ry

     iteration # 24     ecut=    50.00 Ry     beta= 0.30
     Davidson diagonalization with overlap
     ethr =  1.91E-05,  avg # of iterations =  7.8

     total cpu time spent up to now is      189.3 secs

     total energy              =    -350.66105708 Ry
     estimated scf accuracy    <       0.00601053 Ry

     iteration # 25     ecut=    50.00 Ry     beta= 0.30
     Davidson diagonalization with overlap
     ethr =  1.67E-05,  avg # of iterations =  1.1

     total cpu time spent up to now is      194.3 secs

     total energy              =    -350.66038733 Ry
     estimated scf accuracy    <       0.00528318 Ry

     iteration # 26     ecut=    50.00 Ry     beta= 0.30
     Davidson diagonalization with overlap
     ethr =  1.47E-05,  avg # of iterations =  1.8

     total cpu time spent up to now is      199.7 secs

     total energy              =    -350.65997319 Ry
     estimated scf accuracy    <       0.00249875 Ry

     iteration # 27     ecut=    50.00 Ry     beta= 0.30
     Davidson diagonalization with overlap
     ethr =  6.94E-06,  avg # of iterations =  8.0

     total cpu time spent up to now is      207.4 secs

     total energy              =    -350.66089022 Ry
     estimated scf accuracy    <       0.00108605 Ry

     iteration # 28     ecut=    50.00 Ry     beta= 0.30
     Davidson diagonalization with overlap
     ethr =  3.02E-06,  avg # of iterations =  2.7

     total cpu time spent up to now is      212.9 secs

     total energy              =    -350.66086761 Ry
     estimated scf accuracy    <       0.00176051 Ry

     iteration # 29     ecut=    50.00 Ry     beta= 0.30
     Davidson diagonalization with overlap
     ethr =  3.02E-06,  avg # of iterations =  1.2

     total cpu time spent up to now is      217.9 secs

     total energy              =    -350.66050774 Ry
     estimated scf accuracy    <       0.00153848 Ry

     iteration # 30     ecut=    50.00 Ry     beta= 0.30
     Davidson diagonalization with overlap
     ethr =  3.02E-06,  avg # of iterations =  6.4

     total cpu time spent up to now is      224.8 secs

     total energy              =    -350.66071418 Ry
     estimated scf accuracy    <       0.00000175 Ry

     iteration # 31     ecut=    50.00 Ry     beta= 0.30
     Davidson diagonalization with overlap
     c_bands:  1 eigenvalues not converged
     c_bands:  3 eigenvalues not converged
     c_bands:  1 eigenvalues not converged
     c_bands:  3 eigenvalues not converged
     c_bands:  1 eigenvalues not converged
     c_bands:  3 eigenvalues not converged
     c_bands:  3 eigenvalues not converged
     c_bands:  1 eigenvalues not converged
     c_bands:  3 eigenvalues not converged
     c_bands:  3 eigenvalues not converged
     c_bands:  3 eigenvalues not converged
     c_bands:  1 eigenvalues not converged
     c_bands:  2 eigenvalues not converged
     c_bands:  3 eigenvalues not converged
     c_bands:  1 eigenvalues not converged
     c_bands:  3 eigenvalues not converged
     c_bands:  3 eigenvalues not converged
     c_bands:  1 eigenvalues not converged
     c_bands:  1 eigenvalues not converged
     c_bands:  1 eigenvalues not converged
     c_bands:  3 eigenvalues not converged
     c_bands:  1 eigenvalues not converged
     c_bands:  3 eigenvalues not converged
     c_bands:  2 eigenvalues not converged
     c_bands:  2 eigenvalues not converged
     c_bands:  1 eigenvalues not converged
     c_bands:  3 eigenvalues not converged
     c_bands:  1 eigenvalues not converged
     c_bands:  3 eigenvalues not converged
     c_bands:  3 eigenvalues not converged
     c_bands:  2 eigenvalues not converged
     c_bands:  1 eigenvalues not converged
     c_bands:  1 eigenvalues not converged
     c_bands:  3 eigenvalues not converged
     c_bands:  1 eigenvalues not converged
     c_bands:  3 eigenvalues not converged
     c_bands:  3 eigenvalues not converged
     c_bands:  3 eigenvalues not converged
     c_bands:  3 eigenvalues not converged
     c_bands:  3 eigenvalues not converged
     c_bands:  1 eigenvalues not converged
     c_bands:  3 eigenvalues not converged
     c_bands:  1 eigenvalues not converged
     c_bands:  1 eigenvalues not converged
     c_bands:  1 eigenvalues not converged
     c_bands:  2 eigenvalues not converged
     c_bands:  1 eigenvalues not converged
     c_bands:  2 eigenvalues not converged
     c_bands:  1 eigenvalues not converged
     c_bands:  3 eigenvalues not converged
     c_bands:  2 eigenvalues not converged
     c_bands:  3 eigenvalues not converged
     c_bands:  3 eigenvalues not converged
     c_bands:  2 eigenvalues not converged
     c_bands:  3 eigenvalues not converged
     c_bands:  2 eigenvalues not converged
     c_bands:  3 eigenvalues not converged
     c_bands:  1 eigenvalues not converged
     c_bands:  1 eigenvalues not converged
     c_bands:  1 eigenvalues not converged
     c_bands:  1 eigenvalues not converged
     c_bands:  2 eigenvalues not converged
     c_bands:  1 eigenvalues not converged
     c_bands:  3 eigenvalues not converged
     c_bands:  1 eigenvalues not converged
     c_bands:  1 eigenvalues not converged
     c_bands:  3 eigenvalues not converged
     c_bands:  1 eigenvalues not converged
     c_bands:  1 eigenvalues not converged
     c_bands:  1 eigenvalues not converged
     c_bands:  3 eigenvalues not converged
     c_bands:  3 eigenvalues not converged
     c_bands:  3 eigenvalues not converged
     ethr =  4.85E-09,  avg # of iterations = 18.7

     total cpu time spent up to now is      245.1 secs

     total energy              =    -350.66081050 Ry
     estimated scf accuracy    <       0.00036460 Ry

     iteration # 32     ecut=    50.00 Ry     beta= 0.30
     Davidson diagonalization with overlap
     c_bands:  1 eigenvalues not converged
     c_bands:  1 eigenvalues not converged
     c_bands:  1 eigenvalues not converged
     c_bands:  1 eigenvalues not converged
     c_bands:  1 eigenvalues not converged
     c_bands:  1 eigenvalues not converged
     c_bands:  1 eigenvalues not converged
     c_bands:  1 eigenvalues not converged
     c_bands:  1 eigenvalues not converged
     c_bands:  1 eigenvalues not converged
     c_bands:  1 eigenvalues not converged
     c_bands:  1 eigenvalues not converged
     c_bands:  1 eigenvalues not converged
     c_bands:  1 eigenvalues not converged
     ethr =  4.85E-09,  avg # of iterations = 10.3

     total cpu time spent up to now is      254.0 secs

     total energy              =    -350.66079494 Ry
     estimated scf accuracy    <       0.00035842 Ry

     iteration # 33     ecut=    50.00 Ry     beta= 0.30
     Davidson diagonalization with overlap
     c_bands:  1 eigenvalues not converged
     c_bands:  1 eigenvalues not converged
     c_bands:  1 eigenvalues not converged
     c_bands:  1 eigenvalues not converged
     c_bands:  1 eigenvalues not converged
     c_bands:  1 eigenvalues not converged
     c_bands:  1 eigenvalues not converged
     c_bands:  1 eigenvalues not converged
     c_bands:  1 eigenvalues not converged
     c_bands:  1 eigenvalues not converged
     c_bands:  1 eigenvalues not converged
     c_bands:  1 eigenvalues not converged
     c_bands:  1 eigenvalues not converged
     c_bands:  1 eigenvalues not converged
     c_bands:  1 eigenvalues not converged
     c_bands:  1 eigenvalues not converged
     c_bands:  1 eigenvalues not converged
     ethr =  4.85E-09,  avg # of iterations = 14.2

     total cpu time spent up to now is      265.5 secs

     total energy              =    -350.66073612 Ry
     estimated scf accuracy    <       0.00018639 Ry

     iteration # 34     ecut=    50.00 Ry     beta= 0.30
     Davidson diagonalization with overlap
     c_bands:  1 eigenvalues not converged
     c_bands:  3 eigenvalues not converged
     c_bands:  1 eigenvalues not converged
     c_bands:  3 eigenvalues not converged
     c_bands:  2 eigenvalues not converged
     c_bands:  1 eigenvalues not converged
     c_bands:  3 eigenvalues not converged
     c_bands:  1 eigenvalues not converged
     c_bands:  2 eigenvalues not converged
     c_bands:  2 eigenvalues not converged
     c_bands:  2 eigenvalues not converged
     c_bands:  2 eigenvalues not converged
     c_bands:  2 eigenvalues not converged
     c_bands:  2 eigenvalues not converged
     c_bands:  1 eigenvalues not converged
     c_bands:  3 eigenvalues not converged
     c_bands:  1 eigenvalues not converged
     c_bands:  3 eigenvalues not converged
     c_bands:  2 eigenvalues not converged
     c_bands:  2 eigenvalues not converged
     c_bands:  2 eigenvalues not converged
     c_bands:  1 eigenvalues not converged
     c_bands:  1 eigenvalues not converged
     c_bands:  1 eigenvalues not converged
     c_bands:  1 eigenvalues not converged
     c_bands:  1 eigenvalues not converged
     c_bands:  1 eigenvalues not converged
     c_bands:  1 eigenvalues not converged
     c_bands:  1 eigenvalues not converged
     c_bands:  3 eigenvalues not converged
     c_bands:  2 eigenvalues not converged
     c_bands:  3 eigenvalues not converged
     c_bands:  3 eigenvalues not converged
     c_bands:  3 eigenvalues not converged
     c_bands:  2 eigenvalues not converged
     c_bands:  3 eigenvalues not converged
     c_bands:  1 eigenvalues not converged
     c_bands:  3 eigenvalues not converged
     c_bands:  2 eigenvalues not converged
     c_bands:  1 eigenvalues not converged
     c_bands:  2 eigenvalues not converged
     c_bands:  1 eigenvalues not converged
     c_bands:  3 eigenvalues not converged
     c_bands:  1 eigenvalues not converged
     c_bands:  1 eigenvalues not converged
     c_bands:  3 eigenvalues not converged
     c_bands:  3 eigenvalues not converged
     c_bands:  1 eigenvalues not converged
     c_bands:  3 eigenvalues not converged
     c_bands:  1 eigenvalues not converged
     c_bands:  3 eigenvalues not converged
     c_bands:  1 eigenvalues not converged
     c_bands:  1 eigenvalues not converged
     c_bands:  1 eigenvalues not converged
     c_bands:  3 eigenvalues not converged
     c_bands:  1 eigenvalues not converged
     c_bands:  1 eigenvalues not converged
     c_bands:  2 eigenvalues not converged
     c_bands:  1 eigenvalues not converged
     c_bands:  1 eigenvalues not converged
     c_bands:  2 eigenvalues not converged
     c_bands:  1 eigenvalues not converged
     c_bands:  3 eigenvalues not converged
     c_bands:  2 eigenvalues not converged
     c_bands:  2 eigenvalues not converged
     c_bands:  3 eigenvalues not converged
     c_bands:  1 eigenvalues not converged
     c_bands:  3 eigenvalues not converged
     c_bands:  1 eigenvalues not converged
     c_bands:  2 eigenvalues not converged
     c_bands:  3 eigenvalues not converged
     c_bands:  3 eigenvalues not converged
     c_bands:  3 eigenvalues not converged
     c_bands:  1 eigenvalues not converged
     c_bands:  1 eigenvalues not converged
     c_bands:  3 eigenvalues not converged
     c_bands:  1 eigenvalues not converged
     c_bands:  2 eigenvalues not converged
     c_bands:  1 eigenvalues not converged
     c_bands:  3 eigenvalues not converged
     c_bands:  2 eigenvalues not converged
     c_bands:  1 eigenvalues not converged
     c_bands:  3 eigenvalues not converged
     c_bands:  1 eigenvalues not converged
     c_bands:  2 eigenvalues not converged
     c_bands:  2 eigenvalues not converged
     c_bands:  3 eigenvalues not converged
     c_bands:  2 eigenvalues not converged
     c_bands:  1 eigenvalues not converged
     c_bands:  3 eigenvalues not converged
     c_bands:  2 eigenvalues not converged
     c_bands:  3 eigenvalues not converged
     c_bands:  3 eigenvalues not converged
     c_bands:  1 eigenvalues not converged
     ethr =  4.85E-09,  avg # of iterations = 19.7

     total cpu time spent up to now is      287.1 secs

     total energy              =    -350.66078945 Ry
     estimated scf accuracy    <       0.00012580 Ry

     iteration # 35     ecut=    50.00 Ry     beta= 0.30
     Davidson diagonalization with overlap
     c_bands:  1 eigenvalues not converged
     c_bands:  1 eigenvalues not converged
     c_bands:  1 eigenvalues not converged
     ethr =  4.85E-09,  avg # of iterations =  8.9

     total cpu time spent up to now is      295.5 secs

     total energy              =    -350.66077688 Ry
     estimated scf accuracy    <       0.00009847 Ry

     iteration # 36     ecut=    50.00 Ry     beta= 0.30
     Davidson diagonalization with overlap
     c_bands:  1 eigenvalues not converged
     c_bands:  2 eigenvalues not converged
     c_bands:  1 eigenvalues not converged
     c_bands:  1 eigenvalues not converged
     c_bands:  1 eigenvalues not converged
     c_bands:  1 eigenvalues not converged
     c_bands:  1 eigenvalues not converged
     c_bands:  1 eigenvalues not converged
     c_bands:  1 eigenvalues not converged
     c_bands:  1 eigenvalues not converged
     c_bands:  1 eigenvalues not converged
     ethr =  4.85E-09,  avg # of iterations = 16.5

     total cpu time spent up to now is      308.8 secs

     total energy              =    -350.66078314 Ry
     estimated scf accuracy    <       0.00000525 Ry

     iteration # 37     ecut=    50.00 Ry     beta= 0.30
     Davidson diagonalization with overlap
     ethr =  4.85E-09,  avg # of iterations =  2.9

     total cpu time spent up to now is      314.4 secs

     total energy              =    -350.66078136 Ry
     estimated scf accuracy    <       0.00000783 Ry

     iteration # 38     ecut=    50.00 Ry     beta= 0.30
     Davidson diagonalization with overlap
     ethr =  4.85E-09,  avg # of iterations =  5.8

     total cpu time spent up to now is      321.3 secs

     total energy              =    -350.66078168 Ry
     estimated scf accuracy    <       0.00000103 Ry

     iteration # 39     ecut=    50.00 Ry     beta= 0.30
     Davidson diagonalization with overlap
     ethr =  2.86E-09,  avg # of iterations =  5.6

     total cpu time spent up to now is      328.2 secs

     total energy              =    -350.66078198 Ry
     estimated scf accuracy    <       0.00000009 Ry

     iteration # 40     ecut=    50.00 Ry     beta= 0.30
     Davidson diagonalization with overlap
     c_bands:  1 eigenvalues not converged
     c_bands:  1 eigenvalues not converged
     c_bands:  1 eigenvalues not converged
     c_bands:  1 eigenvalues not converged
     c_bands:  1 eigenvalues not converged
     c_bands:  1 eigenvalues not converged
     c_bands:  1 eigenvalues not converged
     ethr =  2.58E-10,  avg # of iterations = 10.2

     total cpu time spent up to now is      337.1 secs

     total energy              =    -350.66078192 Ry
     estimated scf accuracy    <       0.00000071 Ry

     iteration # 41     ecut=    50.00 Ry     beta= 0.30
     Davidson diagonalization with overlap
     ethr =  2.58E-10,  avg # of iterations =  8.5

     total cpu time spent up to now is      345.7 secs

     total energy              =    -350.66078198 Ry
     estimated scf accuracy    <       0.00000003 Ry

     iteration # 42     ecut=    50.00 Ry     beta= 0.30
     Davidson diagonalization with overlap
     c_bands:  1 eigenvalues not converged
     ethr =  7.50E-11,  avg # of iterations =  7.6

     total cpu time spent up to now is      352.8 secs

     total energy              =    -350.66078198 Ry
     estimated scf accuracy    <       0.00000004 Ry

     iteration # 43     ecut=    50.00 Ry     beta= 0.30
     Davidson diagonalization with overlap
     ethr =  7.50E-11,  avg # of iterations =  4.3

     total cpu time spent up to now is      358.8 secs

     End of self-consistent calculation

     Number of k-points >= 100: set verbosity='high' to print the bands.

     highest occupied level (ev):     5.8010

!    total energy              =    -350.66078198 Ry
     estimated scf accuracy    <          9.7E-09 Ry

     The total energy is the sum of the following terms:
     one-electron contribution =    -307.72185158 Ry
     hartree contribution      =     184.58843965 Ry
     xc contribution           =    -111.23195002 Ry
     ewald contribution        =    -116.29542003 Ry

     convergence has been achieved in  43 iterations

     Forces acting on atoms (cartesian axes, Ry/au):

     atom    1 type  1   force =     0.14422556   -0.42034452   -0.77600751
     atom    2 type  1   force =    -1.45301128   20.02798262  -16.47293118
     atom    3 type  2   force =     1.39971197  -19.59496769   17.07883794
     atom    4 type  2   force =    -0.09092626   -0.01267041    0.17010074
     The non-local contrib.  to forces
     atom    1 type  1   force =    -0.27027418    0.30556429    0.42367638
     atom    2 type  1   force =     0.44628702   -7.60610350    6.02319132
     atom    3 type  2   force =    -0.50800819    2.16406541   -1.71021821
     atom    4 type  2   force =     0.21163427    0.03820307   -0.24553482
     The ionic contribution  to forces
     atom    1 type  1   force =     3.94964730  -10.05215357  -32.72703498
     atom    2 type  1   force =    -4.54309795   61.05099558  -30.95029988
     atom    3 type  2   force =     5.40245056  -50.29003017   51.13056853
     atom    4 type  2   force =    -4.80899991   -0.70881184   12.54676632
     The local contribution  to forces
     atom    1 type  1   force =    -3.53045060    9.30028602   31.47502297
     atom    2 type  1   force =     2.57903710  -32.67870865    7.88878925
     atom    3 type  2   force =    -3.49562723   28.50113380  -32.31215571
     atom    4 type  2   force =     4.50739277    0.65801010  -12.13159226
     The core correction contribution to forces
     atom    1 type  1   force =    -0.00473055    0.02584197    0.05227200
     atom    2 type  1   force =     0.06478794   -0.73818909    0.56551907
     atom    3 type  2   force =     0.00088968    0.02979519   -0.02924595
     atom    4 type  2   force =    -0.00098966   -0.00011156    0.00051552
     The Hubbard contrib.    to forces
     atom    1 type  1   force =     0.00000000    0.00000000    0.00000000
     atom    2 type  1   force =     0.00000000    0.00000000    0.00000000
     atom    3 type  2   force =     0.00000000    0.00000000    0.00000000
     atom    4 type  2   force =     0.00000000    0.00000000    0.00000000
     The SCF correction term to forces
     atom    1 type  1   force =     0.00003264    0.00010193    0.00007139
     atom    2 type  1   force =    -0.00002633   -0.00002656   -0.00011568
     atom    3 type  2   force =     0.00000620    0.00005323   -0.00009546
     atom    4 type  2   force =     0.00003532    0.00002498   -0.00003874

     Total force =    36.783617     Total SCF correction =     0.000216

     Writing all to output data dir ./ZnO_ANN.save/

     init_run     :      4.21s CPU      4.33s WALL (       1 calls)
     electrons    :    348.74s CPU    354.02s WALL (       1 calls)
     forces       :      1.44s CPU      1.46s WALL (       1 calls)

     Called by init_run:
     wfcinit      :      2.97s CPU      3.04s WALL (       1 calls)
     potinit      :      0.39s CPU      0.39s WALL (       1 calls)
     hinit0       :      0.75s CPU      0.77s WALL (       1 calls)

     Called by electrons:
     c_bands      :    310.60s CPU    315.13s WALL (      43 calls)
     sum_band     :     33.94s CPU     34.57s WALL (      43 calls)
     v_of_rho     :      0.87s CPU      0.93s WALL (      44 calls)
     newd         :      3.19s CPU      3.24s WALL (      44 calls)
     mix_rho      :      0.13s CPU      0.16s WALL (      43 calls)

     Called by c_bands:
     init_us_2    :      2.59s CPU      2.62s WALL (    9856 calls)
     init_us_2:cp :      2.56s CPU      2.60s WALL (    9856 calls)
     cegterg      :    301.59s CPU    306.02s WALL (    4816 calls)

     Called by *egterg:
     cdiaghg      :     36.57s CPU     36.88s WALL (   37620 calls)
     h_psi        :    158.79s CPU    161.99s WALL (   37732 calls)
     s_psi        :     18.54s CPU     18.70s WALL (   37732 calls)
     g_psi        :      0.67s CPU      0.68s WALL (   32804 calls)

     Called by h_psi:
     h_psi:calbec :     26.96s CPU     27.64s WALL (   37732 calls)
     vloc_psi     :    112.79s CPU    115.16s WALL (   37732 calls)
     add_vuspsi   :     18.43s CPU     18.59s WALL (   37732 calls)

     General routines
     calbec       :     36.16s CPU     37.04s WALL (   42996 calls)
     fft          :      1.12s CPU      1.22s WALL (     581 calls)
     ffts         :      0.14s CPU      0.14s WALL (      87 calls)
     fftw         :    115.61s CPU    118.02s WALL (  617002 calls)
     interpolate  :      0.17s CPU      0.18s WALL (      44 calls)

     Parallel routines

     PWSCF        :   5m55.13s CPU   6m 0.81s WALL


   This run was terminated on:  20:34:31  24Jun2025            

=------------------------------------------------------------------------------=
   JOB DONE.
=------------------------------------------------------------------------------=
Note: The following floating-point exceptions are signalling: IEEE_INVALID_FLAG
