
     Program PWSCF v.7.2 starts on 24Jun2025 at 19:22:13 

     This program is part of the open-source Quantum ESPRESSO suite
     for quantum simulation of materials; please cite
         "P. Giannozzi et al., J. Phys.:Condens. Matter 21 395502 (2009);
         "P. Giannozzi et al., J. Phys.:Condens. Matter 29 465901 (2017);
         "P. Giannozzi et al., J. Chem. Phys. 152 154105 (2020);
          URL http://www.quantum-espresso.org", 
     in publications or presentations arising from this work. More details at
     http://www.quantum-espresso.org/quote

     Parallel version (MPI), running on     8 processors

     MPI processes distributed on     1 nodes
     90806 MiB available memory on the printing compute node when the environment starts

     Reading input from /home/jvc/QEspresso7.2/ZnO_DataBase/scf_025_NOSYM.in/scf-6.55-1.68-0.25-3.in

     Current dimensions of program PWSCF are:
     Max number of different atomic species (ntypx) = 10
     Max number of k-points (npk) =  40000
     Max angular momentum in pseudopotentials (lmaxx) =  4
     file Zn.upf: wavefunction(s)  3D renormalized

     R & G space division:  proc/nbgrp/npool/nimage =       8
     Subspace diagonalization in iterative solution of the eigenvalue problem:
     a serial algorithm will be used


     Parallelization info
     --------------------
     sticks:   dense  smooth     PW     G-vecs:    dense   smooth      PW
     Min         147      72     23                 6576     2326     385
     Max         148      73     24                 6577     2335     388
     Sum        1177     583    187                52615    18665    3091

     Using Slab Decomposition



     bravais-lattice index     =            0
     lattice parameter (alat)  =       6.5496  a.u.
     unit-cell volume          =     389.3007 (a.u.)^3
     number of atoms/cell      =            4
     number of atomic types    =            2
     number of electrons       =        36.00
     number of Kohn-Sham states=           18
     kinetic-energy cutoff     =      50.0000  Ry
     charge density cutoff     =     400.0000  Ry
     scf convergence threshold =      1.0E-08
     mixing beta               =       0.3000
     number of iterations used =            8  plain     mixing
     Exchange-correlation= PBE
                           (   1   4   3   4   0   0   0)

     celldm(1)=   6.549551  celldm(2)=   0.000000  celldm(3)=   0.000000
     celldm(4)=   0.000000  celldm(5)=   0.000000  celldm(6)=   0.000000

     crystal axes: (cart. coord. in units of alat)
               a(1) = (   1.000000   0.000000   0.000000 )  
               a(2) = (  -0.500000   0.866025   0.000000 )  
               a(3) = (   0.000000   0.000000   1.600000 )  

     reciprocal axes: (cart. coord. in units 2 pi/alat)
               b(1) = (  1.000000  0.577350 -0.000000 )  
               b(2) = (  0.000000  1.154701  0.000000 )  
               b(3) = (  0.000000 -0.000000  0.625000 )  


     PseudoPot. # 1 for Zn read from file:
     ./pseudos/Zn.upf
     MD5 check sum: 7f56cabf9682ed8c977c2f7d0c5985c5
     Pseudo is Ultrasoft + core correction, Zval = 12.0
     Generated using &quot;atomic&quot; code by A. Dal Corso  v.6.2.2
     Using radial grid of 1201 points,  6 beta functions with: 
                l(1) =   0
                l(2) =   0
                l(3) =   1
                l(4) =   1
                l(5) =   2
                l(6) =   2
     Q(r) pseudized with 0 coefficients 


     PseudoPot. # 2 for O  read from file:
     ./pseudos/O.upf
     MD5 check sum: 91400c9766925bcf19f520983a725ff0
     Pseudo is Ultrasoft + core correction, Zval =  6.0
     Generated using &quot;atomic&quot; code by A. Dal Corso  v.6.3MaX
     Using radial grid of 1095 points,  4 beta functions with: 
                l(1) =   0
                l(2) =   0
                l(3) =   1
                l(4) =   1
     Q(r) pseudized with 0 coefficients 


     atomic species   valence    mass     pseudopotential
        Zn            12.00    63.38000     Zn( 1.00)
        O              6.00    15.99900     O ( 1.00)

     No symmetry found



   Cartesian axes

     site n.     atom                  positions (alat units)
         1           Zn  tau(   1) = (   0.5416294   0.3768622   0.4031353  )
         2           Zn  tau(   2) = (   0.0288638   0.5702725   0.1573994  )
         3           O   tau(   3) = (   0.7013747   0.2453048   1.3171608  )
         4           O   tau(   4) = (  -0.2797758   0.7005498   0.3579238  )

     number of k points=   112

     Number of k-points >= 100: set verbosity='high' to print them.

     Dense  grid:    52615 G-vectors     FFT dimensions: (  45,  45,  72)

     Smooth grid:    18665 G-vectors     FFT dimensions: (  30,  30,  48)

     Estimated max dynamical RAM per process >      35.72 MB

     Estimated total dynamical RAM >     285.77 MB

     Check: negative core charge=   -0.000003

     Initial potential from superposition of free atoms

     starting charge      35.9925, renormalised to      36.0000
     Starting wfcs are   26 randomized atomic wfcs

     total cpu time spent up to now is        4.5 secs

     Self-consistent Calculation

     iteration #  1     ecut=    50.00 Ry     beta= 0.30
     Davidson diagonalization with overlap
     ethr =  1.00E-02,  avg # of iterations =  3.0

     total cpu time spent up to now is       10.8 secs

     total energy              =    -359.66273222 Ry
     estimated scf accuracy    <       1.64294723 Ry

     iteration #  2     ecut=    50.00 Ry     beta= 0.30
     Davidson diagonalization with overlap
     ethr =  4.56E-03,  avg # of iterations =  8.8

     total cpu time spent up to now is       19.5 secs

     total energy              =    -359.86390520 Ry
     estimated scf accuracy    <       1.08015116 Ry

     iteration #  3     ecut=    50.00 Ry     beta= 0.30
     Davidson diagonalization with overlap
     ethr =  3.00E-03,  avg # of iterations =  1.9

     total cpu time spent up to now is       25.2 secs

     total energy              =    -359.63000993 Ry
     estimated scf accuracy    <       0.50399165 Ry

     iteration #  4     ecut=    50.00 Ry     beta= 0.30
     Davidson diagonalization with overlap
     ethr =  1.40E-03,  avg # of iterations =  8.7

     total cpu time spent up to now is       36.8 secs

     total energy              =    -360.18243321 Ry
     estimated scf accuracy    <       2.14482400 Ry

     iteration #  5     ecut=    50.00 Ry     beta= 0.30
     Davidson diagonalization with overlap
     ethr =  1.40E-03,  avg # of iterations =  2.0

     total cpu time spent up to now is       42.6 secs

     total energy              =    -360.12594159 Ry
     estimated scf accuracy    <       1.36187059 Ry

     iteration #  6     ecut=    50.00 Ry     beta= 0.30
     Davidson diagonalization with overlap
     ethr =  1.40E-03,  avg # of iterations =  1.7

     total cpu time spent up to now is       48.2 secs

     total energy              =    -360.16698200 Ry
     estimated scf accuracy    <       1.11135562 Ry

     iteration #  7     ecut=    50.00 Ry     beta= 0.30
     Davidson diagonalization with overlap
     ethr =  1.40E-03,  avg # of iterations =  1.5

     total cpu time spent up to now is       53.7 secs

     total energy              =    -360.67647851 Ry
     estimated scf accuracy    <       1.02966766 Ry

     iteration #  8     ecut=    50.00 Ry     beta= 0.30
     Davidson diagonalization with overlap
     ethr =  1.40E-03,  avg # of iterations =  2.0

     total cpu time spent up to now is       59.9 secs

     total energy              =    -361.89115268 Ry
     estimated scf accuracy    <       2.02048631 Ry

     iteration #  9     ecut=    50.00 Ry     beta= 0.30
     Davidson diagonalization with overlap
     ethr =  1.40E-03,  avg # of iterations =  7.3

     total cpu time spent up to now is       71.3 secs

     total energy              =    -362.17285245 Ry
     estimated scf accuracy    <       9.11532003 Ry

     iteration # 10     ecut=    50.00 Ry     beta= 0.30
     Davidson diagonalization with overlap
     ethr =  1.40E-03,  avg # of iterations =  1.0

     total cpu time spent up to now is       76.4 secs

     total energy              =    -361.06727635 Ry
     estimated scf accuracy    <       8.49825522 Ry

     iteration # 11     ecut=    50.00 Ry     beta= 0.30
     Davidson diagonalization with overlap
     ethr =  1.40E-03,  avg # of iterations =  4.8

     total cpu time spent up to now is       83.3 secs

     total energy              =    -360.92672902 Ry
     estimated scf accuracy    <       5.68833118 Ry

     iteration # 12     ecut=    50.00 Ry     beta= 0.30
     Davidson diagonalization with overlap
     ethr =  1.40E-03,  avg # of iterations =  1.8

     total cpu time spent up to now is       88.9 secs

     total energy              =    -359.90648407 Ry
     estimated scf accuracy    <       5.02749979 Ry

     iteration # 13     ecut=    50.00 Ry     beta= 0.30
     Davidson diagonalization with overlap
     ethr =  1.40E-03,  avg # of iterations =  5.8

     total cpu time spent up to now is       98.5 secs

     total energy              =    -360.07275189 Ry
     estimated scf accuracy    <       1.30949844 Ry

     iteration # 14     ecut=    50.00 Ry     beta= 0.30
     Davidson diagonalization with overlap
     ethr =  1.40E-03,  avg # of iterations =  3.2

     total cpu time spent up to now is      104.6 secs

     total energy              =    -359.92365306 Ry
     estimated scf accuracy    <       0.66765929 Ry

     iteration # 15     ecut=    50.00 Ry     beta= 0.30
     Davidson diagonalization with overlap
     ethr =  1.40E-03,  avg # of iterations =  8.1

     total cpu time spent up to now is      113.4 secs

     total energy              =    -360.00584281 Ry
     estimated scf accuracy    <       0.29893192 Ry

     iteration # 16     ecut=    50.00 Ry     beta= 0.30
     Davidson diagonalization with overlap
     ethr =  8.30E-04,  avg # of iterations =  7.0

     total cpu time spent up to now is      122.0 secs

     total energy              =    -360.06023700 Ry
     estimated scf accuracy    <       0.38345250 Ry

     iteration # 17     ecut=    50.00 Ry     beta= 0.30
     Davidson diagonalization with overlap
     ethr =  8.30E-04,  avg # of iterations =  1.2

     total cpu time spent up to now is      127.3 secs

     total energy              =    -360.02168045 Ry
     estimated scf accuracy    <       0.22353835 Ry

     iteration # 18     ecut=    50.00 Ry     beta= 0.30
     Davidson diagonalization with overlap
     ethr =  6.21E-04,  avg # of iterations =  8.8

     total cpu time spent up to now is      135.7 secs

     total energy              =    -360.09392018 Ry
     estimated scf accuracy    <       0.18624491 Ry

     iteration # 19     ecut=    50.00 Ry     beta= 0.30
     Davidson diagonalization with overlap
     ethr =  5.17E-04,  avg # of iterations =  1.1

     total cpu time spent up to now is      140.9 secs

     total energy              =    -360.12574377 Ry
     estimated scf accuracy    <       0.16723163 Ry

     iteration # 20     ecut=    50.00 Ry     beta= 0.30
     Davidson diagonalization with overlap
     ethr =  4.65E-04,  avg # of iterations =  1.7

     total cpu time spent up to now is      146.4 secs

     total energy              =    -360.15822632 Ry
     estimated scf accuracy    <       0.24446849 Ry

     iteration # 21     ecut=    50.00 Ry     beta= 0.30
     Davidson diagonalization with overlap
     ethr =  4.65E-04,  avg # of iterations =  5.2

     total cpu time spent up to now is      153.3 secs

     total energy              =    -360.03689431 Ry
     estimated scf accuracy    <       0.69409917 Ry

     iteration # 22     ecut=    50.00 Ry     beta= 0.30
     Davidson diagonalization with overlap
     ethr =  4.65E-04,  avg # of iterations =  4.6

     total cpu time spent up to now is      160.1 secs

     total energy              =    -360.02770292 Ry
     estimated scf accuracy    <       0.14853199 Ry

     iteration # 23     ecut=    50.00 Ry     beta= 0.30
     Davidson diagonalization with overlap
     ethr =  4.13E-04,  avg # of iterations =  6.4

     total cpu time spent up to now is      168.2 secs

     total energy              =    -360.09295037 Ry
     estimated scf accuracy    <       0.10692286 Ry

     iteration # 24     ecut=    50.00 Ry     beta= 0.30
     Davidson diagonalization with overlap
     ethr =  2.97E-04,  avg # of iterations =  1.3

     total cpu time spent up to now is      173.5 secs

     total energy              =    -360.06840139 Ry
     estimated scf accuracy    <       0.09499350 Ry

     iteration # 25     ecut=    50.00 Ry     beta= 0.30
     Davidson diagonalization with overlap
     ethr =  2.64E-04,  avg # of iterations =  5.5

     total cpu time spent up to now is      180.2 secs

     total energy              =    -360.08247744 Ry
     estimated scf accuracy    <       0.00064624 Ry

     iteration # 26     ecut=    50.00 Ry     beta= 0.30
     Davidson diagonalization with overlap
     c_bands:  1 eigenvalues not converged
     c_bands:  1 eigenvalues not converged
     c_bands:  1 eigenvalues not converged
     c_bands:  1 eigenvalues not converged
     c_bands:  2 eigenvalues not converged
     c_bands:  1 eigenvalues not converged
     c_bands:  2 eigenvalues not converged
     c_bands:  3 eigenvalues not converged
     ethr =  1.80E-06,  avg # of iterations = 13.7

     total cpu time spent up to now is      194.9 secs

     total energy              =    -360.08508518 Ry
     estimated scf accuracy    <       0.00764432 Ry

     iteration # 27     ecut=    50.00 Ry     beta= 0.30
     Davidson diagonalization with overlap
     c_bands:  1 eigenvalues not converged
     ethr =  1.80E-06,  avg # of iterations =  7.8

     total cpu time spent up to now is      203.8 secs

     total energy              =    -360.08567542 Ry
     estimated scf accuracy    <       0.00080591 Ry

     iteration # 28     ecut=    50.00 Ry     beta= 0.30
     Davidson diagonalization with overlap
     c_bands:  1 eigenvalues not converged
     ethr =  1.80E-06,  avg # of iterations =  7.8

     total cpu time spent up to now is      212.5 secs

     total energy              =    -360.08596690 Ry
     estimated scf accuracy    <       0.00356580 Ry

     iteration # 29     ecut=    50.00 Ry     beta= 0.30
     Davidson diagonalization with overlap
     ethr =  1.80E-06,  avg # of iterations =  2.0

     total cpu time spent up to now is      218.1 secs

     total energy              =    -360.08537301 Ry
     estimated scf accuracy    <       0.00328970 Ry

     iteration # 30     ecut=    50.00 Ry     beta= 0.30
     Davidson diagonalization with overlap
     c_bands:  2 eigenvalues not converged
     ethr =  1.80E-06,  avg # of iterations =  7.0

     total cpu time spent up to now is      228.9 secs

     total energy              =    -360.08576859 Ry
     estimated scf accuracy    <       0.00210509 Ry

     iteration # 31     ecut=    50.00 Ry     beta= 0.30
     Davidson diagonalization with overlap
     ethr =  1.80E-06,  avg # of iterations =  1.1

     total cpu time spent up to now is      234.1 secs

     total energy              =    -360.08581182 Ry
     estimated scf accuracy    <       0.00202563 Ry

     iteration # 32     ecut=    50.00 Ry     beta= 0.30
     Davidson diagonalization with overlap
     ethr =  1.80E-06,  avg # of iterations =  7.5

     total cpu time spent up to now is      245.6 secs

     total energy              =    -360.08553097 Ry
     estimated scf accuracy    <       0.00567573 Ry

     iteration # 33     ecut=    50.00 Ry     beta= 0.30
     Davidson diagonalization with overlap
     ethr =  1.80E-06,  avg # of iterations =  3.6

     total cpu time spent up to now is      251.8 secs

     total energy              =    -360.08505364 Ry
     estimated scf accuracy    <       0.00331613 Ry

     iteration # 34     ecut=    50.00 Ry     beta= 0.30
     Davidson diagonalization with overlap
     c_bands:  1 eigenvalues not converged
     c_bands:  1 eigenvalues not converged
     ethr =  1.80E-06,  avg # of iterations =  7.5

     total cpu time spent up to now is      260.5 secs

     total energy              =    -360.08554815 Ry
     estimated scf accuracy    <       0.00006957 Ry

     iteration # 35     ecut=    50.00 Ry     beta= 0.30
     Davidson diagonalization with overlap
     c_bands:  2 eigenvalues not converged
     c_bands:  1 eigenvalues not converged
     c_bands:  1 eigenvalues not converged
     c_bands:  1 eigenvalues not converged
     c_bands:  1 eigenvalues not converged
     c_bands:  1 eigenvalues not converged
     c_bands:  1 eigenvalues not converged
     c_bands:  1 eigenvalues not converged
     c_bands:  1 eigenvalues not converged
     ethr =  1.93E-07,  avg # of iterations = 10.1

     total cpu time spent up to now is      270.7 secs

     total energy              =    -360.08560718 Ry
     estimated scf accuracy    <       0.00069758 Ry

     iteration # 36     ecut=    50.00 Ry     beta= 0.30
     Davidson diagonalization with overlap
     ethr =  1.93E-07,  avg # of iterations =  2.4

     total cpu time spent up to now is      276.4 secs

     total energy              =    -360.08543415 Ry
     estimated scf accuracy    <       0.00075953 Ry

     iteration # 37     ecut=    50.00 Ry     beta= 0.30
     Davidson diagonalization with overlap
     c_bands:  1 eigenvalues not converged
     c_bands:  1 eigenvalues not converged
     c_bands:  1 eigenvalues not converged
     c_bands:  1 eigenvalues not converged
     c_bands:  1 eigenvalues not converged
     c_bands:  1 eigenvalues not converged
     c_bands:  1 eigenvalues not converged
     ethr =  1.93E-07,  avg # of iterations = 11.1

     total cpu time spent up to now is      287.1 secs

     total energy              =    -360.08552531 Ry
     estimated scf accuracy    <       0.00005081 Ry

     iteration # 38     ecut=    50.00 Ry     beta= 0.30
     Davidson diagonalization with overlap
     c_bands:  1 eigenvalues not converged
     ethr =  1.41E-07,  avg # of iterations =  7.6

     total cpu time spent up to now is      295.7 secs

     total energy              =    -360.08555599 Ry
     estimated scf accuracy    <       0.00016032 Ry

     iteration # 39     ecut=    50.00 Ry     beta= 0.30
     Davidson diagonalization with overlap
     ethr =  1.41E-07,  avg # of iterations =  1.1

     total cpu time spent up to now is      300.8 secs

     total energy              =    -360.08554459 Ry
     estimated scf accuracy    <       0.00015839 Ry

     iteration # 40     ecut=    50.00 Ry     beta= 0.30
     Davidson diagonalization with overlap
     ethr =  1.41E-07,  avg # of iterations =  1.8

     total cpu time spent up to now is      306.2 secs

     total energy              =    -360.08552830 Ry
     estimated scf accuracy    <       0.00010950 Ry

     iteration # 41     ecut=    50.00 Ry     beta= 0.30
     Davidson diagonalization with overlap
     ethr =  1.41E-07,  avg # of iterations =  2.9

     total cpu time spent up to now is      312.1 secs

     total energy              =    -360.08552462 Ry
     estimated scf accuracy    <       0.00005096 Ry

     iteration # 42     ecut=    50.00 Ry     beta= 0.30
     Davidson diagonalization with overlap
     ethr =  1.41E-07,  avg # of iterations =  7.6

     total cpu time spent up to now is      319.7 secs

     total energy              =    -360.08553946 Ry
     estimated scf accuracy    <       0.00001161 Ry

     iteration # 43     ecut=    50.00 Ry     beta= 0.30
     Davidson diagonalization with overlap
     ethr =  3.22E-08,  avg # of iterations =  3.8

     total cpu time spent up to now is      325.8 secs

     total energy              =    -360.08553856 Ry
     estimated scf accuracy    <       0.00001522 Ry

     iteration # 44     ecut=    50.00 Ry     beta= 0.30
     Davidson diagonalization with overlap
     ethr =  3.22E-08,  avg # of iterations =  3.6

     total cpu time spent up to now is      331.7 secs

     total energy              =    -360.08553802 Ry
     estimated scf accuracy    <       0.00000472 Ry

     iteration # 45     ecut=    50.00 Ry     beta= 0.30
     Davidson diagonalization with overlap
     ethr =  1.31E-08,  avg # of iterations =  8.2

     total cpu time spent up to now is      340.1 secs

     total energy              =    -360.08554097 Ry
     estimated scf accuracy    <       0.00000641 Ry

     iteration # 46     ecut=    50.00 Ry     beta= 0.30
     Davidson diagonalization with overlap
     ethr =  1.31E-08,  avg # of iterations =  1.2

     total cpu time spent up to now is      345.2 secs

     total energy              =    -360.08554009 Ry
     estimated scf accuracy    <       0.00000704 Ry

     iteration # 47     ecut=    50.00 Ry     beta= 0.30
     Davidson diagonalization with overlap
     ethr =  1.31E-08,  avg # of iterations =  1.4

     total cpu time spent up to now is      350.4 secs

     total energy              =    -360.08553962 Ry
     estimated scf accuracy    <       0.00000452 Ry

     iteration # 48     ecut=    50.00 Ry     beta= 0.30
     Davidson diagonalization with overlap
     ethr =  1.25E-08,  avg # of iterations =  2.0

     total cpu time spent up to now is      356.0 secs

     total energy              =    -360.08553983 Ry
     estimated scf accuracy    <       0.00000251 Ry

     iteration # 49     ecut=    50.00 Ry     beta= 0.30
     Davidson diagonalization with overlap
     ethr =  6.97E-09,  avg # of iterations =  1.7

     total cpu time spent up to now is      361.4 secs

     total energy              =    -360.08553983 Ry
     estimated scf accuracy    <       0.00000224 Ry

     iteration # 50     ecut=    50.00 Ry     beta= 0.30
     Davidson diagonalization with overlap
     ethr =  6.22E-09,  avg # of iterations =  2.2

     total cpu time spent up to now is      367.0 secs

     total energy              =    -360.08553976 Ry
     estimated scf accuracy    <       0.00000156 Ry

     iteration # 51     ecut=    50.00 Ry     beta= 0.30
     Davidson diagonalization with overlap
     ethr =  4.33E-09,  avg # of iterations =  5.5

     total cpu time spent up to now is      373.7 secs

     total energy              =    -360.08554007 Ry
     estimated scf accuracy    <       0.00000004 Ry

     iteration # 52     ecut=    50.00 Ry     beta= 0.30
     Davidson diagonalization with overlap
     c_bands:  1 eigenvalues not converged
     c_bands:  1 eigenvalues not converged
     c_bands:  1 eigenvalues not converged
     c_bands:  1 eigenvalues not converged
     c_bands:  1 eigenvalues not converged
     c_bands:  1 eigenvalues not converged
     c_bands:  1 eigenvalues not converged
     c_bands:  1 eigenvalues not converged
     c_bands:  1 eigenvalues not converged
     ethr =  1.12E-10,  avg # of iterations = 12.5

     total cpu time spent up to now is      384.9 secs

     total energy              =    -360.08554024 Ry
     estimated scf accuracy    <       0.00000118 Ry

     iteration # 53     ecut=    50.00 Ry     beta= 0.30
     Davidson diagonalization with overlap
     ethr =  1.12E-10,  avg # of iterations =  2.4

     total cpu time spent up to now is      390.6 secs

     total energy              =    -360.08554043 Ry
     estimated scf accuracy    <       0.00000105 Ry

     iteration # 54     ecut=    50.00 Ry     beta= 0.30
     Davidson diagonalization with overlap
     c_bands:  1 eigenvalues not converged
     c_bands:  1 eigenvalues not converged
     c_bands:  1 eigenvalues not converged
     c_bands:  1 eigenvalues not converged
     c_bands:  1 eigenvalues not converged
     c_bands:  1 eigenvalues not converged
     ethr =  1.12E-10,  avg # of iterations = 10.9

     total cpu time spent up to now is      403.0 secs

     total energy              =    -360.08554035 Ry
     estimated scf accuracy    <       0.00000249 Ry

     iteration # 55     ecut=    50.00 Ry     beta= 0.30
     Davidson diagonalization with overlap
     ethr =  1.12E-10,  avg # of iterations =  4.9

     total cpu time spent up to now is      409.6 secs

     total energy              =    -360.08554016 Ry
     estimated scf accuracy    <       0.00000201 Ry

     iteration # 56     ecut=    50.00 Ry     beta= 0.30
     Davidson diagonalization with overlap
     c_bands:  2 eigenvalues not converged
     c_bands:  1 eigenvalues not converged
     c_bands:  1 eigenvalues not converged
     c_bands:  1 eigenvalues not converged
     ethr =  1.12E-10,  avg # of iterations =  9.9

     total cpu time spent up to now is      420.3 secs

     total energy              =    -360.08554021 Ry
     estimated scf accuracy    <       0.00000059 Ry

     iteration # 57     ecut=    50.00 Ry     beta= 0.30
     Davidson diagonalization with overlap
     ethr =  1.12E-10,  avg # of iterations =  1.6

     total cpu time spent up to now is      425.6 secs

     total energy              =    -360.08554022 Ry
     estimated scf accuracy    <       0.00000050 Ry

     iteration # 58     ecut=    50.00 Ry     beta= 0.30
     Davidson diagonalization with overlap
     ethr =  1.12E-10,  avg # of iterations =  1.1

     total cpu time spent up to now is      430.8 secs

     total energy              =    -360.08554023 Ry
     estimated scf accuracy    <       0.00000051 Ry

     iteration # 59     ecut=    50.00 Ry     beta= 0.30
     Davidson diagonalization with overlap
     ethr =  1.12E-10,  avg # of iterations =  1.0

     total cpu time spent up to now is      435.9 secs

     total energy              =    -360.08554017 Ry
     estimated scf accuracy    <       0.00000054 Ry

     iteration # 60     ecut=    50.00 Ry     beta= 0.30
     Davidson diagonalization with overlap
     ethr =  1.12E-10,  avg # of iterations =  8.5

     total cpu time spent up to now is      444.7 secs

     total energy              =    -360.08554016 Ry
     estimated scf accuracy    <       0.00000009 Ry

     iteration # 61     ecut=    50.00 Ry     beta= 0.30
     Davidson diagonalization with overlap
     c_bands:  1 eigenvalues not converged
     c_bands:  1 eigenvalues not converged
     ethr =  1.12E-10,  avg # of iterations =  7.5

     total cpu time spent up to now is      453.9 secs

     total energy              =    -360.08554018 Ry
     estimated scf accuracy    <       0.00000004 Ry

     iteration # 62     ecut=    50.00 Ry     beta= 0.30
     Davidson diagonalization with overlap
     ethr =  1.12E-10,  avg # of iterations =  1.2

     total cpu time spent up to now is      459.2 secs

     total energy              =    -360.08554018 Ry
     estimated scf accuracy    <       0.00000004 Ry

     iteration # 63     ecut=    50.00 Ry     beta= 0.30
     Davidson diagonalization with overlap
     ethr =  1.01E-10,  avg # of iterations =  3.6

     total cpu time spent up to now is      465.8 secs

     total energy              =    -360.08554018 Ry
     estimated scf accuracy    <       0.00000001 Ry

     iteration # 64     ecut=    50.00 Ry     beta= 0.30
     Davidson diagonalization with overlap
     ethr =  3.46E-11,  avg # of iterations =  5.3

     total cpu time spent up to now is      472.7 secs

     End of self-consistent calculation

     Number of k-points >= 100: set verbosity='high' to print the bands.

     highest occupied level (ev):     5.9457

!    total energy              =    -360.08554018 Ry
     estimated scf accuracy    <          3.1E-09 Ry

     The total energy is the sum of the following terms:
     one-electron contribution =    -304.64054965 Ry
     hartree contribution      =     187.49628685 Ry
     xc contribution           =    -109.96682674 Ry
     ewald contribution        =    -132.97445065 Ry

     convergence has been achieved in  64 iterations

     Forces acting on atoms (cartesian axes, Ry/au):

     atom    1 type  1   force =    -0.90033464   -1.61369925    0.36133720
     atom    2 type  1   force =     1.07907016   -0.33335302   -0.99373945
     atom    3 type  2   force =    -0.00134966   -0.01142037    0.09851982
     atom    4 type  2   force =    -0.17738585    1.95847264    0.53388242
     The non-local contrib.  to forces
     atom    1 type  1   force =    -0.21568277   -0.78420750    0.17027966
     atom    2 type  1   force =     0.66561122   -0.28019082    0.13623301
     atom    3 type  2   force =     0.09740476    0.02141673    0.68126551
     atom    4 type  2   force =     0.44135281   -0.83423824    0.01914353
     The ionic contribution  to forces
     atom    1 type  1   force =    -9.26453322  -16.40280937   25.36366354
     atom    2 type  1   force =    14.02276627   -1.99243196  -22.37875253
     atom    3 type  2   force =    -0.41165654   -1.14625700  -15.02973793
     atom    4 type  2   force =    -4.34657652   19.54149832   12.04482692
     The local contribution  to forces
     atom    1 type  1   force =     8.48312693   15.39164864  -25.12202030
     atom    2 type  1   force =   -13.46361417    1.89074935   21.15976432
     atom    3 type  2   force =     0.31377019    1.11335140   14.45312520
     atom    4 type  2   force =     3.73075724  -16.74672892  -11.52697308
     The core correction contribution to forces
     atom    1 type  1   force =     0.09666550    0.18156506   -0.05059650
     atom    2 type  1   force =    -0.14556647    0.04848043    0.08899377
     atom    3 type  2   force =    -0.00087421    0.00009934   -0.00608959
     atom    4 type  2   force =    -0.00291792   -0.00204402   -0.00312351
     The Hubbard contrib.    to forces
     atom    1 type  1   force =     0.00000000    0.00000000    0.00000000
     atom    2 type  1   force =     0.00000000    0.00000000    0.00000000
     atom    3 type  2   force =     0.00000000    0.00000000    0.00000000
     atom    4 type  2   force =     0.00000000    0.00000000    0.00000000
     The SCF correction term to forces
     atom    1 type  1   force =     0.00008270    0.00012988    0.00002243
     atom    2 type  1   force =    -0.00013289    0.00006593    0.00003360
     atom    3 type  2   force =    -0.00000009   -0.00000488   -0.00003172
     atom    4 type  2   force =    -0.00000767    0.00001145    0.00002019

     Total force =     3.157559     Total SCF correction =     0.000221

     Writing all to output data dir ./ZnO_ANN.save/

     init_run     :      3.90s CPU      3.99s WALL (       1 calls)
     electrons    :    461.09s CPU    468.26s WALL (       1 calls)
     forces       :      1.39s CPU      1.41s WALL (       1 calls)

     Called by init_run:
     wfcinit      :      2.85s CPU      2.90s WALL (       1 calls)
     potinit      :      0.39s CPU      0.39s WALL (       1 calls)
     hinit0       :      0.57s CPU      0.58s WALL (       1 calls)

     Called by electrons:
     c_bands      :    403.46s CPU    409.50s WALL (      64 calls)
     sum_band     :     51.73s CPU     52.70s WALL (      64 calls)
     v_of_rho     :      1.26s CPU      1.34s WALL (      65 calls)
     newd         :      4.37s CPU      4.43s WALL (      65 calls)
     mix_rho      :      0.21s CPU      0.23s WALL (      64 calls)

     Called by c_bands:
     init_us_2    :      3.61s CPU      3.67s WALL (   14560 calls)
     init_us_2:cp :      3.56s CPU      3.63s WALL (   14560 calls)
     cegterg      :    391.10s CPU    396.97s WALL (    7168 calls)

     Called by *egterg:
     cdiaghg      :     41.74s CPU     42.10s WALL (   41565 calls)
     h_psi        :    227.16s CPU    231.46s WALL (   41677 calls)
     s_psi        :     25.54s CPU     25.74s WALL (   41677 calls)
     g_psi        :      0.75s CPU      0.76s WALL (   34397 calls)

     Called by h_psi:
     h_psi:calbec :     32.50s CPU     33.32s WALL (   41677 calls)
     vloc_psi     :    168.35s CPU    171.64s WALL (   41677 calls)
     add_vuspsi   :     25.56s CPU     25.77s WALL (   41677 calls)

     General routines
     calbec       :     44.90s CPU     45.99s WALL (   49293 calls)
     fft          :      1.38s CPU      1.51s WALL (     854 calls)
     ffts         :      0.18s CPU      0.19s WALL (     129 calls)
     fftw         :    176.52s CPU    180.02s WALL (  824476 calls)
     interpolate  :      0.22s CPU      0.23s WALL (      65 calls)

     Parallel routines

     PWSCF        :   7m47.15s CPU   7m54.73s WALL


   This run was terminated on:  19:30: 8  24Jun2025            

=------------------------------------------------------------------------------=
   JOB DONE.
=------------------------------------------------------------------------------=
Note: The following floating-point exceptions are signalling: IEEE_INVALID_FLAG
