
     Program PWSCF v.7.2 starts on 24Jun2025 at 18: 2:19 

     This program is part of the open-source Quantum ESPRESSO suite
     for quantum simulation of materials; please cite
         "P. Giannozzi et al., J. Phys.:Condens. Matter 21 395502 (2009);
         "P. Giannozzi et al., J. Phys.:Condens. Matter 29 465901 (2017);
         "P. Giannozzi et al., J. Chem. Phys. 152 154105 (2020);
          URL http://www.quantum-espresso.org", 
     in publications or presentations arising from this work. More details at
     http://www.quantum-espresso.org/quote

     Parallel version (MPI), running on     8 processors

     MPI processes distributed on     1 nodes
     90901 MiB available memory on the printing compute node when the environment starts

     Reading input from /home/jvc/QEspresso7.2/ZnO_DataBase/scf_025_NOSYM.in/scf-6.30-1.78-0.25-4.in

     Current dimensions of program PWSCF are:
     Max number of different atomic species (ntypx) = 10
     Max number of k-points (npk) =  40000
     Max angular momentum in pseudopotentials (lmaxx) =  4
     file Zn.upf: wavefunction(s)  3D renormalized

     R & G space division:  proc/nbgrp/npool/nimage =       8
     Subspace diagonalization in iterative solution of the eigenvalue problem:
     a serial algorithm will be used


     Parallelization info
     --------------------
     sticks:   dense  smooth     PW     G-vecs:    dense   smooth      PW
     Min         137      68     20                 5853     2068     346
     Max         138      69     21                 5856     2075     353
     Sum        1099     547    163                46835    16563    2791

     Using Slab Decomposition



     bravais-lattice index     =            0
     lattice parameter (alat)  =       6.3024  a.u.
     unit-cell volume          =     346.8711 (a.u.)^3
     number of atoms/cell      =            4
     number of atomic types    =            2
     number of electrons       =        36.00
     number of Kohn-Sham states=           18
     kinetic-energy cutoff     =      50.0000  Ry
     charge density cutoff     =     400.0000  Ry
     scf convergence threshold =      1.0E-08
     mixing beta               =       0.3000
     number of iterations used =            8  plain     mixing
     Exchange-correlation= PBE
                           (   1   4   3   4   0   0   0)

     celldm(1)=   6.302398  celldm(2)=   0.000000  celldm(3)=   0.000000
     celldm(4)=   0.000000  celldm(5)=   0.000000  celldm(6)=   0.000000

     crystal axes: (cart. coord. in units of alat)
               a(1) = (   1.000000   0.000000   0.000000 )  
               a(2) = (  -0.500000   0.866025   0.000000 )  
               a(3) = (   0.000000   0.000000   1.600000 )  

     reciprocal axes: (cart. coord. in units 2 pi/alat)
               b(1) = (  1.000000  0.577350 -0.000000 )  
               b(2) = (  0.000000  1.154701  0.000000 )  
               b(3) = (  0.000000 -0.000000  0.625000 )  


     PseudoPot. # 1 for Zn read from file:
     ./pseudos/Zn.upf
     MD5 check sum: 7f56cabf9682ed8c977c2f7d0c5985c5
     Pseudo is Ultrasoft + core correction, Zval = 12.0
     Generated using &quot;atomic&quot; code by A. Dal Corso  v.6.2.2
     Using radial grid of 1201 points,  6 beta functions with: 
                l(1) =   0
                l(2) =   0
                l(3) =   1
                l(4) =   1
                l(5) =   2
                l(6) =   2
     Q(r) pseudized with 0 coefficients 


     PseudoPot. # 2 for O  read from file:
     ./pseudos/O.upf
     MD5 check sum: 91400c9766925bcf19f520983a725ff0
     Pseudo is Ultrasoft + core correction, Zval =  6.0
     Generated using &quot;atomic&quot; code by A. Dal Corso  v.6.3MaX
     Using radial grid of 1095 points,  4 beta functions with: 
                l(1) =   0
                l(2) =   0
                l(3) =   1
                l(4) =   1
     Q(r) pseudized with 0 coefficients 


     atomic species   valence    mass     pseudopotential
        Zn            12.00    63.38000     Zn( 1.00)
        O              6.00    15.99900     O ( 1.00)

     No symmetry found



   Cartesian axes

     site n.     atom                  positions (alat units)
         1           Zn  tau(   1) = (   0.3063853   0.2065923   0.4135720  )
         2           Zn  tau(   2) = (  -0.1355611   0.5770579  -0.1010086  )
         3           O   tau(   3) = (   0.4918110   0.2124266   1.1370803  )
         4           O   tau(   4) = (   0.1086226   0.6297936   0.3518232  )

     number of k points=   112

     Number of k-points >= 100: set verbosity='high' to print them.

     Dense  grid:    46835 G-vectors     FFT dimensions: (  45,  45,  72)

     Smooth grid:    16563 G-vectors     FFT dimensions: (  30,  30,  45)

     Estimated max dynamical RAM per process >      32.29 MB

     Estimated total dynamical RAM >     258.31 MB

     Check: negative core charge=   -0.000002

     Initial potential from superposition of free atoms

     starting charge      35.9925, renormalised to      36.0000
     Starting wfcs are   26 randomized atomic wfcs

     total cpu time spent up to now is        4.2 secs

     Self-consistent Calculation

     iteration #  1     ecut=    50.00 Ry     beta= 0.30
     Davidson diagonalization with overlap
     ethr =  1.00E-02,  avg # of iterations =  2.0

     total cpu time spent up to now is        9.7 secs

     total energy              =    -361.07083490 Ry
     estimated scf accuracy    <       0.95736571 Ry

     iteration #  2     ecut=    50.00 Ry     beta= 0.30
     Davidson diagonalization with overlap
     ethr =  2.66E-03,  avg # of iterations =  3.4

     total cpu time spent up to now is       16.3 secs

     total energy              =    -361.24250635 Ry
     estimated scf accuracy    <       0.09925598 Ry

     iteration #  3     ecut=    50.00 Ry     beta= 0.30
     Davidson diagonalization with overlap
     c_bands:  2 eigenvalues not converged
     ethr =  2.76E-04,  avg # of iterations =  6.7

     total cpu time spent up to now is       27.0 secs

     total energy              =    -361.28741979 Ry
     estimated scf accuracy    <       0.08584974 Ry

     iteration #  4     ecut=    50.00 Ry     beta= 0.30
     Davidson diagonalization with overlap
     ethr =  2.38E-04,  avg # of iterations =  6.3

     total cpu time spent up to now is       34.9 secs

     total energy              =    -361.30562957 Ry
     estimated scf accuracy    <       0.04255360 Ry

     iteration #  5     ecut=    50.00 Ry     beta= 0.30
     Davidson diagonalization with overlap
     ethr =  1.18E-04,  avg # of iterations =  3.6

     total cpu time spent up to now is       40.9 secs

     total energy              =    -361.30517343 Ry
     estimated scf accuracy    <       0.00818185 Ry

     iteration #  6     ecut=    50.00 Ry     beta= 0.30
     Davidson diagonalization with overlap
     c_bands:  2 eigenvalues not converged
     c_bands:  1 eigenvalues not converged
     c_bands:  1 eigenvalues not converged
     ethr =  2.27E-05,  avg # of iterations = 10.7

     total cpu time spent up to now is       52.3 secs

     total energy              =    -361.31293951 Ry
     estimated scf accuracy    <       0.09346347 Ry

     iteration #  7     ecut=    50.00 Ry     beta= 0.30
     Davidson diagonalization with overlap
     ethr =  2.27E-05,  avg # of iterations =  7.0

     total cpu time spent up to now is       60.0 secs

     total energy              =    -361.30580516 Ry
     estimated scf accuracy    <       0.02237765 Ry

     iteration #  8     ecut=    50.00 Ry     beta= 0.30
     Davidson diagonalization with overlap
     c_bands:  1 eigenvalues not converged
     ethr =  2.27E-05,  avg # of iterations =  7.3

     total cpu time spent up to now is       68.7 secs

     total energy              =    -361.31343256 Ry
     estimated scf accuracy    <       0.00933099 Ry

     iteration #  9     ecut=    50.00 Ry     beta= 0.30
     Davidson diagonalization with overlap
     ethr =  2.27E-05,  avg # of iterations =  1.1

     total cpu time spent up to now is       73.5 secs

     total energy              =    -361.31120316 Ry
     estimated scf accuracy    <       0.00632220 Ry

     iteration # 10     ecut=    50.00 Ry     beta= 0.30
     Davidson diagonalization with overlap
     ethr =  1.76E-05,  avg # of iterations =  6.4

     total cpu time spent up to now is       80.8 secs

     total energy              =    -361.31295475 Ry
     estimated scf accuracy    <       0.00102844 Ry

     iteration # 11     ecut=    50.00 Ry     beta= 0.30
     Davidson diagonalization with overlap
     ethr =  2.86E-06,  avg # of iterations =  5.4

     total cpu time spent up to now is       87.5 secs

     total energy              =    -361.31316864 Ry
     estimated scf accuracy    <       0.00001220 Ry

     iteration # 12     ecut=    50.00 Ry     beta= 0.30
     Davidson diagonalization with overlap
     c_bands:  2 eigenvalues not converged
     c_bands:  1 eigenvalues not converged
     ethr =  3.39E-08,  avg # of iterations =  8.8

     total cpu time spent up to now is      100.1 secs

     total energy              =    -361.31320038 Ry
     estimated scf accuracy    <       0.00001448 Ry

     iteration # 13     ecut=    50.00 Ry     beta= 0.30
     Davidson diagonalization with overlap
     ethr =  3.39E-08,  avg # of iterations =  3.2

     total cpu time spent up to now is      106.0 secs

     total energy              =    -361.31320002 Ry
     estimated scf accuracy    <       0.00000439 Ry

     iteration # 14     ecut=    50.00 Ry     beta= 0.30
     Davidson diagonalization with overlap
     c_bands:  1 eigenvalues not converged
     ethr =  1.22E-08,  avg # of iterations =  6.2

     total cpu time spent up to now is      116.7 secs

     total energy              =    -361.31320266 Ry
     estimated scf accuracy    <       0.00000377 Ry

     iteration # 15     ecut=    50.00 Ry     beta= 0.30
     Davidson diagonalization with overlap
     ethr =  1.05E-08,  avg # of iterations =  5.8

     total cpu time spent up to now is      124.0 secs

     total energy              =    -361.31320225 Ry
     estimated scf accuracy    <       0.00000488 Ry

     iteration # 16     ecut=    50.00 Ry     beta= 0.30
     Davidson diagonalization with overlap
     ethr =  1.05E-08,  avg # of iterations =  3.2

     total cpu time spent up to now is      130.1 secs

     total energy              =    -361.31320240 Ry
     estimated scf accuracy    <       0.00000214 Ry

     iteration # 17     ecut=    50.00 Ry     beta= 0.30
     Davidson diagonalization with overlap
     ethr =  5.96E-09,  avg # of iterations =  5.9

     total cpu time spent up to now is      137.9 secs

     total energy              =    -361.31320292 Ry
     estimated scf accuracy    <       0.00000066 Ry

     iteration # 18     ecut=    50.00 Ry     beta= 0.30
     Davidson diagonalization with overlap
     ethr =  1.82E-09,  avg # of iterations =  2.3

     total cpu time spent up to now is      143.6 secs

     total energy              =    -361.31320278 Ry
     estimated scf accuracy    <       0.00000026 Ry

     iteration # 19     ecut=    50.00 Ry     beta= 0.30
     Davidson diagonalization with overlap
     ethr =  7.14E-10,  avg # of iterations =  7.5

     total cpu time spent up to now is      156.9 secs

     total energy              =    -361.31320291 Ry
     estimated scf accuracy    <       0.00000105 Ry

     iteration # 20     ecut=    50.00 Ry     beta= 0.30
     Davidson diagonalization with overlap
     ethr =  7.14E-10,  avg # of iterations =  4.4

     total cpu time spent up to now is      165.0 secs

     total energy              =    -361.31320298 Ry
     estimated scf accuracy    <       0.00000013 Ry

     iteration # 21     ecut=    50.00 Ry     beta= 0.30
     Davidson diagonalization with overlap
     ethr =  3.73E-10,  avg # of iterations =  1.8

     total cpu time spent up to now is      170.3 secs

     total energy              =    -361.31320297 Ry
     estimated scf accuracy    <       0.00000008 Ry

     iteration # 22     ecut=    50.00 Ry     beta= 0.30
     Davidson diagonalization with overlap
     ethr =  2.29E-10,  avg # of iterations =  4.4

     total cpu time spent up to now is      178.3 secs

     total energy              =    -361.31320299 Ry
     estimated scf accuracy    <       0.00000002 Ry

     iteration # 23     ecut=    50.00 Ry     beta= 0.30
     Davidson diagonalization with overlap
     ethr =  4.67E-11,  avg # of iterations =  2.8

     total cpu time spent up to now is      183.9 secs

     End of self-consistent calculation

     Number of k-points >= 100: set verbosity='high' to print the bands.

     highest occupied level (ev):     7.2219

!    total energy              =    -361.31320299 Ry
     estimated scf accuracy    <          6.5E-09 Ry

     The total energy is the sum of the following terms:
     one-electron contribution =    -191.96272670 Ry
     hartree contribution      =     134.81376527 Ry
     xc contribution           =    -109.49367120 Ry
     ewald contribution        =    -194.67057036 Ry

     convergence has been achieved in  23 iterations

     Forces acting on atoms (cartesian axes, Ry/au):

     atom    1 type  1   force =     0.14059148   -0.25318098    0.17724790
     atom    2 type  1   force =    -0.08048708   -0.04386151   -0.33461405
     atom    3 type  2   force =     0.00010270    0.01300958    0.07746907
     atom    4 type  2   force =    -0.06020709    0.28403292    0.07989707
     The non-local contrib.  to forces
     atom    1 type  1   force =     0.06586989   -0.43890204   -0.08619647
     atom    2 type  1   force =    -0.14681188   -0.09911525    0.27852140
     atom    3 type  2   force =     0.06511978    0.02542182    0.67023930
     atom    4 type  2   force =    -0.45197733   -0.33079872   -0.50478695
     The ionic contribution  to forces
     atom    1 type  1   force =     0.71618163   -2.89813239   16.64039284
     atom    2 type  1   force =    -3.04602403   -2.30958558  -18.50266590
     atom    3 type  2   force =    -0.13929890    0.61434778   -7.30231730
     atom    4 type  2   force =     2.46914130    4.59337019    9.16459037
     The local contribution  to forces
     atom    1 type  1   force =    -0.62893779    3.03689331  -16.35796598
     atom    2 type  1   force =     3.08917036    2.35427977   17.86305380
     atom    3 type  2   force =     0.07491478   -0.62623474    6.71602917
     atom    4 type  2   force =    -2.08166278   -3.97978119   -8.58358286
     The core correction contribution to forces
     atom    1 type  1   force =    -0.01252228    0.04694035   -0.01909903
     atom    2 type  1   force =     0.02316153    0.01055186    0.02657507
     atom    3 type  2   force =    -0.00063230   -0.00051624   -0.00641714
     atom    4 type  2   force =     0.00428928    0.00124668    0.00362757
     The Hubbard contrib.    to forces
     atom    1 type  1   force =     0.00000000    0.00000000    0.00000000
     atom    2 type  1   force =     0.00000000    0.00000000    0.00000000
     atom    3 type  2   force =     0.00000000    0.00000000    0.00000000
     atom    4 type  2   force =     0.00000000    0.00000000    0.00000000
     The SCF correction term to forces
     atom    1 type  1   force =     0.00000445    0.00002610    0.00012315
     atom    2 type  1   force =     0.00002136    0.00001400   -0.00009182
     atom    3 type  2   force =     0.00000375   -0.00000273   -0.00005834
     atom    4 type  2   force =     0.00000686    0.00000227    0.00005556

     Total force =     0.576633     Total SCF correction =     0.000178

     Writing all to output data dir ./ZnO_ANN.save/

     init_run     :      3.70s CPU      3.78s WALL (       1 calls)
     electrons    :    176.30s CPU    179.65s WALL (       1 calls)
     forces       :      1.17s CPU      1.18s WALL (       1 calls)

     Called by init_run:
     wfcinit      :      2.69s CPU      2.74s WALL (       1 calls)
     potinit      :      0.32s CPU      0.33s WALL (       1 calls)
     hinit0       :      0.60s CPU      0.62s WALL (       1 calls)

     Called by electrons:
     c_bands      :    156.75s CPU    159.61s WALL (      23 calls)
     sum_band     :     17.67s CPU     18.10s WALL (      23 calls)
     v_of_rho     :      0.47s CPU      0.49s WALL (      24 calls)
     newd         :      1.38s CPU      1.42s WALL (      24 calls)
     mix_rho      :      0.07s CPU      0.08s WALL (      23 calls)

     Called by c_bands:
     init_us_2    :      1.28s CPU      1.31s WALL (    5376 calls)
     init_us_2:cp :      1.26s CPU      1.29s WALL (    5376 calls)
     cegterg      :    152.79s CPU    155.56s WALL (    2576 calls)

     Called by *egterg:
     cdiaghg      :     17.22s CPU     17.36s WALL (   15608 calls)
     h_psi        :     91.36s CPU     93.50s WALL (   15720 calls)
     s_psi        :     11.40s CPU     11.48s WALL (   15720 calls)
     g_psi        :      0.30s CPU      0.30s WALL (   13032 calls)

     Called by h_psi:
     h_psi:calbec :     11.98s CPU     12.40s WALL (   15720 calls)
     vloc_psi     :     67.66s CPU     69.27s WALL (   15720 calls)
     add_vuspsi   :     11.41s CPU     11.52s WALL (   15720 calls)

     General routines
     calbec       :     16.32s CPU     16.87s WALL (   18744 calls)
     fft          :      0.51s CPU      0.55s WALL (     321 calls)
     ffts         :      0.11s CPU      0.12s WALL (      47 calls)
     fftw         :     68.34s CPU     69.95s WALL (  335586 calls)
     interpolate  :      0.13s CPU      0.14s WALL (      24 calls)

     Parallel routines

     PWSCF        :   3m 1.86s CPU   3m 5.56s WALL


   This run was terminated on:  18: 5:25  24Jun2025            

=------------------------------------------------------------------------------=
   JOB DONE.
=------------------------------------------------------------------------------=
Note: The following floating-point exceptions are signalling: IEEE_INVALID_FLAG
