
     Program PWSCF v.7.2 starts on 24Jun2025 at 17:28:53 

     This program is part of the open-source Quantum ESPRESSO suite
     for quantum simulation of materials; please cite
         "P. Giannozzi et al., J. Phys.:Condens. Matter 21 395502 (2009);
         "P. Giannozzi et al., J. Phys.:Condens. Matter 29 465901 (2017);
         "P. Giannozzi et al., J. Chem. Phys. 152 154105 (2020);
          URL http://www.quantum-espresso.org", 
     in publications or presentations arising from this work. More details at
     http://www.quantum-espresso.org/quote

     Parallel version (MPI), running on     8 processors

     MPI processes distributed on     1 nodes
     90849 MiB available memory on the printing compute node when the environment starts

     Reading input from /home/jvc/QEspresso7.2/ZnO_DataBase/scf_025_NOSYM.in/scf-6.30-1.49-0.25-3.in

     Current dimensions of program PWSCF are:
     Max number of different atomic species (ntypx) = 10
     Max number of k-points (npk) =  40000
     Max angular momentum in pseudopotentials (lmaxx) =  4
     file Zn.upf: wavefunction(s)  3D renormalized

     R & G space division:  proc/nbgrp/npool/nimage =       8
     Subspace diagonalization in iterative solution of the eigenvalue problem:
     a serial algorithm will be used


     Parallelization info
     --------------------
     sticks:   dense  smooth     PW     G-vecs:    dense   smooth      PW
     Min         137      68     20                 5853     2068     346
     Max         138      69     21                 5856     2075     353
     Sum        1099     547    163                46835    16563    2791

     Using Slab Decomposition



     bravais-lattice index     =            0
     lattice parameter (alat)  =       6.3024  a.u.
     unit-cell volume          =     346.8711 (a.u.)^3
     number of atoms/cell      =            4
     number of atomic types    =            2
     number of electrons       =        36.00
     number of Kohn-Sham states=           18
     kinetic-energy cutoff     =      50.0000  Ry
     charge density cutoff     =     400.0000  Ry
     scf convergence threshold =      1.0E-08
     mixing beta               =       0.3000
     number of iterations used =            8  plain     mixing
     Exchange-correlation= PBE
                           (   1   4   3   4   0   0   0)

     celldm(1)=   6.302398  celldm(2)=   0.000000  celldm(3)=   0.000000
     celldm(4)=   0.000000  celldm(5)=   0.000000  celldm(6)=   0.000000

     crystal axes: (cart. coord. in units of alat)
               a(1) = (   1.000000   0.000000   0.000000 )  
               a(2) = (  -0.500000   0.866025   0.000000 )  
               a(3) = (   0.000000   0.000000   1.600000 )  

     reciprocal axes: (cart. coord. in units 2 pi/alat)
               b(1) = (  1.000000  0.577350 -0.000000 )  
               b(2) = (  0.000000  1.154701  0.000000 )  
               b(3) = (  0.000000 -0.000000  0.625000 )  


     PseudoPot. # 1 for Zn read from file:
     ./pseudos/Zn.upf
     MD5 check sum: 7f56cabf9682ed8c977c2f7d0c5985c5
     Pseudo is Ultrasoft + core correction, Zval = 12.0
     Generated using &quot;atomic&quot; code by A. Dal Corso  v.6.2.2
     Using radial grid of 1201 points,  6 beta functions with: 
                l(1) =   0
                l(2) =   0
                l(3) =   1
                l(4) =   1
                l(5) =   2
                l(6) =   2
     Q(r) pseudized with 0 coefficients 


     PseudoPot. # 2 for O  read from file:
     ./pseudos/O.upf
     MD5 check sum: 91400c9766925bcf19f520983a725ff0
     Pseudo is Ultrasoft + core correction, Zval =  6.0
     Generated using &quot;atomic&quot; code by A. Dal Corso  v.6.3MaX
     Using radial grid of 1095 points,  4 beta functions with: 
                l(1) =   0
                l(2) =   0
                l(3) =   1
                l(4) =   1
     Q(r) pseudized with 0 coefficients 


     atomic species   valence    mass     pseudopotential
        Zn            12.00    63.38000     Zn( 1.00)
        O              6.00    15.99900     O ( 1.00)

     No symmetry found



   Cartesian axes

     site n.     atom                  positions (alat units)
         1           Zn  tau(   1) = (   0.2131816   0.4277404   0.7066467  )
         2           Zn  tau(   2) = (   0.0703837   0.5279647  -0.3924467  )
         3           O   tau(   3) = (   0.3500077   0.3495752   1.0353468  )
         4           O   tau(   4) = (   0.3011652   0.4351346   0.8218072  )

     number of k points=   112

     Number of k-points >= 100: set verbosity='high' to print them.

     Dense  grid:    46835 G-vectors     FFT dimensions: (  45,  45,  72)

     Smooth grid:    16563 G-vectors     FFT dimensions: (  30,  30,  45)

     Estimated max dynamical RAM per process >      32.29 MB

     Estimated total dynamical RAM >     258.31 MB

     Check: negative core charge=   -0.000002

     Initial potential from superposition of free atoms

     starting charge      35.9925, renormalised to      36.0000
     Starting wfcs are   26 randomized atomic wfcs

     total cpu time spent up to now is        4.2 secs

     Self-consistent Calculation

     iteration #  1     ecut=    50.00 Ry     beta= 0.30
     Davidson diagonalization with overlap
     ethr =  1.00E-02,  avg # of iterations =  6.0

     total cpu time spent up to now is       15.6 secs

     total energy              =    -319.17789944 Ry
     estimated scf accuracy    <       2.49916663 Ry

     iteration #  2     ecut=    50.00 Ry     beta= 0.30
     Davidson diagonalization with overlap
     ethr =  6.94E-03,  avg # of iterations =  1.9

     total cpu time spent up to now is       21.0 secs

     total energy              =    -318.85996645 Ry
     estimated scf accuracy    <       0.72152082 Ry

     iteration #  3     ecut=    50.00 Ry     beta= 0.30
     Davidson diagonalization with overlap
     ethr =  2.00E-03,  avg # of iterations =  6.2

     total cpu time spent up to now is       30.4 secs

     total energy              =    -319.20943448 Ry
     estimated scf accuracy    <       0.39422383 Ry

     iteration #  4     ecut=    50.00 Ry     beta= 0.30
     Davidson diagonalization with overlap
     ethr =  1.10E-03,  avg # of iterations =  1.1

     total cpu time spent up to now is       35.3 secs

     total energy              =    -319.03234928 Ry
     estimated scf accuracy    <       0.28270585 Ry

     iteration #  5     ecut=    50.00 Ry     beta= 0.30
     Davidson diagonalization with overlap
     ethr =  7.85E-04,  avg # of iterations =  5.7

     total cpu time spent up to now is       43.8 secs

     total energy              =    -319.15704325 Ry
     estimated scf accuracy    <       0.16872105 Ry

     iteration #  6     ecut=    50.00 Ry     beta= 0.30
     Davidson diagonalization with overlap
     ethr =  4.69E-04,  avg # of iterations =  2.0

     total cpu time spent up to now is       49.2 secs

     total energy              =    -319.11287366 Ry
     estimated scf accuracy    <       0.07153352 Ry

     iteration #  7     ecut=    50.00 Ry     beta= 0.30
     Davidson diagonalization with overlap
     ethr =  1.99E-04,  avg # of iterations =  6.9

     total cpu time spent up to now is       58.9 secs

     total energy              =    -319.13178024 Ry
     estimated scf accuracy    <       0.09944209 Ry

     iteration #  8     ecut=    50.00 Ry     beta= 0.30
     Davidson diagonalization with overlap
     ethr =  1.99E-04,  avg # of iterations =  5.8

     total cpu time spent up to now is       66.4 secs

     total energy              =    -319.15712218 Ry
     estimated scf accuracy    <       0.00188704 Ry

     iteration #  9     ecut=    50.00 Ry     beta= 0.30
     Davidson diagonalization with overlap
     c_bands:  1 eigenvalues not converged
     c_bands:  1 eigenvalues not converged
     ethr =  5.24E-06,  avg # of iterations =  6.5

     total cpu time spent up to now is       76.3 secs

     total energy              =    -319.15656888 Ry
     estimated scf accuracy    <       0.00606030 Ry

     iteration # 10     ecut=    50.00 Ry     beta= 0.30
     Davidson diagonalization with overlap
     ethr =  5.24E-06,  avg # of iterations =  5.4

     total cpu time spent up to now is       84.2 secs

     total energy              =    -319.15720453 Ry
     estimated scf accuracy    <       0.00030632 Ry

     iteration # 11     ecut=    50.00 Ry     beta= 0.30
     Davidson diagonalization with overlap
     ethr =  8.51E-07,  avg # of iterations =  5.0

     total cpu time spent up to now is       92.3 secs

     total energy              =    -319.15732946 Ry
     estimated scf accuracy    <       0.00000798 Ry

     iteration # 12     ecut=    50.00 Ry     beta= 0.30
     Davidson diagonalization with overlap
     c_bands:  1 eigenvalues not converged
     c_bands:  1 eigenvalues not converged
     ethr =  2.22E-08,  avg # of iterations = 10.6

     total cpu time spent up to now is      107.9 secs

     total energy              =    -319.15729395 Ry
     estimated scf accuracy    <       0.00016117 Ry

     iteration # 13     ecut=    50.00 Ry     beta= 0.30
     Davidson diagonalization with overlap
     c_bands:  1 eigenvalues not converged
     ethr =  2.22E-08,  avg # of iterations =  8.4

     total cpu time spent up to now is      121.8 secs

     total energy              =    -319.15732798 Ry
     estimated scf accuracy    <       0.00000094 Ry

     iteration # 14     ecut=    50.00 Ry     beta= 0.30
     Davidson diagonalization with overlap
     c_bands:  1 eigenvalues not converged
     ethr =  2.61E-09,  avg # of iterations =  5.1

     total cpu time spent up to now is      129.7 secs

     total energy              =    -319.15732840 Ry
     estimated scf accuracy    <       0.00000007 Ry

     iteration # 15     ecut=    50.00 Ry     beta= 0.30
     Davidson diagonalization with overlap
     ethr =  2.00E-10,  avg # of iterations =  5.5

     total cpu time spent up to now is      137.7 secs

     total energy              =    -319.15732843 Ry
     estimated scf accuracy    <       0.00000003 Ry

     iteration # 16     ecut=    50.00 Ry     beta= 0.30
     Davidson diagonalization with overlap
     ethr =  8.16E-11,  avg # of iterations =  2.5

     total cpu time spent up to now is      143.5 secs

     total energy              =    -319.15732843 Ry
     estimated scf accuracy    <       0.00000001 Ry

     iteration # 17     ecut=    50.00 Ry     beta= 0.30
     Davidson diagonalization with overlap
     ethr =  3.27E-11,  avg # of iterations =  5.7

     total cpu time spent up to now is      151.7 secs

     End of self-consistent calculation

     Number of k-points >= 100: set verbosity='high' to print the bands.

     highest occupied level (ev):     9.7685

!    total energy              =    -319.15732843 Ry
     estimated scf accuracy    <          3.6E-09 Ry

     The total energy is the sum of the following terms:
     one-electron contribution =    -459.06765428 Ry
     hartree contribution      =     256.25654909 Ry
     xc contribution           =    -116.34677248 Ry
     ewald contribution        =       0.00054923 Ry

     convergence has been achieved in  17 iterations

     Forces acting on atoms (cartesian axes, Ry/au):

     atom    1 type  1   force =   -62.75505254   -4.44764625  -84.57492770
     atom    2 type  1   force =    -2.23875251    1.35722601    2.33539115
     atom    3 type  2   force =     4.65387014   -4.48827814    8.82674453
     atom    4 type  2   force =    60.33993491    7.57869838   73.41279202
     The non-local contrib.  to forces
     atom    1 type  1   force =    20.24138322    1.62684107   27.67140932
     atom    2 type  1   force =     0.66922801   -0.22952062   -1.76905902
     atom    3 type  2   force =    -1.42180995    1.69162016   -3.25946608
     atom    4 type  2   force =    -3.40269018   -1.38189706   -2.16172908
     The ionic contribution  to forces
     atom    1 type  1   force =  -106.93927599   -6.70526419 -188.46829217
     atom    2 type  1   force =   -23.58004598   13.94541219   55.21720903
     atom    3 type  2   force =    28.69115870  -24.79617279   42.41787059
     atom    4 type  2   force =   101.82816328   17.55602480   90.83321255
     The local contribution  to forces
     atom    1 type  1   force =    22.67485164    0.52669418   74.51031803
     atom    2 type  1   force =    20.49831867  -12.24822602  -50.94865162
     atom    3 type  2   force =   -22.60570096   18.60743242  -30.30826914
     atom    4 type  2   force =   -37.88845893   -8.57316445  -15.01270022
     The core correction contribution to forces
     atom    1 type  1   force =     1.26798684    0.10406879    1.71192185
     atom    2 type  1   force =     0.17380812   -0.11049165   -0.16426345
     atom    3 type  2   force =    -0.00979529    0.00885230   -0.02333282
     atom    4 type  2   force =    -0.19708606   -0.02227500   -0.24583356
     The Hubbard contrib.    to forces
     atom    1 type  1   force =     0.00000000    0.00000000    0.00000000
     atom    2 type  1   force =     0.00000000    0.00000000    0.00000000
     atom    3 type  2   force =     0.00000000    0.00000000    0.00000000
     atom    4 type  2   force =     0.00000000    0.00000000    0.00000000
     The SCF correction term to forces
     atom    1 type  1   force =     0.00000226    0.00003046   -0.00032369
     atom    2 type  1   force =    -0.00006081    0.00006866    0.00011724
     atom    3 type  2   force =     0.00001816    0.00000633   -0.00009699
     atom    4 type  2   force =     0.00000732    0.00002665   -0.00019665

     Total force =   142.585770     Total SCF correction =     0.000421

     Writing all to output data dir ./ZnO_ANN.save/

     init_run     :      3.69s CPU      3.79s WALL (       1 calls)
     electrons    :    144.71s CPU    147.44s WALL (       1 calls)
     forces       :      1.21s CPU      1.22s WALL (       1 calls)

     Called by init_run:
     wfcinit      :      2.74s CPU      2.79s WALL (       1 calls)
     potinit      :      0.34s CPU      0.35s WALL (       1 calls)
     hinit0       :      0.53s CPU      0.55s WALL (       1 calls)

     Called by electrons:
     c_bands      :    130.19s CPU    132.57s WALL (      17 calls)
     sum_band     :     13.14s CPU     13.44s WALL (      17 calls)
     v_of_rho     :      0.34s CPU      0.37s WALL (      18 calls)
     newd         :      1.05s CPU      1.07s WALL (      18 calls)
     mix_rho      :      0.05s CPU      0.05s WALL (      17 calls)

     Called by c_bands:
     init_us_2    :      0.98s CPU      1.00s WALL (    4032 calls)
     init_us_2:cp :      0.97s CPU      0.99s WALL (    4032 calls)
     cegterg      :    127.22s CPU    129.55s WALL (    1904 calls)

     Called by *egterg:
     cdiaghg      :     14.39s CPU     14.49s WALL (   12019 calls)
     h_psi        :     76.17s CPU     77.96s WALL (   12131 calls)
     s_psi        :      9.48s CPU      9.56s WALL (   12131 calls)
     g_psi        :      0.26s CPU      0.26s WALL (   10115 calls)

     Called by h_psi:
     h_psi:calbec :      9.83s CPU     10.16s WALL (   12131 calls)
     vloc_psi     :     56.59s CPU     57.96s WALL (   12131 calls)
     add_vuspsi   :      9.50s CPU      9.59s WALL (   12131 calls)

     General routines
     calbec       :     13.19s CPU     13.61s WALL (   14483 calls)
     fft          :      0.39s CPU      0.43s WALL (     243 calls)
     ffts         :      0.11s CPU      0.11s WALL (      35 calls)
     fftw         :     56.24s CPU     57.59s WALL (  271774 calls)
     interpolate  :      0.12s CPU      0.13s WALL (      18 calls)

     Parallel routines

     PWSCF        :   2m30.36s CPU   2m33.46s WALL


   This run was terminated on:  17:31:26  24Jun2025            

=------------------------------------------------------------------------------=
   JOB DONE.
=------------------------------------------------------------------------------=
Note: The following floating-point exceptions are signalling: IEEE_INVALID_FLAG
