
     Program PWSCF v.7.2 starts on 24Jun2025 at 19:31:39 

     This program is part of the open-source Quantum ESPRESSO suite
     for quantum simulation of materials; please cite
         "P. Giannozzi et al., J. Phys.:Condens. Matter 21 395502 (2009);
         "P. Giannozzi et al., J. Phys.:Condens. Matter 29 465901 (2017);
         "P. Giannozzi et al., J. Chem. Phys. 152 154105 (2020);
          URL http://www.quantum-espresso.org", 
     in publications or presentations arising from this work. More details at
     http://www.quantum-espresso.org/quote

     Parallel version (MPI), running on     8 processors

     MPI processes distributed on     1 nodes
     90780 MiB available memory on the printing compute node when the environment starts

     Reading input from /home/jvc/QEspresso7.2/ZnO_DataBase/scf_025_NOSYM.in/scf-6.55-1.74-0.25-3.in

     Current dimensions of program PWSCF are:
     Max number of different atomic species (ntypx) = 10
     Max number of k-points (npk) =  40000
     Max angular momentum in pseudopotentials (lmaxx) =  4
     file Zn.upf: wavefunction(s)  3D renormalized

     R & G space division:  proc/nbgrp/npool/nimage =       8
     Subspace diagonalization in iterative solution of the eigenvalue problem:
     a serial algorithm will be used


     Parallelization info
     --------------------
     sticks:   dense  smooth     PW     G-vecs:    dense   smooth      PW
     Min         147      72     23                 6576     2326     385
     Max         148      73     24                 6577     2335     388
     Sum        1177     583    187                52615    18665    3091

     Using Slab Decomposition



     bravais-lattice index     =            0
     lattice parameter (alat)  =       6.5496  a.u.
     unit-cell volume          =     389.3007 (a.u.)^3
     number of atoms/cell      =            4
     number of atomic types    =            2
     number of electrons       =        36.00
     number of Kohn-Sham states=           18
     kinetic-energy cutoff     =      50.0000  Ry
     charge density cutoff     =     400.0000  Ry
     scf convergence threshold =      1.0E-08
     mixing beta               =       0.3000
     number of iterations used =            8  plain     mixing
     Exchange-correlation= PBE
                           (   1   4   3   4   0   0   0)

     celldm(1)=   6.549551  celldm(2)=   0.000000  celldm(3)=   0.000000
     celldm(4)=   0.000000  celldm(5)=   0.000000  celldm(6)=   0.000000

     crystal axes: (cart. coord. in units of alat)
               a(1) = (   1.000000   0.000000   0.000000 )  
               a(2) = (  -0.500000   0.866025   0.000000 )  
               a(3) = (   0.000000   0.000000   1.600000 )  

     reciprocal axes: (cart. coord. in units 2 pi/alat)
               b(1) = (  1.000000  0.577350 -0.000000 )  
               b(2) = (  0.000000  1.154701  0.000000 )  
               b(3) = (  0.000000 -0.000000  0.625000 )  


     PseudoPot. # 1 for Zn read from file:
     ./pseudos/Zn.upf
     MD5 check sum: 7f56cabf9682ed8c977c2f7d0c5985c5
     Pseudo is Ultrasoft + core correction, Zval = 12.0
     Generated using &quot;atomic&quot; code by A. Dal Corso  v.6.2.2
     Using radial grid of 1201 points,  6 beta functions with: 
                l(1) =   0
                l(2) =   0
                l(3) =   1
                l(4) =   1
                l(5) =   2
                l(6) =   2
     Q(r) pseudized with 0 coefficients 


     PseudoPot. # 2 for O  read from file:
     ./pseudos/O.upf
     MD5 check sum: 91400c9766925bcf19f520983a725ff0
     Pseudo is Ultrasoft + core correction, Zval =  6.0
     Generated using &quot;atomic&quot; code by A. Dal Corso  v.6.3MaX
     Using radial grid of 1095 points,  4 beta functions with: 
                l(1) =   0
                l(2) =   0
                l(3) =   1
                l(4) =   1
     Q(r) pseudized with 0 coefficients 


     atomic species   valence    mass     pseudopotential
        Zn            12.00    63.38000     Zn( 1.00)
        O              6.00    15.99900     O ( 1.00)

     No symmetry found



   Cartesian axes

     site n.     atom                  positions (alat units)
         1           Zn  tau(   1) = (   0.3287774   0.2394991   0.8329603  )
         2           Zn  tau(   2) = (  -0.1780644   0.5450734   0.2355320  )
         3           O   tau(   3) = (   0.4410897   0.1702020   1.6335579  )
         4           O   tau(   4) = (   0.0574813   0.6494737   0.2498046  )

     number of k points=   112

     Number of k-points >= 100: set verbosity='high' to print them.

     Dense  grid:    52615 G-vectors     FFT dimensions: (  45,  45,  72)

     Smooth grid:    18665 G-vectors     FFT dimensions: (  30,  30,  48)

     Estimated max dynamical RAM per process >      35.72 MB

     Estimated total dynamical RAM >     285.77 MB

     Check: negative core charge=   -0.000002

     Initial potential from superposition of free atoms

     starting charge      35.9925, renormalised to      36.0000
     Starting wfcs are   26 randomized atomic wfcs

     total cpu time spent up to now is        4.6 secs

     Self-consistent Calculation

     iteration #  1     ecut=    50.00 Ry     beta= 0.30
     Davidson diagonalization with overlap
     ethr =  1.00E-02,  avg # of iterations =  4.2

     total cpu time spent up to now is       13.1 secs

     total energy              =    -355.84512001 Ry
     estimated scf accuracy    <       1.35803177 Ry

     iteration #  2     ecut=    50.00 Ry     beta= 0.30
     Davidson diagonalization with overlap
     ethr =  3.77E-03,  avg # of iterations =  8.4

     total cpu time spent up to now is       21.4 secs

     total energy              =    -356.17053487 Ry
     estimated scf accuracy    <       0.28410381 Ry

     iteration #  3     ecut=    50.00 Ry     beta= 0.30
     Davidson diagonalization with overlap
     ethr =  7.89E-04,  avg # of iterations =  4.4

     total cpu time spent up to now is       29.1 secs

     total energy              =    -356.18601647 Ry
     estimated scf accuracy    <       0.11762272 Ry

     iteration #  4     ecut=    50.00 Ry     beta= 0.30
     Davidson diagonalization with overlap
     c_bands:  1 eigenvalues not converged
     ethr =  3.27E-04,  avg # of iterations =  8.3

     total cpu time spent up to now is       39.6 secs

     total energy              =    -356.23065398 Ry
     estimated scf accuracy    <       0.09392378 Ry

     iteration #  5     ecut=    50.00 Ry     beta= 0.30
     Davidson diagonalization with overlap
     ethr =  2.61E-04,  avg # of iterations =  3.0

     total cpu time spent up to now is       46.0 secs

     total energy              =    -356.22847128 Ry
     estimated scf accuracy    <       0.02137509 Ry

     iteration #  6     ecut=    50.00 Ry     beta= 0.30
     Davidson diagonalization with overlap
     c_bands:  1 eigenvalues not converged
     c_bands:  1 eigenvalues not converged
     c_bands:  2 eigenvalues not converged
     ethr =  5.94E-05,  avg # of iterations = 14.4

     total cpu time spent up to now is       65.9 secs

     total energy              =    -356.18106916 Ry
     estimated scf accuracy    <       0.61093902 Ry

     iteration #  7     ecut=    50.00 Ry     beta= 0.30
     Davidson diagonalization with overlap
     c_bands:  1 eigenvalues not converged
     ethr =  5.94E-05,  avg # of iterations = 11.5

     total cpu time spent up to now is       81.6 secs

     total energy              =    -356.24526554 Ry
     estimated scf accuracy    <       0.01664995 Ry

     iteration #  8     ecut=    50.00 Ry     beta= 0.30
     Davidson diagonalization with overlap
     c_bands:  1 eigenvalues not converged
     ethr =  4.62E-05,  avg # of iterations =  2.0

     total cpu time spent up to now is       87.4 secs

     total energy              =    -356.24553233 Ry
     estimated scf accuracy    <       0.00841623 Ry

     iteration #  9     ecut=    50.00 Ry     beta= 0.30
     Davidson diagonalization with overlap
     ethr =  2.34E-05,  avg # of iterations =  3.7

     total cpu time spent up to now is       94.1 secs

     total energy              =    -356.24625646 Ry
     estimated scf accuracy    <       0.00297984 Ry

     iteration # 10     ecut=    50.00 Ry     beta= 0.30
     Davidson diagonalization with overlap
     ethr =  8.28E-06,  avg # of iterations =  6.9

     total cpu time spent up to now is      103.1 secs

     total energy              =    -356.24771583 Ry
     estimated scf accuracy    <       0.00031128 Ry

     iteration # 11     ecut=    50.00 Ry     beta= 0.30
     Davidson diagonalization with overlap
     c_bands:  1 eigenvalues not converged
     c_bands:  1 eigenvalues not converged
     c_bands:  1 eigenvalues not converged
     c_bands:  1 eigenvalues not converged
     ethr =  8.65E-07,  avg # of iterations =  9.3

     total cpu time spent up to now is      113.2 secs

     total energy              =    -356.24806506 Ry
     estimated scf accuracy    <       0.00110460 Ry

     iteration # 12     ecut=    50.00 Ry     beta= 0.30
     Davidson diagonalization with overlap
     c_bands:  1 eigenvalues not converged
     c_bands:  1 eigenvalues not converged
     ethr =  8.65E-07,  avg # of iterations =  8.8

     total cpu time spent up to now is      124.4 secs

     total energy              =    -356.24769218 Ry
     estimated scf accuracy    <       0.00337777 Ry

     iteration # 13     ecut=    50.00 Ry     beta= 0.30
     Davidson diagonalization with overlap
     c_bands:  1 eigenvalues not converged
     ethr =  8.65E-07,  avg # of iterations =  6.2

     total cpu time spent up to now is      133.2 secs

     total energy              =    -356.24787337 Ry
     estimated scf accuracy    <       0.00109533 Ry

     iteration # 14     ecut=    50.00 Ry     beta= 0.30
     Davidson diagonalization with overlap
     ethr =  8.65E-07,  avg # of iterations =  1.0

     total cpu time spent up to now is      138.4 secs

     total energy              =    -356.24791166 Ry
     estimated scf accuracy    <       0.00118978 Ry

     iteration # 15     ecut=    50.00 Ry     beta= 0.30
     Davidson diagonalization with overlap
     ethr =  8.65E-07,  avg # of iterations =  1.5

     total cpu time spent up to now is      143.9 secs

     total energy              =    -356.24755175 Ry
     estimated scf accuracy    <       0.00136479 Ry

     iteration # 16     ecut=    50.00 Ry     beta= 0.30
     Davidson diagonalization with overlap
     ethr =  8.65E-07,  avg # of iterations =  6.0

     total cpu time spent up to now is      152.4 secs

     total energy              =    -356.24764085 Ry
     estimated scf accuracy    <       0.00018189 Ry

     iteration # 17     ecut=    50.00 Ry     beta= 0.30
     Davidson diagonalization with overlap
     ethr =  5.05E-07,  avg # of iterations =  2.6

     total cpu time spent up to now is      158.5 secs

     total energy              =    -356.24765787 Ry
     estimated scf accuracy    <       0.00008321 Ry

     iteration # 18     ecut=    50.00 Ry     beta= 0.30
     Davidson diagonalization with overlap
     c_bands:  1 eigenvalues not converged
     ethr =  2.31E-07,  avg # of iterations =  2.8

     total cpu time spent up to now is      164.3 secs

     total energy              =    -356.24765870 Ry
     estimated scf accuracy    <       0.00005150 Ry

     iteration # 19     ecut=    50.00 Ry     beta= 0.30
     Davidson diagonalization with overlap
     ethr =  1.43E-07,  avg # of iterations =  2.9

     total cpu time spent up to now is      170.1 secs

     total energy              =    -356.24765888 Ry
     estimated scf accuracy    <       0.00002518 Ry

     iteration # 20     ecut=    50.00 Ry     beta= 0.30
     Davidson diagonalization with overlap
     ethr =  6.99E-08,  avg # of iterations =  5.3

     total cpu time spent up to now is      177.6 secs

     total energy              =    -356.24766497 Ry
     estimated scf accuracy    <       0.00000171 Ry

     iteration # 21     ecut=    50.00 Ry     beta= 0.30
     Davidson diagonalization with overlap
     c_bands:  1 eigenvalues not converged
     c_bands:  1 eigenvalues not converged
     c_bands:  1 eigenvalues not converged
     c_bands:  1 eigenvalues not converged
     ethr =  4.75E-09,  avg # of iterations = 10.7

     total cpu time spent up to now is      189.1 secs

     total energy              =    -356.24766703 Ry
     estimated scf accuracy    <       0.00000217 Ry

     iteration # 22     ecut=    50.00 Ry     beta= 0.30
     Davidson diagonalization with overlap
     ethr =  4.75E-09,  avg # of iterations =  2.2

     total cpu time spent up to now is      194.8 secs

     total energy              =    -356.24766697 Ry
     estimated scf accuracy    <       0.00000129 Ry

     iteration # 23     ecut=    50.00 Ry     beta= 0.30
     Davidson diagonalization with overlap
     ethr =  3.57E-09,  avg # of iterations =  2.5

     total cpu time spent up to now is      200.5 secs

     total energy              =    -356.24766694 Ry
     estimated scf accuracy    <       0.00000086 Ry

     iteration # 24     ecut=    50.00 Ry     beta= 0.30
     Davidson diagonalization with overlap
     ethr =  2.38E-09,  avg # of iterations =  2.0

     total cpu time spent up to now is      206.1 secs

     total energy              =    -356.24766687 Ry
     estimated scf accuracy    <       0.00000061 Ry

     iteration # 25     ecut=    50.00 Ry     beta= 0.30
     Davidson diagonalization with overlap
     ethr =  1.69E-09,  avg # of iterations =  3.0

     total cpu time spent up to now is      212.5 secs

     total energy              =    -356.24766696 Ry
     estimated scf accuracy    <       0.00000018 Ry

     iteration # 26     ecut=    50.00 Ry     beta= 0.30
     Davidson diagonalization with overlap
     c_bands:  1 eigenvalues not converged
     ethr =  5.04E-10,  avg # of iterations =  5.8

     total cpu time spent up to now is      220.1 secs

     total energy              =    -356.24766697 Ry
     estimated scf accuracy    <       0.00000008 Ry

     iteration # 27     ecut=    50.00 Ry     beta= 0.30
     Davidson diagonalization with overlap
     ethr =  2.29E-10,  avg # of iterations =  8.2

     total cpu time spent up to now is      231.5 secs

     total energy              =    -356.24766720 Ry
     estimated scf accuracy    <       0.00000026 Ry

     iteration # 28     ecut=    50.00 Ry     beta= 0.30
     Davidson diagonalization with overlap
     ethr =  2.29E-10,  avg # of iterations = 10.2

     total cpu time spent up to now is      243.5 secs

     total energy              =    -356.24766710 Ry
     estimated scf accuracy    <       0.00000170 Ry

     iteration # 29     ecut=    50.00 Ry     beta= 0.30
     Davidson diagonalization with overlap
     ethr =  2.29E-10,  avg # of iterations =  5.8

     total cpu time spent up to now is      251.8 secs

     total energy              =    -356.24766692 Ry
     estimated scf accuracy    <       0.00000086 Ry

     iteration # 30     ecut=    50.00 Ry     beta= 0.30
     Davidson diagonalization with overlap
     c_bands:  1 eigenvalues not converged
     ethr =  2.29E-10,  avg # of iterations =  7.9

     total cpu time spent up to now is      262.6 secs

     total energy              =    -356.24766703 Ry
     estimated scf accuracy    <       0.00000006 Ry

     iteration # 31     ecut=    50.00 Ry     beta= 0.30
     Davidson diagonalization with overlap
     ethr =  1.54E-10,  avg # of iterations =  1.7

     total cpu time spent up to now is      268.0 secs

     total energy              =    -356.24766705 Ry
     estimated scf accuracy    <       0.00000009 Ry

     iteration # 32     ecut=    50.00 Ry     beta= 0.30
     Davidson diagonalization with overlap
     ethr =  1.54E-10,  avg # of iterations =  4.8

     total cpu time spent up to now is      275.2 secs

     total energy              =    -356.24766700 Ry
     estimated scf accuracy    <       0.00000022 Ry

     iteration # 33     ecut=    50.00 Ry     beta= 0.30
     Davidson diagonalization with overlap
     ethr =  1.54E-10,  avg # of iterations =  3.4

     total cpu time spent up to now is      281.8 secs

     total energy              =    -356.24766703 Ry
     estimated scf accuracy    <       0.00000009 Ry

     iteration # 34     ecut=    50.00 Ry     beta= 0.30
     Davidson diagonalization with overlap
     ethr =  1.54E-10,  avg # of iterations =  1.0

     total cpu time spent up to now is      287.0 secs

     total energy              =    -356.24766706 Ry
     estimated scf accuracy    <       0.00000011 Ry

     iteration # 35     ecut=    50.00 Ry     beta= 0.30
     Davidson diagonalization with overlap
     ethr =  1.54E-10,  avg # of iterations =  3.2

     total cpu time spent up to now is      293.3 secs

     total energy              =    -356.24766700 Ry
     estimated scf accuracy    <       0.00000021 Ry

     iteration # 36     ecut=    50.00 Ry     beta= 0.30
     Davidson diagonalization with overlap
     ethr =  1.54E-10,  avg # of iterations =  3.1

     total cpu time spent up to now is      299.9 secs

     total energy              =    -356.24766699 Ry
     estimated scf accuracy    <       0.00000008 Ry

     iteration # 37     ecut=    50.00 Ry     beta= 0.30
     Davidson diagonalization with overlap
     ethr =  1.54E-10,  avg # of iterations =  5.5

     total cpu time spent up to now is      307.9 secs

     total energy              =    -356.24766702 Ry
     estimated scf accuracy    <       0.00000001 Ry

     iteration # 38     ecut=    50.00 Ry     beta= 0.30
     Davidson diagonalization with overlap
     ethr =  2.91E-11,  avg # of iterations =  6.7

     total cpu time spent up to now is      318.2 secs

     total energy              =    -356.24766702 Ry
     estimated scf accuracy    <       0.00000006 Ry

     iteration # 39     ecut=    50.00 Ry     beta= 0.30
     Davidson diagonalization with overlap
     ethr =  2.91E-11,  avg # of iterations =  1.3

     total cpu time spent up to now is      323.4 secs

     total energy              =    -356.24766701 Ry
     estimated scf accuracy    <       0.00000005 Ry

     iteration # 40     ecut=    50.00 Ry     beta= 0.30
     Davidson diagonalization with overlap
     c_bands:  1 eigenvalues not converged
     ethr =  2.91E-11,  avg # of iterations =  5.9

     total cpu time spent up to now is      331.1 secs

     total energy              =    -356.24766701 Ry
     estimated scf accuracy    <       0.00000001 Ry

     iteration # 41     ecut=    50.00 Ry     beta= 0.30
     Davidson diagonalization with overlap
     ethr =  2.91E-11,  avg # of iterations =  6.9

     total cpu time spent up to now is      340.2 secs

     End of self-consistent calculation

     Number of k-points >= 100: set verbosity='high' to print the bands.

     highest occupied level (ev):     7.1814

!    total energy              =    -356.24766701 Ry
     estimated scf accuracy    <          3.1E-09 Ry

     The total energy is the sum of the following terms:
     one-electron contribution =    -255.76194097 Ry
     hartree contribution      =     162.84274795 Ry
     xc contribution           =    -110.45924224 Ry
     ewald contribution        =    -152.86923176 Ry

     convergence has been achieved in  41 iterations

     Forces acting on atoms (cartesian axes, Ry/au):

     atom    1 type  1   force =     0.00097376    0.00498208    0.05743336
     atom    2 type  1   force =   -12.35866469   -5.53761841   -0.77338124
     atom    3 type  2   force =    -0.04253056    0.15924645   -0.13635206
     atom    4 type  2   force =    12.40022149    5.37338988    0.85229995
     The non-local contrib.  to forces
     atom    1 type  1   force =    -0.00933147   -0.07547592   -0.07325345
     atom    2 type  1   force =     2.32215846    1.91706679   -0.08983595
     atom    3 type  2   force =     0.40259578   -0.60222190    0.72287454
     atom    4 type  2   force =    -1.36487370    0.29647174   -0.28499331
     The ionic contribution  to forces
     atom    1 type  1   force =    -0.27243170    0.28967593   16.59697227
     atom    2 type  1   force =   -40.39067872  -20.13573408   -5.19034092
     atom    3 type  2   force =    -1.51854126    4.78066178  -13.68717736
     atom    4 type  2   force =    42.18165167   15.06539637    2.28054601
     The local contribution  to forces
     atom    1 type  1   force =     0.28265059   -0.21093453  -16.46387989
     atom    2 type  1   force =    25.12515250   12.45202100    4.47209102
     atom    3 type  2   force =     1.07729495   -4.02455096   12.83381473
     atom    4 type  2   force =   -28.39889525   -9.97342683   -1.14412209
     The core correction contribution to forces
     atom    1 type  1   force =     0.00008312    0.00171754   -0.00246149
     atom    2 type  1   force =     0.58471657    0.22902450    0.03482883
     atom    3 type  2   force =    -0.00387856    0.00536258   -0.00585982
     atom    4 type  2   force =    -0.01767405   -0.01509730    0.00093659
     The Hubbard contrib.    to forces
     atom    1 type  1   force =     0.00000000    0.00000000    0.00000000
     atom    2 type  1   force =     0.00000000    0.00000000    0.00000000
     atom    3 type  2   force =     0.00000000    0.00000000    0.00000000
     atom    4 type  2   force =     0.00000000    0.00000000    0.00000000
     The SCF correction term to forces
     atom    1 type  1   force =     0.00000034    0.00000060    0.00003745
     atom    2 type  1   force =    -0.00001637    0.00000493   -0.00014269
     atom    3 type  2   force =    -0.00000435   -0.00000352   -0.00002261
     atom    4 type  2   force =     0.00000995    0.00004744   -0.00008572

     Total force =    19.168053     Total SCF correction =     0.000180

     Writing all to output data dir ./ZnO_ANN.save/

     init_run     :      4.00s CPU      4.10s WALL (       1 calls)
     electrons    :    329.91s CPU    335.61s WALL (       1 calls)
     forces       :      1.35s CPU      1.37s WALL (       1 calls)

     Called by init_run:
     wfcinit      :      2.92s CPU      2.97s WALL (       1 calls)
     potinit      :      0.39s CPU      0.39s WALL (       1 calls)
     hinit0       :      0.60s CPU      0.62s WALL (       1 calls)

     Called by electrons:
     c_bands      :    292.45s CPU    297.29s WALL (      41 calls)
     sum_band     :     33.58s CPU     34.34s WALL (      41 calls)
     v_of_rho     :      0.82s CPU      0.87s WALL (      42 calls)
     newd         :      2.93s CPU      2.96s WALL (      42 calls)
     mix_rho      :      0.14s CPU      0.15s WALL (      41 calls)

     Called by c_bands:
     init_us_2    :      2.50s CPU      2.54s WALL (    9408 calls)
     init_us_2:cp :      2.46s CPU      2.51s WALL (    9408 calls)
     cegterg      :    284.42s CPU    289.15s WALL (    4592 calls)

     Called by *egterg:
     cdiaghg      :     31.03s CPU     31.29s WALL (   28682 calls)
     h_psi        :    165.88s CPU    169.39s WALL (   28794 calls)
     s_psi        :     21.00s CPU     21.16s WALL (   28794 calls)
     g_psi        :      0.57s CPU      0.58s WALL (   24090 calls)

     Called by h_psi:
     h_psi:calbec :     23.09s CPU     23.80s WALL (   28794 calls)
     vloc_psi     :    121.15s CPU    123.77s WALL (   28794 calls)
     add_vuspsi   :     21.06s CPU     21.26s WALL (   28794 calls)

     General routines
     calbec       :     31.18s CPU     32.11s WALL (   33834 calls)
     fft          :      1.07s CPU      1.15s WALL (     555 calls)
     ffts         :      0.17s CPU      0.17s WALL (      83 calls)
     fftw         :    123.55s CPU    126.26s WALL (  580956 calls)
     interpolate  :      0.19s CPU      0.20s WALL (      42 calls)

     Parallel routines

     PWSCF        :   5m35.98s CPU   5m42.05s WALL


   This run was terminated on:  19:37:21  24Jun2025            

=------------------------------------------------------------------------------=
   JOB DONE.
=------------------------------------------------------------------------------=
Note: The following floating-point exceptions are signalling: IEEE_INVALID_FLAG
