
     Program PWSCF v.7.2 starts on 24Jun2025 at 18:23:49 

     This program is part of the open-source Quantum ESPRESSO suite
     for quantum simulation of materials; please cite
         "P. Giannozzi et al., J. Phys.:Condens. Matter 21 395502 (2009);
         "P. Giannozzi et al., J. Phys.:Condens. Matter 29 465901 (2017);
         "P. Giannozzi et al., J. Chem. Phys. 152 154105 (2020);
          URL http://www.quantum-espresso.org", 
     in publications or presentations arising from this work. More details at
     http://www.quantum-espresso.org/quote

     Parallel version (MPI), running on     8 processors

     MPI processes distributed on     1 nodes
     90864 MiB available memory on the printing compute node when the environment starts

     Reading input from /home/jvc/QEspresso7.2/ZnO_DataBase/scf_025_NOSYM.in/scf-6.43-1.61-0.25-2.in

     Current dimensions of program PWSCF are:
     Max number of different atomic species (ntypx) = 10
     Max number of k-points (npk) =  40000
     Max angular momentum in pseudopotentials (lmaxx) =  4
     file Zn.upf: wavefunction(s)  3D renormalized

     R & G space division:  proc/nbgrp/npool/nimage =       8
     Subspace diagonalization in iterative solution of the eigenvalue problem:
     a serial algorithm will be used


     Parallelization info
     --------------------
     sticks:   dense  smooth     PW     G-vecs:    dense   smooth      PW
     Min         143      71     20                 6229     2189     360
     Max         145      73     21                 6232     2190     367
     Sum        1147     571    163                49835    17513    2899

     Using Slab Decomposition



     bravais-lattice index     =            0
     lattice parameter (alat)  =       6.4260  a.u.
     unit-cell volume          =     367.6779 (a.u.)^3
     number of atoms/cell      =            4
     number of atomic types    =            2
     number of electrons       =        36.00
     number of Kohn-Sham states=           18
     kinetic-energy cutoff     =      50.0000  Ry
     charge density cutoff     =     400.0000  Ry
     scf convergence threshold =      1.0E-08
     mixing beta               =       0.3000
     number of iterations used =            8  plain     mixing
     Exchange-correlation= PBE
                           (   1   4   3   4   0   0   0)

     celldm(1)=   6.425974  celldm(2)=   0.000000  celldm(3)=   0.000000
     celldm(4)=   0.000000  celldm(5)=   0.000000  celldm(6)=   0.000000

     crystal axes: (cart. coord. in units of alat)
               a(1) = (   1.000000   0.000000   0.000000 )  
               a(2) = (  -0.500000   0.866025   0.000000 )  
               a(3) = (   0.000000   0.000000   1.600000 )  

     reciprocal axes: (cart. coord. in units 2 pi/alat)
               b(1) = (  1.000000  0.577350 -0.000000 )  
               b(2) = (  0.000000  1.154701  0.000000 )  
               b(3) = (  0.000000 -0.000000  0.625000 )  


     PseudoPot. # 1 for Zn read from file:
     ./pseudos/Zn.upf
     MD5 check sum: 7f56cabf9682ed8c977c2f7d0c5985c5
     Pseudo is Ultrasoft + core correction, Zval = 12.0
     Generated using &quot;atomic&quot; code by A. Dal Corso  v.6.2.2
     Using radial grid of 1201 points,  6 beta functions with: 
                l(1) =   0
                l(2) =   0
                l(3) =   1
                l(4) =   1
                l(5) =   2
                l(6) =   2
     Q(r) pseudized with 0 coefficients 


     PseudoPot. # 2 for O  read from file:
     ./pseudos/O.upf
     MD5 check sum: 91400c9766925bcf19f520983a725ff0
     Pseudo is Ultrasoft + core correction, Zval =  6.0
     Generated using &quot;atomic&quot; code by A. Dal Corso  v.6.3MaX
     Using radial grid of 1095 points,  4 beta functions with: 
                l(1) =   0
                l(2) =   0
                l(3) =   1
                l(4) =   1
     Q(r) pseudized with 0 coefficients 


     atomic species   valence    mass     pseudopotential
        Zn            12.00    63.38000     Zn( 1.00)
        O              6.00    15.99900     O ( 1.00)

     No symmetry found



   Cartesian axes

     site n.     atom                  positions (alat units)
         1           Zn  tau(   1) = (   0.7183894   0.1224165   1.1953463  )
         2           Zn  tau(   2) = (   0.1736242   0.5125962   0.2904581  )
         3           O   tau(   3) = (   0.3922453   0.3253782   1.0902556  )
         4           O   tau(   4) = (   0.0030777   0.4636305   0.5955535  )

     number of k points=   112

     Number of k-points >= 100: set verbosity='high' to print them.

     Dense  grid:    49835 G-vectors     FFT dimensions: (  45,  45,  72)

     Smooth grid:    17513 G-vectors     FFT dimensions: (  30,  30,  48)

     Estimated max dynamical RAM per process >      34.06 MB

     Estimated total dynamical RAM >     272.46 MB

     Check: negative core charge=   -0.000002

     Initial potential from superposition of free atoms

     starting charge      35.9925, renormalised to      36.0000
     Starting wfcs are   26 randomized atomic wfcs

     total cpu time spent up to now is        4.4 secs

     Self-consistent Calculation

     iteration #  1     ecut=    50.00 Ry     beta= 0.30
     Davidson diagonalization with overlap
     ethr =  1.00E-02,  avg # of iterations =  2.2

     total cpu time spent up to now is       10.7 secs

     total energy              =    -359.62330060 Ry
     estimated scf accuracy    <       1.87361463 Ry

     iteration #  2     ecut=    50.00 Ry     beta= 0.30
     Davidson diagonalization with overlap
     ethr =  5.20E-03,  avg # of iterations =  3.9

     total cpu time spent up to now is       17.5 secs

     total energy              =    -359.88828222 Ry
     estimated scf accuracy    <       0.13441299 Ry

     iteration #  3     ecut=    50.00 Ry     beta= 0.30
     Davidson diagonalization with overlap
     ethr =  3.73E-04,  avg # of iterations =  9.6

     total cpu time spent up to now is       32.1 secs

     total energy              =    -360.00324953 Ry
     estimated scf accuracy    <       0.67885532 Ry

     iteration #  4     ecut=    50.00 Ry     beta= 0.30
     Davidson diagonalization with overlap
     ethr =  3.73E-04,  avg # of iterations =  5.5

     total cpu time spent up to now is       41.8 secs

     total energy              =    -360.05779407 Ry
     estimated scf accuracy    <       0.04029109 Ry

     iteration #  5     ecut=    50.00 Ry     beta= 0.30
     Davidson diagonalization with overlap
     ethr =  1.12E-04,  avg # of iterations =  7.4

     total cpu time spent up to now is       53.4 secs

     total energy              =    -360.08318742 Ry
     estimated scf accuracy    <       0.06489583 Ry

     iteration #  6     ecut=    50.00 Ry     beta= 0.30
     Davidson diagonalization with overlap
     ethr =  1.12E-04,  avg # of iterations =  1.2

     total cpu time spent up to now is       58.5 secs

     total energy              =    -360.05996982 Ry
     estimated scf accuracy    <       0.03678727 Ry

     iteration #  7     ecut=    50.00 Ry     beta= 0.30
     Davidson diagonalization with overlap
     ethr =  1.02E-04,  avg # of iterations =  7.1

     total cpu time spent up to now is       70.2 secs

     total energy              =    -360.09176515 Ry
     estimated scf accuracy    <       0.06773460 Ry

     iteration #  8     ecut=    50.00 Ry     beta= 0.30
     Davidson diagonalization with overlap
     ethr =  1.02E-04,  avg # of iterations =  1.0

     total cpu time spent up to now is       75.3 secs

     total energy              =    -360.06993358 Ry
     estimated scf accuracy    <       0.05664660 Ry

     iteration #  9     ecut=    50.00 Ry     beta= 0.30
     Davidson diagonalization with overlap
     ethr =  1.02E-04,  avg # of iterations =  4.0

     total cpu time spent up to now is       82.5 secs

     total energy              =    -360.07707263 Ry
     estimated scf accuracy    <       0.00317859 Ry

     iteration # 10     ecut=    50.00 Ry     beta= 0.30
     Davidson diagonalization with overlap
     ethr =  8.83E-06,  avg # of iterations =  9.0

     total cpu time spent up to now is       96.6 secs

     total energy              =    -360.08246215 Ry
     estimated scf accuracy    <       0.00711364 Ry

     iteration # 11     ecut=    50.00 Ry     beta= 0.30
     Davidson diagonalization with overlap
     ethr =  8.83E-06,  avg # of iterations =  1.1

     total cpu time spent up to now is      101.8 secs

     total energy              =    -360.08188692 Ry
     estimated scf accuracy    <       0.00476652 Ry

     iteration # 12     ecut=    50.00 Ry     beta= 0.30
     Davidson diagonalization with overlap
     ethr =  8.83E-06,  avg # of iterations =  2.0

     total cpu time spent up to now is      107.8 secs

     total energy              =    -360.08155274 Ry
     estimated scf accuracy    <       0.00220591 Ry

     iteration # 13     ecut=    50.00 Ry     beta= 0.30
     Davidson diagonalization with overlap
     ethr =  6.13E-06,  avg # of iterations =  2.8

     total cpu time spent up to now is      114.0 secs

     total energy              =    -360.08166178 Ry
     estimated scf accuracy    <       0.00046769 Ry

     iteration # 14     ecut=    50.00 Ry     beta= 0.30
     Davidson diagonalization with overlap
     ethr =  1.30E-06,  avg # of iterations =  7.5

     total cpu time spent up to now is      125.4 secs

     total energy              =    -360.08204241 Ry
     estimated scf accuracy    <       0.00036139 Ry

     iteration # 15     ecut=    50.00 Ry     beta= 0.30
     Davidson diagonalization with overlap
     ethr =  1.00E-06,  avg # of iterations =  1.2

     total cpu time spent up to now is      130.4 secs

     total energy              =    -360.08191800 Ry
     estimated scf accuracy    <       0.00020132 Ry

     iteration # 16     ecut=    50.00 Ry     beta= 0.30
     Davidson diagonalization with overlap
     ethr =  5.59E-07,  avg # of iterations =  6.9

     total cpu time spent up to now is      142.0 secs

     total energy              =    -360.08203983 Ry
     estimated scf accuracy    <       0.00032478 Ry

     iteration # 17     ecut=    50.00 Ry     beta= 0.30
     Davidson diagonalization with overlap
     ethr =  5.59E-07,  avg # of iterations =  1.2

     total cpu time spent up to now is      147.1 secs

     total energy              =    -360.08202509 Ry
     estimated scf accuracy    <       0.00017287 Ry

     iteration # 18     ecut=    50.00 Ry     beta= 0.30
     Davidson diagonalization with overlap
     ethr =  4.80E-07,  avg # of iterations =  2.0

     total cpu time spent up to now is      152.9 secs

     total energy              =    -360.08202332 Ry
     estimated scf accuracy    <       0.00007833 Ry

     iteration # 19     ecut=    50.00 Ry     beta= 0.30
     Davidson diagonalization with overlap
     ethr =  2.18E-07,  avg # of iterations =  2.7

     total cpu time spent up to now is      159.1 secs

     total energy              =    -360.08202996 Ry
     estimated scf accuracy    <       0.00002405 Ry

     iteration # 20     ecut=    50.00 Ry     beta= 0.30
     Davidson diagonalization with overlap
     ethr =  6.68E-08,  avg # of iterations =  5.5

     total cpu time spent up to now is      167.4 secs

     total energy              =    -360.08203840 Ry
     estimated scf accuracy    <       0.00000028 Ry

     iteration # 21     ecut=    50.00 Ry     beta= 0.30
     Davidson diagonalization with overlap
     c_bands:  1 eigenvalues not converged
     c_bands:  1 eigenvalues not converged
     c_bands:  1 eigenvalues not converged
     c_bands:  1 eigenvalues not converged
     ethr =  7.87E-10,  avg # of iterations = 14.5

     total cpu time spent up to now is      187.1 secs

     total energy              =    -360.08203997 Ry
     estimated scf accuracy    <       0.00000489 Ry

     iteration # 22     ecut=    50.00 Ry     beta= 0.30
     Davidson diagonalization with overlap
     ethr =  7.87E-10,  avg # of iterations =  2.0

     total cpu time spent up to now is      192.9 secs

     total energy              =    -360.08203941 Ry
     estimated scf accuracy    <       0.00000381 Ry

     iteration # 23     ecut=    50.00 Ry     beta= 0.30
     Davidson diagonalization with overlap
     ethr =  7.87E-10,  avg # of iterations =  6.2

     total cpu time spent up to now is      203.1 secs

     total energy              =    -360.08203954 Ry
     estimated scf accuracy    <       0.00000089 Ry

     iteration # 24     ecut=    50.00 Ry     beta= 0.30
     Davidson diagonalization with overlap
     ethr =  7.87E-10,  avg # of iterations =  2.0

     total cpu time spent up to now is      208.9 secs

     total energy              =    -360.08203943 Ry
     estimated scf accuracy    <       0.00000056 Ry

     iteration # 25     ecut=    50.00 Ry     beta= 0.30
     Davidson diagonalization with overlap
     ethr =  7.87E-10,  avg # of iterations =  5.5

     total cpu time spent up to now is      216.5 secs

     total energy              =    -360.08203951 Ry
     estimated scf accuracy    <       0.00000004 Ry

     iteration # 26     ecut=    50.00 Ry     beta= 0.30
     Davidson diagonalization with overlap
     ethr =  1.16E-10,  avg # of iterations =  4.4

     total cpu time spent up to now is      223.8 secs

     total energy              =    -360.08203952 Ry
     estimated scf accuracy    <       0.00000002 Ry

     iteration # 27     ecut=    50.00 Ry     beta= 0.30
     Davidson diagonalization with overlap
     ethr =  4.26E-11,  avg # of iterations =  5.3

     total cpu time spent up to now is      231.5 secs

     End of self-consistent calculation

     Number of k-points >= 100: set verbosity='high' to print the bands.

     highest occupied level (ev):     6.0148

!    total energy              =    -360.08203953 Ry
     estimated scf accuracy    <          6.4E-10 Ry

     The total energy is the sum of the following terms:
     one-electron contribution =    -196.34033040 Ry
     hartree contribution      =     135.54784107 Ry
     xc contribution           =    -109.78044920 Ry
     ewald contribution        =    -189.50910099 Ry

     convergence has been achieved in  27 iterations

     Forces acting on atoms (cartesian axes, Ry/au):

     atom    1 type  1   force =     1.01494843   -0.63419699    0.26835659
     atom    2 type  1   force =     1.25290878    0.34715561   -2.25286069
     atom    3 type  2   force =    -0.99378381    0.63175809   -0.19160758
     atom    4 type  2   force =    -1.27407340   -0.34471671    2.17611168
     The non-local contrib.  to forces
     atom    1 type  1   force =     1.03295087   -0.63731995    0.32835807
     atom    2 type  1   force =     0.42860367    0.13571781   -0.83269904
     atom    3 type  2   force =     0.70736648   -0.36052588    0.89714026
     atom    4 type  2   force =     0.54491887    0.17499306   -1.20858309
     The ionic contribution  to forces
     atom    1 type  1   force =    11.31698227   -6.97724547    7.15842618
     atom    2 type  1   force =    10.59545333    2.99759422  -19.73665292
     atom    3 type  2   force =   -10.68993756    6.56232122   -3.13943505
     atom    4 type  2   force =   -11.22249805   -2.58266997   15.71766179
     The local contribution  to forces
     atom    1 type  1   force =   -11.19440841    6.89431014   -7.16996472
     atom    2 type  1   force =    -9.64638671   -2.74796033   18.09567501
     atom    3 type  2   force =     8.98998626   -5.56994482    2.05776729
     atom    4 type  2   force =     9.40237998    2.06289683  -12.33355566
     The core correction contribution to forces
     atom    1 type  1   force =    -0.14056664    0.08606834   -0.04844392
     atom    2 type  1   force =    -0.12478489   -0.03821359    0.22084668
     atom    3 type  2   force =    -0.00118752   -0.00009146   -0.00709140
     atom    4 type  2   force =     0.00115356    0.00006581    0.00051731
     The Hubbard contrib.    to forces
     atom    1 type  1   force =     0.00000000    0.00000000    0.00000000
     atom    2 type  1   force =     0.00000000    0.00000000    0.00000000
     atom    3 type  2   force =     0.00000000    0.00000000    0.00000000
     atom    4 type  2   force =     0.00000000    0.00000000    0.00000000
     The SCF correction term to forces
     atom    1 type  1   force =     0.00000368   -0.00000959   -0.00003518
     atom    2 type  1   force =     0.00003671    0.00001793   -0.00004659
     atom    3 type  2   force =     0.00000185   -0.00000052   -0.00000485
     atom    4 type  2   force =    -0.00001443   -0.00000199    0.00005516

     Total force =     4.021320     Total SCF correction =     0.000092

     Writing all to output data dir ./ZnO_ANN.save/

     init_run     :      3.84s CPU      3.93s WALL (       1 calls)
     electrons    :    223.33s CPU    227.17s WALL (       1 calls)
     forces       :      1.33s CPU      1.34s WALL (       1 calls)

     Called by init_run:
     wfcinit      :      2.81s CPU      2.86s WALL (       1 calls)
     potinit      :      0.37s CPU      0.38s WALL (       1 calls)
     hinit0       :      0.57s CPU      0.58s WALL (       1 calls)

     Called by electrons:
     c_bands      :    199.44s CPU    202.73s WALL (      27 calls)
     sum_band     :     21.55s CPU     22.03s WALL (      27 calls)
     v_of_rho     :      0.54s CPU      0.58s WALL (      28 calls)
     newd         :      1.73s CPU      1.76s WALL (      28 calls)
     mix_rho      :      0.08s CPU      0.09s WALL (      27 calls)

     Called by c_bands:
     init_us_2    :      1.61s CPU      1.63s WALL (    6272 calls)
     init_us_2:cp :      1.58s CPU      1.61s WALL (    6272 calls)
     cegterg      :    194.46s CPU    197.68s WALL (    3024 calls)

     Called by *egterg:
     cdiaghg      :     19.11s CPU     19.25s WALL (   16899 calls)
     h_psi        :    115.91s CPU    118.33s WALL (   17011 calls)
     s_psi        :     14.46s CPU     14.55s WALL (   17011 calls)
     g_psi        :      0.39s CPU      0.40s WALL (   13875 calls)

     Called by h_psi:
     h_psi:calbec :     15.72s CPU     16.21s WALL (   17011 calls)
     vloc_psi     :     85.34s CPU     87.15s WALL (   17011 calls)
     add_vuspsi   :     14.49s CPU     14.62s WALL (   17011 calls)

     General routines
     calbec       :     21.04s CPU     21.68s WALL (   20483 calls)
     fft          :      0.69s CPU      0.74s WALL (     373 calls)
     ffts         :      0.16s CPU      0.16s WALL (      55 calls)
     fftw         :     85.91s CPU     87.74s WALL (  409484 calls)
     interpolate  :      0.18s CPU      0.18s WALL (      28 calls)

     Parallel routines

     PWSCF        :   3m49.23s CPU   3m53.46s WALL


   This run was terminated on:  18:27:42  24Jun2025            

=------------------------------------------------------------------------------=
   JOB DONE.
=------------------------------------------------------------------------------=
Note: The following floating-point exceptions are signalling: IEEE_INVALID_FLAG
