
     Program PWSCF v.7.2 starts on 24Jun2025 at 16:21: 6 

     This program is part of the open-source Quantum ESPRESSO suite
     for quantum simulation of materials; please cite
         "P. Giannozzi et al., J. Phys.:Condens. Matter 21 395502 (2009);
         "P. Giannozzi et al., J. Phys.:Condens. Matter 29 465901 (2017);
         "P. Giannozzi et al., J. Chem. Phys. 152 154105 (2020);
          URL http://www.quantum-espresso.org", 
     in publications or presentations arising from this work. More details at
     http://www.quantum-espresso.org/quote

     Parallel version (MPI), running on     8 processors

     MPI processes distributed on     1 nodes
     91061 MiB available memory on the printing compute node when the environment starts

     Reading input from /home/jvc/QEspresso7.2/ZnO_DataBase/scf_025_NOSYM.in/scf-6.06-1.55-0.25-3.in

     Current dimensions of program PWSCF are:
     Max number of different atomic species (ntypx) = 10
     Max number of k-points (npk) =  40000
     Max angular momentum in pseudopotentials (lmaxx) =  4
     file Zn.upf: wavefunction(s)  3D renormalized

     R & G space division:  proc/nbgrp/npool/nimage =       8
     Subspace diagonalization in iterative solution of the eigenvalue problem:
     a serial algorithm will be used


     Parallelization info
     --------------------
     sticks:   dense  smooth     PW     G-vecs:    dense   smooth      PW
     Min         126      63     18                 5206     1840     312
     Max         127      65     19                 5211     1843     317
     Sum        1015     511    151                41671    14737    2527

     Using Slab Decomposition



     bravais-lattice index     =            0
     lattice parameter (alat)  =       6.0552  a.u.
     unit-cell volume          =     307.6421 (a.u.)^3
     number of atoms/cell      =            4
     number of atomic types    =            2
     number of electrons       =        36.00
     number of Kohn-Sham states=           18
     kinetic-energy cutoff     =      50.0000  Ry
     charge density cutoff     =     400.0000  Ry
     scf convergence threshold =      1.0E-08
     mixing beta               =       0.3000
     number of iterations used =            8  plain     mixing
     Exchange-correlation= PBE
                           (   1   4   3   4   0   0   0)

     celldm(1)=   6.055245  celldm(2)=   0.000000  celldm(3)=   0.000000
     celldm(4)=   0.000000  celldm(5)=   0.000000  celldm(6)=   0.000000

     crystal axes: (cart. coord. in units of alat)
               a(1) = (   1.000000   0.000000   0.000000 )  
               a(2) = (  -0.500000   0.866025   0.000000 )  
               a(3) = (   0.000000   0.000000   1.600000 )  

     reciprocal axes: (cart. coord. in units 2 pi/alat)
               b(1) = (  1.000000  0.577350 -0.000000 )  
               b(2) = (  0.000000  1.154701  0.000000 )  
               b(3) = (  0.000000 -0.000000  0.625000 )  


     PseudoPot. # 1 for Zn read from file:
     ./pseudos/Zn.upf
     MD5 check sum: 7f56cabf9682ed8c977c2f7d0c5985c5
     Pseudo is Ultrasoft + core correction, Zval = 12.0
     Generated using &quot;atomic&quot; code by A. Dal Corso  v.6.2.2
     Using radial grid of 1201 points,  6 beta functions with: 
                l(1) =   0
                l(2) =   0
                l(3) =   1
                l(4) =   1
                l(5) =   2
                l(6) =   2
     Q(r) pseudized with 0 coefficients 


     PseudoPot. # 2 for O  read from file:
     ./pseudos/O.upf
     MD5 check sum: 91400c9766925bcf19f520983a725ff0
     Pseudo is Ultrasoft + core correction, Zval =  6.0
     Generated using &quot;atomic&quot; code by A. Dal Corso  v.6.3MaX
     Using radial grid of 1095 points,  4 beta functions with: 
                l(1) =   0
                l(2) =   0
                l(3) =   1
                l(4) =   1
     Q(r) pseudized with 0 coefficients 


     atomic species   valence    mass     pseudopotential
        Zn            12.00    63.38000     Zn( 1.00)
        O              6.00    15.99900     O ( 1.00)

     No symmetry found



   Cartesian axes

     site n.     atom                  positions (alat units)
         1           Zn  tau(   1) = (   0.5503809   0.4910365   0.6537244  )
         2           Zn  tau(   2) = (  -0.1007330   0.5835105   0.2996217  )
         3           O   tau(   3) = (   0.6356702   0.3155328   1.6779224  )
         4           O   tau(   4) = (   0.1776205   0.5852719   0.9676605  )

     number of k points=   112

     Number of k-points >= 100: set verbosity='high' to print them.

     Dense  grid:    41671 G-vectors     FFT dimensions: (  40,  40,  64)

     Smooth grid:    14737 G-vectors     FFT dimensions: (  27,  27,  45)

     Estimated max dynamical RAM per process >      28.83 MB

     Estimated total dynamical RAM >     230.62 MB

     Check: negative core charge=   -0.000002

     Initial potential from superposition of free atoms

     starting charge      35.9925, renormalised to      36.0000
     Starting wfcs are   26 randomized atomic wfcs

     total cpu time spent up to now is        3.9 secs

     Self-consistent Calculation

     iteration #  1     ecut=    50.00 Ry     beta= 0.30
     Davidson diagonalization with overlap
     ethr =  1.00E-02,  avg # of iterations =  2.0

     total cpu time spent up to now is        9.3 secs

     total energy              =    -360.22707429 Ry
     estimated scf accuracy    <       1.04269510 Ry

     iteration #  2     ecut=    50.00 Ry     beta= 0.30
     Davidson diagonalization with overlap
     ethr =  2.90E-03,  avg # of iterations =  3.6

     total cpu time spent up to now is       15.4 secs

     total energy              =    -360.41436961 Ry
     estimated scf accuracy    <       0.10470542 Ry

     iteration #  3     ecut=    50.00 Ry     beta= 0.30
     Davidson diagonalization with overlap
     ethr =  2.91E-04,  avg # of iterations =  8.3

     total cpu time spent up to now is       27.1 secs

     total energy              =    -360.48502613 Ry
     estimated scf accuracy    <       0.23378198 Ry

     iteration #  4     ecut=    50.00 Ry     beta= 0.30
     Davidson diagonalization with overlap
     ethr =  2.91E-04,  avg # of iterations =  4.8

     total cpu time spent up to now is       35.0 secs

     total energy              =    -360.53667653 Ry
     estimated scf accuracy    <       0.01410472 Ry

     iteration #  5     ecut=    50.00 Ry     beta= 0.30
     Davidson diagonalization with overlap
     ethr =  3.92E-05,  avg # of iterations =  6.8

     total cpu time spent up to now is       45.2 secs

     total energy              =    -360.52057625 Ry
     estimated scf accuracy    <       0.05814135 Ry

     iteration #  6     ecut=    50.00 Ry     beta= 0.30
     Davidson diagonalization with overlap
     ethr =  3.92E-05,  avg # of iterations =  6.7

     total cpu time spent up to now is       55.3 secs

     total energy              =    -360.53336590 Ry
     estimated scf accuracy    <       0.00151566 Ry

     iteration #  7     ecut=    50.00 Ry     beta= 0.30
     Davidson diagonalization with overlap
     ethr =  4.21E-06,  avg # of iterations =  4.4

     total cpu time spent up to now is       62.7 secs

     total energy              =    -360.53385426 Ry
     estimated scf accuracy    <       0.00057507 Ry

     iteration #  8     ecut=    50.00 Ry     beta= 0.30
     Davidson diagonalization with overlap
     ethr =  1.60E-06,  avg # of iterations =  1.7

     total cpu time spent up to now is       67.5 secs

     total energy              =    -360.53376555 Ry
     estimated scf accuracy    <       0.00021431 Ry

     iteration #  9     ecut=    50.00 Ry     beta= 0.30
     Davidson diagonalization with overlap
     ethr =  5.95E-07,  avg # of iterations =  5.9

     total cpu time spent up to now is       76.2 secs

     total energy              =    -360.53389471 Ry
     estimated scf accuracy    <       0.00011876 Ry

     iteration # 10     ecut=    50.00 Ry     beta= 0.30
     Davidson diagonalization with overlap
     ethr =  3.30E-07,  avg # of iterations =  1.4

     total cpu time spent up to now is       80.8 secs

     total energy              =    -360.53387488 Ry
     estimated scf accuracy    <       0.00005921 Ry

     iteration # 11     ecut=    50.00 Ry     beta= 0.30
     Davidson diagonalization with overlap
     ethr =  1.64E-07,  avg # of iterations =  4.7

     total cpu time spent up to now is       88.2 secs

     total energy              =    -360.53389685 Ry
     estimated scf accuracy    <       0.00001329 Ry

     iteration # 12     ecut=    50.00 Ry     beta= 0.30
     Davidson diagonalization with overlap
     ethr =  3.69E-08,  avg # of iterations =  2.8

     total cpu time spent up to now is       93.6 secs

     total energy              =    -360.53389318 Ry
     estimated scf accuracy    <       0.00000928 Ry

     iteration # 13     ecut=    50.00 Ry     beta= 0.30
     Davidson diagonalization with overlap
     ethr =  2.58E-08,  avg # of iterations =  7.3

     total cpu time spent up to now is      102.0 secs

     total energy              =    -360.53389641 Ry
     estimated scf accuracy    <       0.00001344 Ry

     iteration # 14     ecut=    50.00 Ry     beta= 0.30
     Davidson diagonalization with overlap
     ethr =  2.58E-08,  avg # of iterations =  1.3

     total cpu time spent up to now is      106.6 secs

     total energy              =    -360.53389445 Ry
     estimated scf accuracy    <       0.00000734 Ry

     iteration # 15     ecut=    50.00 Ry     beta= 0.30
     Davidson diagonalization with overlap
     ethr =  2.04E-08,  avg # of iterations =  6.7

     total cpu time spent up to now is      114.0 secs

     total energy              =    -360.53389747 Ry
     estimated scf accuracy    <       0.00000428 Ry

     iteration # 16     ecut=    50.00 Ry     beta= 0.30
     Davidson diagonalization with overlap
     ethr =  1.19E-08,  avg # of iterations =  1.1

     total cpu time spent up to now is      118.4 secs

     total energy              =    -360.53389645 Ry
     estimated scf accuracy    <       0.00000367 Ry

     iteration # 17     ecut=    50.00 Ry     beta= 0.30
     Davidson diagonalization with overlap
     ethr =  1.02E-08,  avg # of iterations =  3.4

     total cpu time spent up to now is      123.9 secs

     total energy              =    -360.53389687 Ry
     estimated scf accuracy    <       0.00000072 Ry

     iteration # 18     ecut=    50.00 Ry     beta= 0.30
     Davidson diagonalization with overlap
     ethr =  2.00E-09,  avg # of iterations =  6.5

     total cpu time spent up to now is      131.3 secs

     total energy              =    -360.53389710 Ry
     estimated scf accuracy    <       0.00000026 Ry

     iteration # 19     ecut=    50.00 Ry     beta= 0.30
     Davidson diagonalization with overlap
     ethr =  7.13E-10,  avg # of iterations =  1.5

     total cpu time spent up to now is      135.8 secs

     total energy              =    -360.53389708 Ry
     estimated scf accuracy    <       0.00000018 Ry

     iteration # 20     ecut=    50.00 Ry     beta= 0.30
     Davidson diagonalization with overlap
     ethr =  5.01E-10,  avg # of iterations =  2.0

     total cpu time spent up to now is      140.9 secs

     total energy              =    -360.53389708 Ry
     estimated scf accuracy    <       0.00000009 Ry

     iteration # 21     ecut=    50.00 Ry     beta= 0.30
     Davidson diagonalization with overlap
     ethr =  2.48E-10,  avg # of iterations =  2.4

     total cpu time spent up to now is      146.1 secs

     total energy              =    -360.53389706 Ry
     estimated scf accuracy    <       0.00000004 Ry

     iteration # 22     ecut=    50.00 Ry     beta= 0.30
     Davidson diagonalization with overlap
     ethr =  1.24E-10,  avg # of iterations =  7.1

     total cpu time spent up to now is      154.6 secs

     total energy              =    -360.53389709 Ry
     estimated scf accuracy    <       0.00000003 Ry

     iteration # 23     ecut=    50.00 Ry     beta= 0.30
     Davidson diagonalization with overlap
     ethr =  7.34E-11,  avg # of iterations =  1.8

     total cpu time spent up to now is      159.3 secs

     total energy              =    -360.53389709 Ry
     estimated scf accuracy    <       0.00000001 Ry

     iteration # 24     ecut=    50.00 Ry     beta= 0.30
     Davidson diagonalization with overlap
     ethr =  3.16E-11,  avg # of iterations =  4.7

     total cpu time spent up to now is      165.4 secs

     End of self-consistent calculation

     Number of k-points >= 100: set verbosity='high' to print the bands.

     highest occupied level (ev):     7.5945

!    total energy              =    -360.53389709 Ry
     estimated scf accuracy    <          2.0E-09 Ry

     The total energy is the sum of the following terms:
     one-electron contribution =    -214.72913223 Ry
     hartree contribution      =     147.02243206 Ry
     xc contribution           =    -110.03558888 Ry
     ewald contribution        =    -182.79160804 Ry

     convergence has been achieved in  24 iterations

     Forces acting on atoms (cartesian axes, Ry/au):

     atom    1 type  1   force =    -0.46365669   -0.24920162    0.70222333
     atom    2 type  1   force =     1.33645006    0.81751759   -0.32324225
     atom    3 type  2   force =    -0.60025878   -0.64081382   -0.48751242
     atom    4 type  2   force =    -0.27253460    0.07249785    0.10853134
     The non-local contrib.  to forces
     atom    1 type  1   force =     1.00079365   -0.06171746   -1.02268758
     atom    2 type  1   force =     0.21064858    0.54630266    0.99736162
     atom    3 type  2   force =     0.40826381    0.43561114    1.52959061
     atom    4 type  2   force =     0.37233762   -0.14752354   -1.41659673
     The ionic contribution  to forces
     atom    1 type  1   force =    -5.31642188   -3.31570205   23.54621845
     atom    2 type  1   force =    16.65316354   10.04616510  -19.09407643
     atom    3 type  2   force =    -6.65617479   -8.43941327  -21.58310721
     atom    4 type  2   force =    -4.68056687    1.70895022   17.13096520
     The local contribution  to forces
     atom    1 type  1   force =     3.87871893    3.10577782  -21.81369618
     atom    2 type  1   force =   -15.40447138   -9.67208151   17.80569139
     atom    3 type  2   force =     5.64817409    7.36345833   19.57654602
     atom    4 type  2   force =     4.03716445   -1.48970803  -15.61746399
     The core correction contribution to forces
     atom    1 type  1   force =    -0.02677341    0.02244128   -0.00750974
     atom    2 type  1   force =    -0.12291540   -0.10290545   -0.03236077
     atom    3 type  2   force =    -0.00051647   -0.00046842   -0.01061459
     atom    4 type  2   force =    -0.00145995    0.00078455    0.01170389
     The Hubbard contrib.    to forces
     atom    1 type  1   force =     0.00000000    0.00000000    0.00000000
     atom    2 type  1   force =     0.00000000    0.00000000    0.00000000
     atom    3 type  2   force =     0.00000000    0.00000000    0.00000000
     atom    4 type  2   force =     0.00000000    0.00000000    0.00000000
     The SCF correction term to forces
     atom    1 type  1   force =     0.00003467    0.00000488   -0.00009440
     atom    2 type  1   force =     0.00003337    0.00004290    0.00014916
     atom    3 type  2   force =     0.00000323    0.00000450    0.00007998
     atom    4 type  2   force =    -0.00000120    0.00000075   -0.00006981

     Total force =     2.104530     Total SCF correction =     0.000216

     Writing all to output data dir ./ZnO_ANN.save/

     init_run     :      3.36s CPU      3.44s WALL (       1 calls)
     electrons    :    158.59s CPU    161.53s WALL (       1 calls)
     forces       :      1.07s CPU      1.08s WALL (       1 calls)

     Called by init_run:
     wfcinit      :      2.48s CPU      2.53s WALL (       1 calls)
     potinit      :      0.25s CPU      0.26s WALL (       1 calls)
     hinit0       :      0.55s CPU      0.57s WALL (       1 calls)

     Called by electrons:
     c_bands      :    140.21s CPU    142.72s WALL (      24 calls)
     sum_band     :     16.72s CPU     17.09s WALL (      24 calls)
     v_of_rho     :      0.33s CPU      0.37s WALL (      25 calls)
     newd         :      1.28s CPU      1.32s WALL (      25 calls)
     mix_rho      :      0.06s CPU      0.06s WALL (      24 calls)

     Called by c_bands:
     init_us_2    :      1.14s CPU      1.15s WALL (    5600 calls)
     init_us_2:cp :      1.12s CPU      1.14s WALL (    5600 calls)
     cegterg      :    136.54s CPU    139.00s WALL (    2688 calls)

     Called by *egterg:
     cdiaghg      :     14.78s CPU     14.89s WALL (   13773 calls)
     h_psi        :     82.21s CPU     84.06s WALL (   13885 calls)
     s_psi        :      9.21s CPU      9.30s WALL (   13885 calls)
     g_psi        :      0.25s CPU      0.26s WALL (   11085 calls)

     Called by h_psi:
     h_psi:calbec :     10.78s CPU     11.17s WALL (   13885 calls)
     vloc_psi     :     61.94s CPU     63.28s WALL (   13885 calls)
     add_vuspsi   :      9.23s CPU      9.34s WALL (   13885 calls)

     General routines
     calbec       :     14.89s CPU     15.40s WALL (   17021 calls)
     fft          :      0.52s CPU      0.57s WALL (     334 calls)
     ffts         :      0.08s CPU      0.08s WALL (      49 calls)
     fftw         :     65.17s CPU     66.60s WALL (  334468 calls)
     interpolate  :      0.09s CPU      0.09s WALL (      25 calls)

     Parallel routines

     PWSCF        :   2m43.75s CPU   2m46.95s WALL


   This run was terminated on:  16:23:53  24Jun2025            

=------------------------------------------------------------------------------=
   JOB DONE.
=------------------------------------------------------------------------------=
Note: The following floating-point exceptions are signalling: IEEE_INVALID_FLAG
