
     Program PWSCF v.7.2 starts on 24Jun2025 at 17: 0: 9 

     This program is part of the open-source Quantum ESPRESSO suite
     for quantum simulation of materials; please cite
         "P. Giannozzi et al., J. Phys.:Condens. Matter 21 395502 (2009);
         "P. Giannozzi et al., J. Phys.:Condens. Matter 29 465901 (2017);
         "P. Giannozzi et al., J. Chem. Phys. 152 154105 (2020);
          URL http://www.quantum-espresso.org", 
     in publications or presentations arising from this work. More details at
     http://www.quantum-espresso.org/quote

     Parallel version (MPI), running on     8 processors

     MPI processes distributed on     1 nodes
     90981 MiB available memory on the printing compute node when the environment starts

     Reading input from /home/jvc/QEspresso7.2/ZnO_DataBase/scf_025_NOSYM.in/scf-6.18-1.58-0.25-1.in

     Current dimensions of program PWSCF are:
     Max number of different atomic species (ntypx) = 10
     Max number of k-points (npk) =  40000
     Max angular momentum in pseudopotentials (lmaxx) =  4
     file Zn.upf: wavefunction(s)  3D renormalized

     R & G space division:  proc/nbgrp/npool/nimage =       8
     Subspace diagonalization in iterative solution of the eigenvalue problem:
     a serial algorithm will be used


     Parallelization info
     --------------------
     sticks:   dense  smooth     PW     G-vecs:    dense   smooth      PW
     Min         130      64     20                 5518     1944     332
     Max         131      66     21                 5522     1946     337
     Sum        1045     517    163                44163    15561    2671

     Using Slab Decomposition



     bravais-lattice index     =            0
     lattice parameter (alat)  =       6.1788  a.u.
     unit-cell volume          =     326.8643 (a.u.)^3
     number of atoms/cell      =            4
     number of atomic types    =            2
     number of electrons       =        36.00
     number of Kohn-Sham states=           18
     kinetic-energy cutoff     =      50.0000  Ry
     charge density cutoff     =     400.0000  Ry
     scf convergence threshold =      1.0E-08
     mixing beta               =       0.3000
     number of iterations used =            8  plain     mixing
     Exchange-correlation= PBE
                           (   1   4   3   4   0   0   0)

     celldm(1)=   6.178821  celldm(2)=   0.000000  celldm(3)=   0.000000
     celldm(4)=   0.000000  celldm(5)=   0.000000  celldm(6)=   0.000000

     crystal axes: (cart. coord. in units of alat)
               a(1) = (   1.000000   0.000000   0.000000 )  
               a(2) = (  -0.500000   0.866025   0.000000 )  
               a(3) = (   0.000000   0.000000   1.600000 )  

     reciprocal axes: (cart. coord. in units 2 pi/alat)
               b(1) = (  1.000000  0.577350 -0.000000 )  
               b(2) = (  0.000000  1.154701  0.000000 )  
               b(3) = (  0.000000 -0.000000  0.625000 )  


     PseudoPot. # 1 for Zn read from file:
     ./pseudos/Zn.upf
     MD5 check sum: 7f56cabf9682ed8c977c2f7d0c5985c5
     Pseudo is Ultrasoft + core correction, Zval = 12.0
     Generated using &quot;atomic&quot; code by A. Dal Corso  v.6.2.2
     Using radial grid of 1201 points,  6 beta functions with: 
                l(1) =   0
                l(2) =   0
                l(3) =   1
                l(4) =   1
                l(5) =   2
                l(6) =   2
     Q(r) pseudized with 0 coefficients 


     PseudoPot. # 2 for O  read from file:
     ./pseudos/O.upf
     MD5 check sum: 91400c9766925bcf19f520983a725ff0
     Pseudo is Ultrasoft + core correction, Zval =  6.0
     Generated using &quot;atomic&quot; code by A. Dal Corso  v.6.3MaX
     Using radial grid of 1095 points,  4 beta functions with: 
                l(1) =   0
                l(2) =   0
                l(3) =   1
                l(4) =   1
     Q(r) pseudized with 0 coefficients 


     atomic species   valence    mass     pseudopotential
        Zn            12.00    63.38000     Zn( 1.00)
        O              6.00    15.99900     O ( 1.00)

     No symmetry found



   Cartesian axes

     site n.     atom                  positions (alat units)
         1           Zn  tau(   1) = (   0.4718559   0.3516479   1.0701896  )
         2           Zn  tau(   2) = (  -0.1706534   0.7291660   0.2736912  )
         3           O   tau(   3) = (   0.3078236   0.4248558   1.4106474  )
         4           O   tau(   4) = (  -0.2024812   0.7204623   0.5602985  )

     number of k points=   112

     Number of k-points >= 100: set verbosity='high' to print them.

     Dense  grid:    44163 G-vectors     FFT dimensions: (  40,  40,  64)

     Smooth grid:    15561 G-vectors     FFT dimensions: (  27,  27,  45)

     Estimated max dynamical RAM per process >      30.35 MB

     Estimated total dynamical RAM >     242.82 MB

     Check: negative core charge=   -0.000002

     Initial potential from superposition of free atoms

     starting charge      35.9925, renormalised to      36.0000
     Starting wfcs are   26 randomized atomic wfcs

     total cpu time spent up to now is        4.0 secs

     Self-consistent Calculation

     iteration #  1     ecut=    50.00 Ry     beta= 0.30
     Davidson diagonalization with overlap
     ethr =  1.00E-02,  avg # of iterations =  3.7

     total cpu time spent up to now is       10.9 secs

     total energy              =    -356.85687241 Ry
     estimated scf accuracy    <       1.49748152 Ry

     iteration #  2     ecut=    50.00 Ry     beta= 0.30
     Davidson diagonalization with overlap
     ethr =  4.16E-03,  avg # of iterations =  2.2

     total cpu time spent up to now is       16.8 secs

     total energy              =    -356.81137547 Ry
     estimated scf accuracy    <       0.33485544 Ry

     iteration #  3     ecut=    50.00 Ry     beta= 0.30
     Davidson diagonalization with overlap
     ethr =  9.30E-04,  avg # of iterations =  6.8

     total cpu time spent up to now is       28.1 secs

     total energy              =    -357.22182317 Ry
     estimated scf accuracy    <       0.65601750 Ry

     iteration #  4     ecut=    50.00 Ry     beta= 0.30
     Davidson diagonalization with overlap
     ethr =  9.30E-04,  avg # of iterations =  1.0

     total cpu time spent up to now is       32.7 secs

     total energy              =    -356.80523880 Ry
     estimated scf accuracy    <       0.53787649 Ry

     iteration #  5     ecut=    50.00 Ry     beta= 0.30
     Davidson diagonalization with overlap
     ethr =  9.30E-04,  avg # of iterations =  7.0

     total cpu time spent up to now is       44.8 secs

     total energy              =    -357.31790133 Ry
     estimated scf accuracy    <       0.95593779 Ry

     iteration #  6     ecut=    50.00 Ry     beta= 0.30
     Davidson diagonalization with overlap
     ethr =  9.30E-04,  avg # of iterations =  1.0

     total cpu time spent up to now is       49.4 secs

     total energy              =    -356.93750870 Ry
     estimated scf accuracy    <       0.83907447 Ry

     iteration #  7     ecut=    50.00 Ry     beta= 0.30
     Davidson diagonalization with overlap
     ethr =  9.30E-04,  avg # of iterations =  4.9

     total cpu time spent up to now is       57.8 secs

     total energy              =    -357.11233996 Ry
     estimated scf accuracy    <       0.00544343 Ry

     iteration #  8     ecut=    50.00 Ry     beta= 0.30
     Davidson diagonalization with overlap
     ethr =  1.51E-05,  avg # of iterations =  8.0

     total cpu time spent up to now is       71.7 secs

     total energy              =    -357.10687548 Ry
     estimated scf accuracy    <       0.07315265 Ry

     iteration #  9     ecut=    50.00 Ry     beta= 0.30
     Davidson diagonalization with overlap
     ethr =  1.51E-05,  avg # of iterations =  5.7

     total cpu time spent up to now is       81.7 secs

     total energy              =    -357.10766586 Ry
     estimated scf accuracy    <       0.01917321 Ry

     iteration # 10     ecut=    50.00 Ry     beta= 0.30
     Davidson diagonalization with overlap
     ethr =  1.51E-05,  avg # of iterations =  2.0

     total cpu time spent up to now is       86.9 secs

     total energy              =    -357.10173602 Ry
     estimated scf accuracy    <       0.01161434 Ry

     iteration # 11     ecut=    50.00 Ry     beta= 0.30
     Davidson diagonalization with overlap
     ethr =  1.51E-05,  avg # of iterations =  7.0

     total cpu time spent up to now is       97.9 secs

     total energy              =    -357.10786387 Ry
     estimated scf accuracy    <       0.00523118 Ry

     iteration # 12     ecut=    50.00 Ry     beta= 0.30
     Davidson diagonalization with overlap
     ethr =  1.45E-05,  avg # of iterations =  1.0

     total cpu time spent up to now is      102.5 secs

     total energy              =    -357.10697293 Ry
     estimated scf accuracy    <       0.00430414 Ry

     iteration # 13     ecut=    50.00 Ry     beta= 0.30
     Davidson diagonalization with overlap
     ethr =  1.20E-05,  avg # of iterations =  1.2

     total cpu time spent up to now is      107.3 secs

     total energy              =    -357.10682825 Ry
     estimated scf accuracy    <       0.00202729 Ry

     iteration # 14     ecut=    50.00 Ry     beta= 0.30
     Davidson diagonalization with overlap
     ethr =  5.63E-06,  avg # of iterations =  2.0

     total cpu time spent up to now is      112.6 secs

     total energy              =    -357.10687678 Ry
     estimated scf accuracy    <       0.00101688 Ry

     iteration # 15     ecut=    50.00 Ry     beta= 0.30
     Davidson diagonalization with overlap
     ethr =  2.82E-06,  avg # of iterations =  2.8

     total cpu time spent up to now is      118.5 secs

     total energy              =    -357.10690674 Ry
     estimated scf accuracy    <       0.00038208 Ry

     iteration # 16     ecut=    50.00 Ry     beta= 0.30
     Davidson diagonalization with overlap
     ethr =  1.06E-06,  avg # of iterations =  4.9

     total cpu time spent up to now is      126.2 secs

     total energy              =    -357.10704756 Ry
     estimated scf accuracy    <       0.00000401 Ry

     iteration # 17     ecut=    50.00 Ry     beta= 0.30
     Davidson diagonalization with overlap
     ethr =  1.11E-08,  avg # of iterations =  7.8

     total cpu time spent up to now is      138.2 secs

     total energy              =    -357.10706356 Ry
     estimated scf accuracy    <       0.00000674 Ry

     iteration # 18     ecut=    50.00 Ry     beta= 0.30
     Davidson diagonalization with overlap
     ethr =  1.11E-08,  avg # of iterations =  7.2

     total cpu time spent up to now is      149.9 secs

     total energy              =    -357.10707997 Ry
     estimated scf accuracy    <       0.00006274 Ry

     iteration # 19     ecut=    50.00 Ry     beta= 0.30
     Davidson diagonalization with overlap
     ethr =  1.11E-08,  avg # of iterations =  5.4

     total cpu time spent up to now is      158.3 secs

     total energy              =    -357.10705138 Ry
     estimated scf accuracy    <       0.00011729 Ry

     iteration # 20     ecut=    50.00 Ry     beta= 0.30
     Davidson diagonalization with overlap
     ethr =  1.11E-08,  avg # of iterations =  7.6

     total cpu time spent up to now is      170.5 secs

     total energy              =    -357.10705306 Ry
     estimated scf accuracy    <       0.00001924 Ry

     iteration # 21     ecut=    50.00 Ry     beta= 0.30
     Davidson diagonalization with overlap
     ethr =  1.11E-08,  avg # of iterations =  5.5

     total cpu time spent up to now is      178.9 secs

     total energy              =    -357.10705464 Ry
     estimated scf accuracy    <       0.00000169 Ry

     iteration # 22     ecut=    50.00 Ry     beta= 0.30
     Davidson diagonalization with overlap
     ethr =  4.68E-09,  avg # of iterations =  3.1

     total cpu time spent up to now is      184.7 secs

     total energy              =    -357.10705461 Ry
     estimated scf accuracy    <       0.00000046 Ry

     iteration # 23     ecut=    50.00 Ry     beta= 0.30
     Davidson diagonalization with overlap
     ethr =  1.27E-09,  avg # of iterations =  6.3

     total cpu time spent up to now is      194.5 secs

     total energy              =    -357.10705499 Ry
     estimated scf accuracy    <       0.00000040 Ry

     iteration # 24     ecut=    50.00 Ry     beta= 0.30
     Davidson diagonalization with overlap
     ethr =  1.10E-09,  avg # of iterations =  1.1

     total cpu time spent up to now is      199.1 secs

     total energy              =    -357.10705487 Ry
     estimated scf accuracy    <       0.00000026 Ry

     iteration # 25     ecut=    50.00 Ry     beta= 0.30
     Davidson diagonalization with overlap
     ethr =  7.36E-10,  avg # of iterations =  4.5

     total cpu time spent up to now is      206.9 secs

     End of self-consistent calculation

     Number of k-points >= 100: set verbosity='high' to print the bands.

     highest occupied level (ev):     8.1878

!    total energy              =    -357.10705495 Ry
     estimated scf accuracy    <          9.6E-09 Ry

     The total energy is the sum of the following terms:
     one-electron contribution =    -200.28833471 Ry
     hartree contribution      =     138.25381829 Ry
     xc contribution           =    -110.80186505 Ry
     ewald contribution        =    -184.27067347 Ry

     convergence has been achieved in  25 iterations

     Forces acting on atoms (cartesian axes, Ry/au):

     atom    1 type  1   force =     0.84209987   -0.35900873   -1.77461726
     atom    2 type  1   force =     1.16762510    0.32389404  -10.42991851
     atom    3 type  2   force =    -0.84567622    0.36594754    1.73670977
     atom    4 type  2   force =    -1.16404875   -0.33083286   10.46782601
     The non-local contrib.  to forces
     atom    1 type  1   force =     0.57266031   -0.29578718   -1.09954310
     atom    2 type  1   force =    -0.11537689    0.00318018    1.30537324
     atom    3 type  2   force =     0.45319805   -0.27212647   -0.91909794
     atom    4 type  2   force =     0.05872633   -0.02131599   -0.50751080
     The ionic contribution  to forces
     atom    1 type  1   force =     7.75012912   -3.60593251  -15.39753953
     atom    2 type  1   force =     4.47889659    0.96097453  -37.45851291
     atom    3 type  2   force =    -8.17542929    3.84614268   14.26211431
     atom    4 type  2   force =    -4.05359641   -1.20118469   38.59393813
     The local contribution  to forces
     atom    1 type  1   force =    -7.37971515    3.49391419   14.52044829
     atom    2 type  1   force =    -3.13278383   -0.62325013   25.15947123
     atom    3 type  2   force =     6.87654781   -3.20873180  -11.60665858
     atom    4 type  2   force =     2.82824675    0.89058586  -27.59513708
     The core correction contribution to forces
     atom    1 type  1   force =    -0.10087671    0.04875343    0.20162615
     atom    2 type  1   force =    -0.06311979   -0.01700595    0.56392370
     atom    3 type  2   force =    -0.00001099    0.00066487    0.00029649
     atom    4 type  2   force =     0.00256127    0.00108619   -0.02340270
     The Hubbard contrib.    to forces
     atom    1 type  1   force =     0.00000000    0.00000000    0.00000000
     atom    2 type  1   force =     0.00000000    0.00000000    0.00000000
     atom    3 type  2   force =     0.00000000    0.00000000    0.00000000
     atom    4 type  2   force =     0.00000000    0.00000000    0.00000000
     The SCF correction term to forces
     atom    1 type  1   force =    -0.00011118    0.00004805    0.00040333
     atom    2 type  1   force =    -0.00000446    0.00000012   -0.00016139
     atom    3 type  2   force =     0.00000471    0.00000297    0.00006788
     atom    4 type  2   force =    -0.00000019    0.00000047   -0.00004915

     Total force =    15.137497     Total SCF correction =     0.000459

     Writing all to output data dir ./ZnO_ANN.save/

     init_run     :      3.48s CPU      3.57s WALL (       1 calls)
     electrons    :    198.75s CPU    202.88s WALL (       1 calls)
     forces       :      1.13s CPU      1.14s WALL (       1 calls)

     Called by init_run:
     wfcinit      :      2.59s CPU      2.64s WALL (       1 calls)
     potinit      :      0.26s CPU      0.27s WALL (       1 calls)
     hinit0       :      0.54s CPU      0.56s WALL (       1 calls)

     Called by electrons:
     c_bands      :    178.92s CPU    182.51s WALL (      25 calls)
     sum_band     :     17.99s CPU     18.48s WALL (      25 calls)
     v_of_rho     :      0.36s CPU      0.39s WALL (      26 calls)
     newd         :      1.44s CPU      1.47s WALL (      26 calls)
     mix_rho      :      0.06s CPU      0.07s WALL (      25 calls)

     Called by c_bands:
     init_us_2    :      1.33s CPU      1.36s WALL (    5824 calls)
     init_us_2:cp :      1.31s CPU      1.34s WALL (    5824 calls)
     cegterg      :    174.87s CPU    178.36s WALL (    2800 calls)

     Called by *egterg:
     cdiaghg      :     17.48s CPU     17.62s WALL (   15060 calls)
     h_psi        :    105.33s CPU    107.96s WALL (   15172 calls)
     s_psi        :     13.32s CPU     13.43s WALL (   15172 calls)
     g_psi        :      0.35s CPU      0.35s WALL (   12260 calls)

     Called by h_psi:
     h_psi:calbec :     13.68s CPU     14.22s WALL (   15172 calls)
     vloc_psi     :     77.98s CPU     79.93s WALL (   15172 calls)
     add_vuspsi   :     13.34s CPU     13.49s WALL (   15172 calls)

     General routines
     calbec       :     18.12s CPU     18.81s WALL (   18420 calls)
     fft          :      0.47s CPU      0.51s WALL (     347 calls)
     ffts         :      0.08s CPU      0.08s WALL (      51 calls)
     fftw         :     79.35s CPU     81.37s WALL (  396810 calls)
     interpolate  :      0.09s CPU      0.09s WALL (      26 calls)

     Parallel routines

     PWSCF        :   3m24.09s CPU   3m28.51s WALL


   This run was terminated on:  17: 3:38  24Jun2025            

=------------------------------------------------------------------------------=
   JOB DONE.
=------------------------------------------------------------------------------=
Note: The following floating-point exceptions are signalling: IEEE_INVALID_FLAG
