
     Program PWSCF v.7.2 starts on 24Jun2025 at 14:34:41 

     This program is part of the open-source Quantum ESPRESSO suite
     for quantum simulation of materials; please cite
         "P. Giannozzi et al., J. Phys.:Condens. Matter 21 395502 (2009);
         "P. Giannozzi et al., J. Phys.:Condens. Matter 29 465901 (2017);
         "P. Giannozzi et al., J. Chem. Phys. 152 154105 (2020);
          URL http://www.quantum-espresso.org", 
     in publications or presentations arising from this work. More details at
     http://www.quantum-espresso.org/quote

     Parallel version (MPI), running on     8 processors

     MPI processes distributed on     1 nodes
     91306 MiB available memory on the printing compute node when the environment starts

     Reading input from /home/jvc/QEspresso7.2/ZnO_DataBase/scf_025_NOSYM.in/scf-5.56-1.61-0.25-5.in

     Current dimensions of program PWSCF are:
     Max number of different atomic species (ntypx) = 10
     Max number of k-points (npk) =  40000
     Max angular momentum in pseudopotentials (lmaxx) =  4
     file Zn.upf: wavefunction(s)  3D renormalized

     R & G space division:  proc/nbgrp/npool/nimage =       8
     Subspace diagonalization in iterative solution of the eigenvalue problem:
     a serial algorithm will be used


     Parallelization info
     --------------------
     sticks:   dense  smooth     PW     G-vecs:    dense   smooth      PW
     Min         105      53     15                 4025     1425     243
     Max         106      55     16                 4034     1428     250
     Sum         847     433    127                32259    11417    1961

     Using Slab Decomposition



     bravais-lattice index     =            0
     lattice parameter (alat)  =       5.5609  a.u.
     unit-cell volume          =     238.2841 (a.u.)^3
     number of atoms/cell      =            4
     number of atomic types    =            2
     number of electrons       =        36.00
     number of Kohn-Sham states=           18
     kinetic-energy cutoff     =      50.0000  Ry
     charge density cutoff     =     400.0000  Ry
     scf convergence threshold =      1.0E-08
     mixing beta               =       0.3000
     number of iterations used =            8  plain     mixing
     Exchange-correlation= PBE
                           (   1   4   3   4   0   0   0)

     celldm(1)=   5.560939  celldm(2)=   0.000000  celldm(3)=   0.000000
     celldm(4)=   0.000000  celldm(5)=   0.000000  celldm(6)=   0.000000

     crystal axes: (cart. coord. in units of alat)
               a(1) = (   1.000000   0.000000   0.000000 )  
               a(2) = (  -0.500000   0.866025   0.000000 )  
               a(3) = (   0.000000   0.000000   1.600000 )  

     reciprocal axes: (cart. coord. in units 2 pi/alat)
               b(1) = (  1.000000  0.577350 -0.000000 )  
               b(2) = (  0.000000  1.154701  0.000000 )  
               b(3) = (  0.000000 -0.000000  0.625000 )  


     PseudoPot. # 1 for Zn read from file:
     ./pseudos/Zn.upf
     MD5 check sum: 7f56cabf9682ed8c977c2f7d0c5985c5
     Pseudo is Ultrasoft + core correction, Zval = 12.0
     Generated using &quot;atomic&quot; code by A. Dal Corso  v.6.2.2
     Using radial grid of 1201 points,  6 beta functions with: 
                l(1) =   0
                l(2) =   0
                l(3) =   1
                l(4) =   1
                l(5) =   2
                l(6) =   2
     Q(r) pseudized with 0 coefficients 


     PseudoPot. # 2 for O  read from file:
     ./pseudos/O.upf
     MD5 check sum: 91400c9766925bcf19f520983a725ff0
     Pseudo is Ultrasoft + core correction, Zval =  6.0
     Generated using &quot;atomic&quot; code by A. Dal Corso  v.6.3MaX
     Using radial grid of 1095 points,  4 beta functions with: 
                l(1) =   0
                l(2) =   0
                l(3) =   1
                l(4) =   1
     Q(r) pseudized with 0 coefficients 


     atomic species   valence    mass     pseudopotential
        Zn            12.00    63.38000     Zn( 1.00)
        O              6.00    15.99900     O ( 1.00)

     No symmetry found



   Cartesian axes

     site n.     atom                  positions (alat units)
         1           Zn  tau(   1) = (   0.4155948   0.4374597   1.1178931  )
         2           Zn  tau(   2) = (  -0.0032151   0.4509279  -0.1349831  )
         3           O   tau(   3) = (   0.5983679   0.2256704   1.5894161  )
         4           O   tau(   4) = (  -0.0273898   0.5496720   0.7338615  )

     number of k points=   112

     Number of k-points >= 100: set verbosity='high' to print them.

     Dense  grid:    32259 G-vectors     FFT dimensions: (  36,  36,  60)

     Smooth grid:    11417 G-vectors     FFT dimensions: (  25,  25,  45)

     Estimated max dynamical RAM per process >      23.07 MB

     Estimated total dynamical RAM >     184.57 MB

     Check: negative core charge=   -0.000002

     Initial potential from superposition of free atoms

     starting charge      35.9925, renormalised to      36.0000
     Starting wfcs are   26 randomized atomic wfcs

     total cpu time spent up to now is        3.2 secs

     Self-consistent Calculation

     iteration #  1     ecut=    50.00 Ry     beta= 0.30
     Davidson diagonalization with overlap
     ethr =  1.00E-02,  avg # of iterations =  2.3

     total cpu time spent up to now is        7.3 secs

     total energy              =    -360.06959825 Ry
     estimated scf accuracy    <       0.89734077 Ry

     iteration #  2     ecut=    50.00 Ry     beta= 0.30
     Davidson diagonalization with overlap
     ethr =  2.49E-03,  avg # of iterations =  3.3

     total cpu time spent up to now is       11.9 secs

     total energy              =    -360.18482514 Ry
     estimated scf accuracy    <       0.15151845 Ry

     iteration #  3     ecut=    50.00 Ry     beta= 0.30
     Davidson diagonalization with overlap
     ethr =  4.21E-04,  avg # of iterations =  6.5

     total cpu time spent up to now is       20.2 secs

     total energy              =    -360.29508770 Ry
     estimated scf accuracy    <       0.12407421 Ry

     iteration #  4     ecut=    50.00 Ry     beta= 0.30
     Davidson diagonalization with overlap
     ethr =  3.45E-04,  avg # of iterations =  1.9

     total cpu time spent up to now is       24.0 secs

     total energy              =    -360.27829281 Ry
     estimated scf accuracy    <       0.03587384 Ry

     iteration #  5     ecut=    50.00 Ry     beta= 0.30
     Davidson diagonalization with overlap
     ethr =  9.96E-05,  avg # of iterations =  8.0

     total cpu time spent up to now is       35.1 secs

     total energy              =    -360.26664308 Ry
     estimated scf accuracy    <       0.22135315 Ry

     iteration #  6     ecut=    50.00 Ry     beta= 0.30
     Davidson diagonalization with overlap
     ethr =  9.96E-05,  avg # of iterations =  6.9

     total cpu time spent up to now is       44.2 secs

     total energy              =    -360.31161033 Ry
     estimated scf accuracy    <       0.00129113 Ry

     iteration #  7     ecut=    50.00 Ry     beta= 0.30
     Davidson diagonalization with overlap
     ethr =  3.59E-06,  avg # of iterations =  7.7

     total cpu time spent up to now is       55.2 secs

     total energy              =    -360.30730740 Ry
     estimated scf accuracy    <       0.02048223 Ry

     iteration #  8     ecut=    50.00 Ry     beta= 0.30
     Davidson diagonalization with overlap
     ethr =  3.59E-06,  avg # of iterations =  7.3

     total cpu time spent up to now is       65.8 secs

     total energy              =    -360.30972905 Ry
     estimated scf accuracy    <       0.00054962 Ry

     iteration #  9     ecut=    50.00 Ry     beta= 0.30
     Davidson diagonalization with overlap
     ethr =  1.53E-06,  avg # of iterations =  4.8

     total cpu time spent up to now is       72.0 secs

     total energy              =    -360.30997043 Ry
     estimated scf accuracy    <       0.00010482 Ry

     iteration # 10     ecut=    50.00 Ry     beta= 0.30
     Davidson diagonalization with overlap
     ethr =  2.91E-07,  avg # of iterations =  2.5

     total cpu time spent up to now is       76.1 secs

     total energy              =    -360.30995273 Ry
     estimated scf accuracy    <       0.00005386 Ry

     iteration # 11     ecut=    50.00 Ry     beta= 0.30
     Davidson diagonalization with overlap
     ethr =  1.50E-07,  avg # of iterations =  4.7

     total cpu time spent up to now is       81.8 secs

     total energy              =    -360.30997465 Ry
     estimated scf accuracy    <       0.00000783 Ry

     iteration # 12     ecut=    50.00 Ry     beta= 0.30
     Davidson diagonalization with overlap
     ethr =  2.18E-08,  avg # of iterations =  3.5

     total cpu time spent up to now is       86.4 secs

     total energy              =    -360.30997347 Ry
     estimated scf accuracy    <       0.00000710 Ry

     iteration # 13     ecut=    50.00 Ry     beta= 0.30
     Davidson diagonalization with overlap
     ethr =  1.97E-08,  avg # of iterations =  3.5

     total cpu time spent up to now is       90.8 secs

     total energy              =    -360.30997376 Ry
     estimated scf accuracy    <       0.00000099 Ry

     iteration # 14     ecut=    50.00 Ry     beta= 0.30
     Davidson diagonalization with overlap
     ethr =  2.74E-09,  avg # of iterations =  9.2

     total cpu time spent up to now is       99.0 secs

     total energy              =    -360.30997508 Ry
     estimated scf accuracy    <       0.00000358 Ry

     iteration # 15     ecut=    50.00 Ry     beta= 0.30
     Davidson diagonalization with overlap
     ethr =  2.74E-09,  avg # of iterations =  1.4

     total cpu time spent up to now is      102.4 secs

     total energy              =    -360.30997396 Ry
     estimated scf accuracy    <       0.00000244 Ry

     iteration # 16     ecut=    50.00 Ry     beta= 0.30
     Davidson diagonalization with overlap
     ethr =  2.74E-09,  avg # of iterations =  8.1

     total cpu time spent up to now is      109.1 secs

     total energy              =    -360.30997496 Ry
     estimated scf accuracy    <       0.00000073 Ry

     iteration # 17     ecut=    50.00 Ry     beta= 0.30
     Davidson diagonalization with overlap
     ethr =  2.03E-09,  avg # of iterations =  1.0

     total cpu time spent up to now is      112.4 secs

     total energy              =    -360.30997478 Ry
     estimated scf accuracy    <       0.00000053 Ry

     iteration # 18     ecut=    50.00 Ry     beta= 0.30
     Davidson diagonalization with overlap
     ethr =  1.47E-09,  avg # of iterations =  5.6

     total cpu time spent up to now is      117.2 secs

     End of self-consistent calculation

     Number of k-points >= 100: set verbosity='high' to print the bands.

     highest occupied level (ev):    12.3724

!    total energy              =    -360.30997488 Ry
     estimated scf accuracy    <          8.2E-09 Ry

     The total energy is the sum of the following terms:
     one-electron contribution =    -185.74229180 Ry
     hartree contribution      =     137.61969150 Ry
     xc contribution           =    -110.68627245 Ry
     ewald contribution        =    -201.50110213 Ry

     convergence has been achieved in  18 iterations

     Forces acting on atoms (cartesian axes, Ry/au):

     atom    1 type  1   force =     0.64530932    0.05440943   -1.21376189
     atom    2 type  1   force =     0.17266152    0.52313325    0.64255836
     atom    3 type  2   force =    -0.76571275   -0.61356404    0.56524029
     atom    4 type  2   force =    -0.05225809    0.03602135    0.00596324
     The non-local contrib.  to forces
     atom    1 type  1   force =    -0.29089465    0.10625816    1.01729421
     atom    2 type  1   force =     1.01336158    0.37110429   -0.74552236
     atom    3 type  2   force =     0.00352893    0.44353093   -1.44520674
     atom    4 type  2   force =     0.31026872   -0.14149855    1.34228985
     The ionic contribution  to forces
     atom    1 type  1   force =     6.92683765    1.45150547  -31.10457449
     atom    2 type  1   force =    -0.07663973    4.19124700   24.55557992
     atom    3 type  2   force =    -4.92964687   -7.17485676   22.51423156
     atom    4 type  2   force =    -1.92055105    1.53210429  -15.96523699
     The local contribution  to forces
     atom    1 type  1   force =    -5.96077834   -1.48326156   28.81159770
     atom    2 type  1   force =    -0.68776207   -3.97294259  -23.14977645
     atom    3 type  2   force =     4.15720175    6.11890981  -20.51257839
     atom    4 type  2   force =     1.56057848   -1.35551519   14.64012016
     The core correction contribution to forces
     atom    1 type  1   force =    -0.02981572   -0.02011391    0.06177924
     atom    2 type  1   force =    -0.07638052   -0.06628711   -0.01743213
     atom    3 type  2   force =     0.00320834   -0.00114828    0.00893358
     atom    4 type  2   force =    -0.00255955    0.00094871   -0.01141420
     The Hubbard contrib.    to forces
     atom    1 type  1   force =     0.00000000    0.00000000    0.00000000
     atom    2 type  1   force =     0.00000000    0.00000000    0.00000000
     atom    3 type  2   force =     0.00000000    0.00000000    0.00000000
     atom    4 type  2   force =     0.00000000    0.00000000    0.00000000
     The SCF correction term to forces
     atom    1 type  1   force =    -0.00003379    0.00003441    0.00010138
     atom    2 type  1   force =     0.00008809    0.00002480   -0.00033070
     atom    3 type  2   force =     0.00000092    0.00001340   -0.00017980
     atom    4 type  2   force =     0.00001116   -0.00000478    0.00016434

     Total force =     1.973652     Total SCF correction =     0.000436

     Writing all to output data dir ./ZnO_ANN.save/

     init_run     :      2.62s CPU      2.70s WALL (       1 calls)
     electrons    :    111.53s CPU    114.05s WALL (       1 calls)
     forces       :      0.87s CPU      0.87s WALL (       1 calls)

     Called by init_run:
     wfcinit      :      1.86s CPU      1.90s WALL (       1 calls)
     potinit      :      0.20s CPU      0.20s WALL (       1 calls)
     hinit0       :      0.51s CPU      0.53s WALL (       1 calls)

     Called by electrons:
     c_bands      :    101.39s CPU    103.62s WALL (      18 calls)
     sum_band     :      9.12s CPU      9.39s WALL (      18 calls)
     v_of_rho     :      0.21s CPU      0.23s WALL (      19 calls)
     newd         :      0.80s CPU      0.82s WALL (      19 calls)
     mix_rho      :      0.03s CPU      0.04s WALL (      18 calls)

     Called by c_bands:
     init_us_2    :      0.70s CPU      0.71s WALL (    4256 calls)
     init_us_2:cp :      0.68s CPU      0.70s WALL (    4256 calls)
     cegterg      :     99.18s CPU    101.36s WALL (    2016 calls)

     Called by *egterg:
     cdiaghg      :     13.61s CPU     13.73s WALL (   11896 calls)
     h_psi        :     55.02s CPU     56.69s WALL (   12008 calls)
     s_psi        :      7.17s CPU      7.24s WALL (   12008 calls)
     g_psi        :      0.21s CPU      0.21s WALL (    9880 calls)

     Called by h_psi:
     h_psi:calbec :      7.81s CPU      8.15s WALL (   12008 calls)
     vloc_psi     :     39.83s CPU     41.09s WALL (   12008 calls)
     add_vuspsi   :      7.17s CPU      7.26s WALL (   12008 calls)

     General routines
     calbec       :     10.34s CPU     10.76s WALL (   14472 calls)
     fft          :      0.41s CPU      0.43s WALL (     256 calls)
     ffts         :      0.05s CPU      0.05s WALL (      37 calls)
     fftw         :     39.43s CPU     40.65s WALL (  300524 calls)
     interpolate  :      0.06s CPU      0.06s WALL (      19 calls)

     Parallel routines

     PWSCF        :   1m55.71s CPU   1m58.44s WALL


   This run was terminated on:  14:36:40  24Jun2025            

=------------------------------------------------------------------------------=
   JOB DONE.
=------------------------------------------------------------------------------=
Note: The following floating-point exceptions are signalling: IEEE_INVALID_FLAG
