
     Program PWSCF v.7.2 starts on 24Jun2025 at 16:27:22 

     This program is part of the open-source Quantum ESPRESSO suite
     for quantum simulation of materials; please cite
         "P. Giannozzi et al., J. Phys.:Condens. Matter 21 395502 (2009);
         "P. Giannozzi et al., J. Phys.:Condens. Matter 29 465901 (2017);
         "P. Giannozzi et al., J. Chem. Phys. 152 154105 (2020);
          URL http://www.quantum-espresso.org", 
     in publications or presentations arising from this work. More details at
     http://www.quantum-espresso.org/quote

     Parallel version (MPI), running on     8 processors

     MPI processes distributed on     1 nodes
     91067 MiB available memory on the printing compute node when the environment starts

     Reading input from /home/jvc/QEspresso7.2/ZnO_DataBase/scf_025_NOSYM.in/scf-6.06-1.61-0.25-4.in

     Current dimensions of program PWSCF are:
     Max number of different atomic species (ntypx) = 10
     Max number of k-points (npk) =  40000
     Max angular momentum in pseudopotentials (lmaxx) =  4
     file Zn.upf: wavefunction(s)  3D renormalized

     R & G space division:  proc/nbgrp/npool/nimage =       8
     Subspace diagonalization in iterative solution of the eigenvalue problem:
     a serial algorithm will be used


     Parallelization info
     --------------------
     sticks:   dense  smooth     PW     G-vecs:    dense   smooth      PW
     Min         126      63     18                 5206     1840     312
     Max         127      65     19                 5211     1843     317
     Sum        1015     511    151                41671    14737    2527

     Using Slab Decomposition



     bravais-lattice index     =            0
     lattice parameter (alat)  =       6.0552  a.u.
     unit-cell volume          =     307.6421 (a.u.)^3
     number of atoms/cell      =            4
     number of atomic types    =            2
     number of electrons       =        36.00
     number of Kohn-Sham states=           18
     kinetic-energy cutoff     =      50.0000  Ry
     charge density cutoff     =     400.0000  Ry
     scf convergence threshold =      1.0E-08
     mixing beta               =       0.3000
     number of iterations used =            8  plain     mixing
     Exchange-correlation= PBE
                           (   1   4   3   4   0   0   0)

     celldm(1)=   6.055245  celldm(2)=   0.000000  celldm(3)=   0.000000
     celldm(4)=   0.000000  celldm(5)=   0.000000  celldm(6)=   0.000000

     crystal axes: (cart. coord. in units of alat)
               a(1) = (   1.000000   0.000000   0.000000 )  
               a(2) = (  -0.500000   0.866025   0.000000 )  
               a(3) = (   0.000000   0.000000   1.600000 )  

     reciprocal axes: (cart. coord. in units 2 pi/alat)
               b(1) = (  1.000000  0.577350 -0.000000 )  
               b(2) = (  0.000000  1.154701  0.000000 )  
               b(3) = (  0.000000 -0.000000  0.625000 )  


     PseudoPot. # 1 for Zn read from file:
     ./pseudos/Zn.upf
     MD5 check sum: 7f56cabf9682ed8c977c2f7d0c5985c5
     Pseudo is Ultrasoft + core correction, Zval = 12.0
     Generated using &quot;atomic&quot; code by A. Dal Corso  v.6.2.2
     Using radial grid of 1201 points,  6 beta functions with: 
                l(1) =   0
                l(2) =   0
                l(3) =   1
                l(4) =   1
                l(5) =   2
                l(6) =   2
     Q(r) pseudized with 0 coefficients 


     PseudoPot. # 2 for O  read from file:
     ./pseudos/O.upf
     MD5 check sum: 91400c9766925bcf19f520983a725ff0
     Pseudo is Ultrasoft + core correction, Zval =  6.0
     Generated using &quot;atomic&quot; code by A. Dal Corso  v.6.3MaX
     Using radial grid of 1095 points,  4 beta functions with: 
                l(1) =   0
                l(2) =   0
                l(3) =   1
                l(4) =   1
     Q(r) pseudized with 0 coefficients 


     atomic species   valence    mass     pseudopotential
        Zn            12.00    63.38000     Zn( 1.00)
        O              6.00    15.99900     O ( 1.00)

     No symmetry found



   Cartesian axes

     site n.     atom                  positions (alat units)
         1           Zn  tau(   1) = (   0.7547531   0.2532034   0.9638552  )
         2           Zn  tau(   2) = (   0.0819131   0.5587608  -0.1280620  )
         3           O   tau(   3) = (   0.1533710   0.4901379   1.4029553  )
         4           O   tau(   4) = (  -0.0073834   0.3810291   0.4396274  )

     number of k points=   112

     Number of k-points >= 100: set verbosity='high' to print them.

     Dense  grid:    41671 G-vectors     FFT dimensions: (  40,  40,  64)

     Smooth grid:    14737 G-vectors     FFT dimensions: (  27,  27,  45)

     Estimated max dynamical RAM per process >      28.83 MB

     Estimated total dynamical RAM >     230.62 MB

     Check: negative core charge=   -0.000002

     Initial potential from superposition of free atoms

     starting charge      35.9925, renormalised to      36.0000
     Starting wfcs are   26 randomized atomic wfcs

     total cpu time spent up to now is        3.9 secs

     Self-consistent Calculation

     iteration #  1     ecut=    50.00 Ry     beta= 0.30
     Davidson diagonalization with overlap
     ethr =  1.00E-02,  avg # of iterations =  5.5

     total cpu time spent up to now is       13.2 secs

     total energy              =    -298.22398967 Ry
     estimated scf accuracy    <       3.42270051 Ry

     iteration #  2     ecut=    50.00 Ry     beta= 0.30
     Davidson diagonalization with overlap
     ethr =  9.51E-03,  avg # of iterations =  2.0

     total cpu time spent up to now is       18.3 secs

     total energy              =    -297.95213559 Ry
     estimated scf accuracy    <       0.80956177 Ry

     iteration #  3     ecut=    50.00 Ry     beta= 0.30
     Davidson diagonalization with overlap
     ethr =  2.25E-03,  avg # of iterations =  8.4

     total cpu time spent up to now is       28.2 secs

     total energy              =    -298.70637372 Ry
     estimated scf accuracy    <       2.27835407 Ry

     iteration #  4     ecut=    50.00 Ry     beta= 0.30
     Davidson diagonalization with overlap
     ethr =  2.25E-03,  avg # of iterations =  1.0

     total cpu time spent up to now is       32.7 secs

     total energy              =    -298.10383784 Ry
     estimated scf accuracy    <       2.17187583 Ry

     iteration #  5     ecut=    50.00 Ry     beta= 0.30
     Davidson diagonalization with overlap
     ethr =  2.25E-03,  avg # of iterations =  7.0

     total cpu time spent up to now is       40.1 secs

     total energy              =    -298.43778586 Ry
     estimated scf accuracy    <       0.11181672 Ry

     iteration #  6     ecut=    50.00 Ry     beta= 0.30
     Davidson diagonalization with overlap
     ethr =  3.11E-04,  avg # of iterations =  9.7

     total cpu time spent up to now is       55.7 secs

     total energy              =    -298.31019021 Ry
     estimated scf accuracy    <       2.89748710 Ry

     iteration #  7     ecut=    50.00 Ry     beta= 0.30
     Davidson diagonalization with overlap
     ethr =  3.11E-04,  avg # of iterations =  6.7

     total cpu time spent up to now is       66.3 secs

     total energy              =    -298.42872225 Ry
     estimated scf accuracy    <       0.65377744 Ry

     iteration #  8     ecut=    50.00 Ry     beta= 0.30
     Davidson diagonalization with overlap
     ethr =  3.11E-04,  avg # of iterations =  2.0

     total cpu time spent up to now is       71.2 secs

     total energy              =    -298.24608446 Ry
     estimated scf accuracy    <       0.52630811 Ry

     iteration #  9     ecut=    50.00 Ry     beta= 0.30
     Davidson diagonalization with overlap
     ethr =  3.11E-04,  avg # of iterations =  7.9

     total cpu time spent up to now is       79.4 secs

     total energy              =    -298.35097863 Ry
     estimated scf accuracy    <       0.00432664 Ry

     iteration # 10     ecut=    50.00 Ry     beta= 0.30
     Davidson diagonalization with overlap
     ethr =  1.20E-05,  avg # of iterations =  7.1

     total cpu time spent up to now is       87.4 secs

     total energy              =    -298.35537113 Ry
     estimated scf accuracy    <       0.00891217 Ry

     iteration # 11     ecut=    50.00 Ry     beta= 0.30
     Davidson diagonalization with overlap
     ethr =  1.20E-05,  avg # of iterations =  3.2

     total cpu time spent up to now is       92.7 secs

     total energy              =    -298.35740476 Ry
     estimated scf accuracy    <       0.01447896 Ry

     iteration # 12     ecut=    50.00 Ry     beta= 0.30
     Davidson diagonalization with overlap
     ethr =  1.20E-05,  avg # of iterations =  6.0

     total cpu time spent up to now is       99.2 secs

     total energy              =    -298.36727265 Ry
     estimated scf accuracy    <       0.03150018 Ry

     iteration # 13     ecut=    50.00 Ry     beta= 0.30
     Davidson diagonalization with overlap
     ethr =  1.20E-05,  avg # of iterations =  6.8

     total cpu time spent up to now is      107.4 secs

     total energy              =    -298.44180023 Ry
     estimated scf accuracy    <       0.09377449 Ry

     iteration # 14     ecut=    50.00 Ry     beta= 0.30
     Davidson diagonalization with overlap
     c_bands:  1 eigenvalues not converged
     c_bands:  2 eigenvalues not converged
     c_bands:  1 eigenvalues not converged
     c_bands:  1 eigenvalues not converged
     c_bands:  1 eigenvalues not converged
     c_bands:  1 eigenvalues not converged
     c_bands:  1 eigenvalues not converged
     ethr =  1.20E-05,  avg # of iterations = 16.6

     total cpu time spent up to now is      125.0 secs

     total energy              =    -298.52124920 Ry
     estimated scf accuracy    <       0.77852551 Ry

     iteration # 15     ecut=    50.00 Ry     beta= 0.30
     Davidson diagonalization with overlap
     c_bands:  1 eigenvalues not converged
     c_bands:  1 eigenvalues not converged
     c_bands:  1 eigenvalues not converged
     ethr =  1.20E-05,  avg # of iterations =  7.3

     total cpu time spent up to now is      132.7 secs

     total energy              =    -298.52481531 Ry
     estimated scf accuracy    <       1.03970883 Ry

     iteration # 16     ecut=    50.00 Ry     beta= 0.30
     Davidson diagonalization with overlap
     ethr =  1.20E-05,  avg # of iterations =  1.2

     total cpu time spent up to now is      137.1 secs

     total energy              =    -298.07419521 Ry
     estimated scf accuracy    <       1.04731135 Ry

     iteration # 17     ecut=    50.00 Ry     beta= 0.30
     Davidson diagonalization with overlap
     c_bands:  1 eigenvalues not converged
     c_bands:  1 eigenvalues not converged
     c_bands:  1 eigenvalues not converged
     c_bands:  2 eigenvalues not converged
     c_bands:  1 eigenvalues not converged
     c_bands:  2 eigenvalues not converged
     c_bands:  1 eigenvalues not converged
     c_bands:  2 eigenvalues not converged
     c_bands:  1 eigenvalues not converged
     c_bands:  1 eigenvalues not converged
     c_bands:  1 eigenvalues not converged
     c_bands:  1 eigenvalues not converged
     c_bands:  1 eigenvalues not converged
     c_bands:  1 eigenvalues not converged
     c_bands:  1 eigenvalues not converged
     c_bands:  2 eigenvalues not converged
     c_bands:  1 eigenvalues not converged
     c_bands:  2 eigenvalues not converged
     c_bands:  1 eigenvalues not converged
     c_bands:  1 eigenvalues not converged
     c_bands:  1 eigenvalues not converged
     c_bands:  1 eigenvalues not converged
     c_bands:  1 eigenvalues not converged
     c_bands:  1 eigenvalues not converged
     c_bands:  1 eigenvalues not converged
     c_bands:  1 eigenvalues not converged
     c_bands:  1 eigenvalues not converged
     c_bands:  2 eigenvalues not converged
     c_bands:  1 eigenvalues not converged
     c_bands:  1 eigenvalues not converged
     c_bands:  1 eigenvalues not converged
     c_bands:  1 eigenvalues not converged
     c_bands:  1 eigenvalues not converged
     c_bands:  1 eigenvalues not converged
     c_bands:  1 eigenvalues not converged
     c_bands:  1 eigenvalues not converged
     c_bands:  1 eigenvalues not converged
     ethr =  1.20E-05,  avg # of iterations = 18.7

     total cpu time spent up to now is      160.3 secs

     total energy              =    -298.38495147 Ry
     estimated scf accuracy    <       0.19838994 Ry

     iteration # 18     ecut=    50.00 Ry     beta= 0.30
     Davidson diagonalization with overlap
     ethr =  1.20E-05,  avg # of iterations =  2.7

     total cpu time spent up to now is      165.7 secs

     total energy              =    -298.31242852 Ry
     estimated scf accuracy    <       0.16857443 Ry

     iteration # 19     ecut=    50.00 Ry     beta= 0.30
     Davidson diagonalization with overlap
     c_bands:  1 eigenvalues not converged
     c_bands:  1 eigenvalues not converged
     c_bands:  1 eigenvalues not converged
     c_bands:  1 eigenvalues not converged
     c_bands:  1 eigenvalues not converged
     c_bands:  1 eigenvalues not converged
     ethr =  1.20E-05,  avg # of iterations = 15.5

     total cpu time spent up to now is      183.2 secs

     total energy              =    -298.35160898 Ry
     estimated scf accuracy    <       0.01330599 Ry

     iteration # 20     ecut=    50.00 Ry     beta= 0.30
     Davidson diagonalization with overlap
     ethr =  1.20E-05,  avg # of iterations =  6.3

     total cpu time spent up to now is      190.8 secs

     total energy              =    -298.35236631 Ry
     estimated scf accuracy    <       0.00732615 Ry

     iteration # 21     ecut=    50.00 Ry     beta= 0.30
     Davidson diagonalization with overlap
     ethr =  1.20E-05,  avg # of iterations =  2.3

     total cpu time spent up to now is      196.1 secs

     total energy              =    -298.35174153 Ry
     estimated scf accuracy    <       0.00463086 Ry

     iteration # 22     ecut=    50.00 Ry     beta= 0.30
     Davidson diagonalization with overlap
     ethr =  1.20E-05,  avg # of iterations =  2.7

     total cpu time spent up to now is      201.5 secs

     total energy              =    -298.35174068 Ry
     estimated scf accuracy    <       0.00314473 Ry

     iteration # 23     ecut=    50.00 Ry     beta= 0.30
     Davidson diagonalization with overlap
     ethr =  8.74E-06,  avg # of iterations =  2.0

     total cpu time spent up to now is      206.4 secs

     total energy              =    -298.35163382 Ry
     estimated scf accuracy    <       0.00227231 Ry

     iteration # 24     ecut=    50.00 Ry     beta= 0.30
     Davidson diagonalization with overlap
     ethr =  6.31E-06,  avg # of iterations =  1.4

     total cpu time spent up to now is      211.0 secs

     total energy              =    -298.35145281 Ry
     estimated scf accuracy    <       0.00163763 Ry

     iteration # 25     ecut=    50.00 Ry     beta= 0.30
     Davidson diagonalization with overlap
     ethr =  4.55E-06,  avg # of iterations =  2.0

     total cpu time spent up to now is      216.1 secs

     total energy              =    -298.35117181 Ry
     estimated scf accuracy    <       0.00088931 Ry

     iteration # 26     ecut=    50.00 Ry     beta= 0.30
     Davidson diagonalization with overlap
     ethr =  2.47E-06,  avg # of iterations =  6.9

     total cpu time spent up to now is      223.6 secs

     total energy              =    -298.35150625 Ry
     estimated scf accuracy    <       0.00028029 Ry

     iteration # 27     ecut=    50.00 Ry     beta= 0.30
     Davidson diagonalization with overlap
     ethr =  7.79E-07,  avg # of iterations =  2.0

     total cpu time spent up to now is      228.6 secs

     total energy              =    -298.35145793 Ry
     estimated scf accuracy    <       0.00012865 Ry

     iteration # 28     ecut=    50.00 Ry     beta= 0.30
     Davidson diagonalization with overlap
     ethr =  3.57E-07,  avg # of iterations =  6.9

     total cpu time spent up to now is      236.6 secs

     total energy              =    -298.35151499 Ry
     estimated scf accuracy    <       0.00016425 Ry

     iteration # 29     ecut=    50.00 Ry     beta= 0.30
     Davidson diagonalization with overlap
     ethr =  3.57E-07,  avg # of iterations =  3.7

     total cpu time spent up to now is      242.1 secs

     total energy              =    -298.35152181 Ry
     estimated scf accuracy    <       0.00003534 Ry

     iteration # 30     ecut=    50.00 Ry     beta= 0.30
     Davidson diagonalization with overlap
     ethr =  9.82E-08,  avg # of iterations =  6.8

     total cpu time spent up to now is      249.4 secs

     total energy              =    -298.35153666 Ry
     estimated scf accuracy    <       0.00000218 Ry

     iteration # 31     ecut=    50.00 Ry     beta= 0.30
     Davidson diagonalization with overlap
     ethr =  6.06E-09,  avg # of iterations =  6.4

     total cpu time spent up to now is      256.5 secs

     total energy              =    -298.35153459 Ry
     estimated scf accuracy    <       0.00000837 Ry

     iteration # 32     ecut=    50.00 Ry     beta= 0.30
     Davidson diagonalization with overlap
     ethr =  6.06E-09,  avg # of iterations =  7.5

     total cpu time spent up to now is      264.8 secs

     total energy              =    -298.35153598 Ry
     estimated scf accuracy    <       0.00000041 Ry

     iteration # 33     ecut=    50.00 Ry     beta= 0.30
     Davidson diagonalization with overlap
     ethr =  1.15E-09,  avg # of iterations =  4.1

     total cpu time spent up to now is      271.1 secs

     total energy              =    -298.35153603 Ry
     estimated scf accuracy    <       0.00000005 Ry

     iteration # 34     ecut=    50.00 Ry     beta= 0.30
     Davidson diagonalization with overlap
     ethr =  1.29E-10,  avg # of iterations =  8.2

     total cpu time spent up to now is      281.3 secs

     total energy              =    -298.35153606 Ry
     estimated scf accuracy    <       0.00000007 Ry

     iteration # 35     ecut=    50.00 Ry     beta= 0.30
     Davidson diagonalization with overlap
     ethr =  1.29E-10,  avg # of iterations =  4.2

     total cpu time spent up to now is      286.9 secs

     End of self-consistent calculation

     Number of k-points >= 100: set verbosity='high' to print the bands.

     highest occupied level (ev):    10.3103

!    total energy              =    -298.35153606 Ry
     estimated scf accuracy    <          9.7E-09 Ry

     The total energy is the sum of the following terms:
     one-electron contribution =    -282.09522485 Ry
     hartree contribution      =     172.06258913 Ry
     xc contribution           =    -115.36264800 Ry
     ewald contribution        =     -72.95625234 Ry

     convergence has been achieved in  35 iterations

     Forces acting on atoms (cartesian axes, Ry/au):

     atom    1 type  1   force =    -0.07454381   -0.05157655   -0.27950419
     atom    2 type  1   force =  -115.97743476  111.49484036  112.12750572
     atom    3 type  2   force =   116.10230915 -111.39056399 -112.06085444
     atom    4 type  2   force =    -0.05033058   -0.05269982    0.21285290
     The non-local contrib.  to forces
     atom    1 type  1   force =    -0.29388709   -0.14933065    0.97911093
     atom    2 type  1   force =    23.33568280  -22.60824466  -23.26871640
     atom    3 type  2   force =    -2.34070272    2.15222611    1.92180104
     atom    4 type  2   force =    -0.33184390   -0.05834051    0.67625313
     The ionic contribution  to forces
     atom    1 type  1   force =    -5.04899912   -2.87822033  -17.73262095
     atom    2 type  1   force =  -155.50506375  154.23310625  162.85364249
     atom    3 type  2   force =   159.70676556 -150.66819962 -147.54726314
     atom    4 type  2   force =     0.84729731   -0.68668630    2.42624160
     The local contribution  to forces
     atom    1 type  1   force =     5.23785675    2.95902317   16.48504939
     atom    2 type  1   force =    14.88956861  -18.88355798  -26.19469107
     atom    3 type  2   force =   -40.96176627   36.83509692   33.27454727
     atom    4 type  2   force =    -0.56908414    0.69121000   -2.88099204
     The core correction contribution to forces
     atom    1 type  1   force =     0.03053879    0.01681871   -0.01105381
     atom    2 type  1   force =     1.30233582   -1.24640111   -1.26295035
     atom    3 type  2   force =    -0.30185656    0.29019809    0.28982533
     atom    4 type  2   force =     0.00339026    0.00100283   -0.00851017
     The Hubbard contrib.    to forces
     atom    1 type  1   force =     0.00000000    0.00000000    0.00000000
     atom    2 type  1   force =     0.00000000    0.00000000    0.00000000
     atom    3 type  2   force =     0.00000000    0.00000000    0.00000000
     atom    4 type  2   force =     0.00000000    0.00000000    0.00000000
     The SCF correction term to forces
     atom    1 type  1   force =     0.00005820    0.00003553   -0.00003118
     atom    2 type  1   force =     0.00015310   -0.00015916    0.00017962
     atom    3 type  2   force =    -0.00001951    0.00001749    0.00019363
     atom    4 type  2   force =     0.00002122    0.00001713   -0.00018104

     Total force =   277.308165     Total SCF correction =     0.000398

     Writing all to output data dir ./ZnO_ANN.save/

     init_run     :      3.39s CPU      3.46s WALL (       1 calls)
     electrons    :    277.62s CPU    283.04s WALL (       1 calls)
     forces       :      1.06s CPU      1.07s WALL (       1 calls)

     Called by init_run:
     wfcinit      :      2.48s CPU      2.53s WALL (       1 calls)
     potinit      :      0.25s CPU      0.26s WALL (       1 calls)
     hinit0       :      0.57s CPU      0.58s WALL (       1 calls)

     Called by electrons:
     c_bands      :    250.76s CPU    255.53s WALL (      35 calls)
     sum_band     :     24.41s CPU     25.00s WALL (      35 calls)
     v_of_rho     :      0.49s CPU      0.53s WALL (      36 calls)
     newd         :      1.88s CPU      1.89s WALL (      36 calls)
     mix_rho      :      0.09s CPU      0.10s WALL (      35 calls)

     Called by c_bands:
     init_us_2    :      1.71s CPU      1.74s WALL (    8064 calls)
     init_us_2:cp :      1.68s CPU      1.71s WALL (    8064 calls)
     cegterg      :    245.39s CPU    250.05s WALL (    3920 calls)

     Called by *egterg:
     cdiaghg      :     31.07s CPU     31.35s WALL (   27301 calls)
     h_psi        :    141.65s CPU    145.09s WALL (   27413 calls)
     s_psi        :     17.62s CPU     17.79s WALL (   27413 calls)
     g_psi        :      0.48s CPU      0.49s WALL (   23381 calls)

     Called by h_psi:
     h_psi:calbec :     18.34s CPU     18.99s WALL (   27413 calls)
     vloc_psi     :    105.16s CPU    107.77s WALL (   27413 calls)
     add_vuspsi   :     17.63s CPU     17.82s WALL (   27413 calls)

     General routines
     calbec       :     24.01s CPU     24.83s WALL (   31781 calls)
     fft          :      0.70s CPU      0.74s WALL (     477 calls)
     ffts         :      0.08s CPU      0.09s WALL (      71 calls)
     fftw         :    107.17s CPU    109.87s WALL (  557826 calls)
     interpolate  :      0.10s CPU      0.10s WALL (      36 calls)

     Parallel routines

     PWSCF        :   4m42.80s CPU   4m48.48s WALL


   This run was terminated on:  16:32:10  24Jun2025            

=------------------------------------------------------------------------------=
   JOB DONE.
=------------------------------------------------------------------------------=
Note: The following floating-point exceptions are signalling: IEEE_INVALID_FLAG
