
     Program PWSCF v.7.2 starts on 24Jun2025 at 15:45:49 

     This program is part of the open-source Quantum ESPRESSO suite
     for quantum simulation of materials; please cite
         "P. Giannozzi et al., J. Phys.:Condens. Matter 21 395502 (2009);
         "P. Giannozzi et al., J. Phys.:Condens. Matter 29 465901 (2017);
         "P. Giannozzi et al., J. Chem. Phys. 152 154105 (2020);
          URL http://www.quantum-espresso.org", 
     in publications or presentations arising from this work. More details at
     http://www.quantum-espresso.org/quote

     Parallel version (MPI), running on     8 processors

     MPI processes distributed on     1 nodes
     91144 MiB available memory on the printing compute node when the environment starts

     Reading input from /home/jvc/QEspresso7.2/ZnO_DataBase/scf_025_NOSYM.in/scf-5.93-1.52-0.25-2.in

     Current dimensions of program PWSCF are:
     Max number of different atomic species (ntypx) = 10
     Max number of k-points (npk) =  40000
     Max angular momentum in pseudopotentials (lmaxx) =  4
     file Zn.upf: wavefunction(s)  3D renormalized

     R & G space division:  proc/nbgrp/npool/nimage =       8
     Subspace diagonalization in iterative solution of the eigenvalue problem:
     a serial algorithm will be used


     Parallelization info
     --------------------
     sticks:   dense  smooth     PW     G-vecs:    dense   smooth      PW
     Min         119      62     18                 4887     1734     288
     Max         120      63     19                 4898     1737     293
     Sum         955     499    151                39127    13885    2333

     Using Slab Decomposition



     bravais-lattice index     =            0
     lattice parameter (alat)  =       5.9317  a.u.
     unit-cell volume          =     289.1886 (a.u.)^3
     number of atoms/cell      =            4
     number of atomic types    =            2
     number of electrons       =        36.00
     number of Kohn-Sham states=           18
     kinetic-energy cutoff     =      50.0000  Ry
     charge density cutoff     =     400.0000  Ry
     scf convergence threshold =      1.0E-08
     mixing beta               =       0.3000
     number of iterations used =            8  plain     mixing
     Exchange-correlation= PBE
                           (   1   4   3   4   0   0   0)

     celldm(1)=   5.931669  celldm(2)=   0.000000  celldm(3)=   0.000000
     celldm(4)=   0.000000  celldm(5)=   0.000000  celldm(6)=   0.000000

     crystal axes: (cart. coord. in units of alat)
               a(1) = (   1.000000   0.000000   0.000000 )  
               a(2) = (  -0.500000   0.866025   0.000000 )  
               a(3) = (   0.000000   0.000000   1.600000 )  

     reciprocal axes: (cart. coord. in units 2 pi/alat)
               b(1) = (  1.000000  0.577350 -0.000000 )  
               b(2) = (  0.000000  1.154701  0.000000 )  
               b(3) = (  0.000000 -0.000000  0.625000 )  


     PseudoPot. # 1 for Zn read from file:
     ./pseudos/Zn.upf
     MD5 check sum: 7f56cabf9682ed8c977c2f7d0c5985c5
     Pseudo is Ultrasoft + core correction, Zval = 12.0
     Generated using &quot;atomic&quot; code by A. Dal Corso  v.6.2.2
     Using radial grid of 1201 points,  6 beta functions with: 
                l(1) =   0
                l(2) =   0
                l(3) =   1
                l(4) =   1
                l(5) =   2
                l(6) =   2
     Q(r) pseudized with 0 coefficients 


     PseudoPot. # 2 for O  read from file:
     ./pseudos/O.upf
     MD5 check sum: 91400c9766925bcf19f520983a725ff0
     Pseudo is Ultrasoft + core correction, Zval =  6.0
     Generated using &quot;atomic&quot; code by A. Dal Corso  v.6.3MaX
     Using radial grid of 1095 points,  4 beta functions with: 
                l(1) =   0
                l(2) =   0
                l(3) =   1
                l(4) =   1
     Q(r) pseudized with 0 coefficients 


     atomic species   valence    mass     pseudopotential
        Zn            12.00    63.38000     Zn( 1.00)
        O              6.00    15.99900     O ( 1.00)

     No symmetry found



   Cartesian axes

     site n.     atom                  positions (alat units)
         1           Zn  tau(   1) = (   0.1897266   0.4641319   0.5127024  )
         2           Zn  tau(   2) = (  -0.1462959   0.6319006  -0.1893699  )
         3           O   tau(   3) = (   0.3461848   0.2530525   1.7727506  )
         4           O   tau(   4) = (   0.0288776   0.6162322   0.2303897  )

     number of k points=   112

     Number of k-points >= 100: set verbosity='high' to print them.

     Dense  grid:    39127 G-vectors     FFT dimensions: (  40,  40,  64)

     Smooth grid:    13885 G-vectors     FFT dimensions: (  27,  27,  45)

     Estimated max dynamical RAM per process >      27.34 MB

     Estimated total dynamical RAM >     218.72 MB

     Check: negative core charge=   -0.000002

     Initial potential from superposition of free atoms

     starting charge      35.9925, renormalised to      36.0000
     Starting wfcs are   26 randomized atomic wfcs

     total cpu time spent up to now is        3.9 secs

     Self-consistent Calculation

     iteration #  1     ecut=    50.00 Ry     beta= 0.30
     Davidson diagonalization with overlap
     ethr =  1.00E-02,  avg # of iterations =  3.0

     total cpu time spent up to now is        9.5 secs

     total energy              =    -358.30222774 Ry
     estimated scf accuracy    <       1.76724582 Ry

     iteration #  2     ecut=    50.00 Ry     beta= 0.30
     Davidson diagonalization with overlap
     ethr =  4.91E-03,  avg # of iterations =  5.5

     total cpu time spent up to now is       15.9 secs

     total energy              =    -358.59245367 Ry
     estimated scf accuracy    <       0.15938870 Ry

     iteration #  3     ecut=    50.00 Ry     beta= 0.30
     Davidson diagonalization with overlap
     c_bands:  1 eigenvalues not converged
     c_bands:  1 eigenvalues not converged
     c_bands:  1 eigenvalues not converged
     ethr =  4.43E-04,  avg # of iterations =  8.8

     total cpu time spent up to now is       26.6 secs

     total energy              =    -358.71600717 Ry
     estimated scf accuracy    <       0.22269241 Ry

     iteration #  4     ecut=    50.00 Ry     beta= 0.30
     Davidson diagonalization with overlap
     ethr =  4.43E-04,  avg # of iterations =  2.7

     total cpu time spent up to now is       31.7 secs

     total energy              =    -358.68541056 Ry
     estimated scf accuracy    <       0.06226462 Ry

     iteration #  5     ecut=    50.00 Ry     beta= 0.30
     Davidson diagonalization with overlap
     c_bands:  1 eigenvalues not converged
     c_bands:  1 eigenvalues not converged
     c_bands:  1 eigenvalues not converged
     c_bands:  1 eigenvalues not converged
     c_bands:  1 eigenvalues not converged
     c_bands:  1 eigenvalues not converged
     c_bands:  1 eigenvalues not converged
     c_bands:  1 eigenvalues not converged
     c_bands:  1 eigenvalues not converged
     c_bands:  1 eigenvalues not converged
     c_bands:  1 eigenvalues not converged
     c_bands:  1 eigenvalues not converged
     c_bands:  1 eigenvalues not converged
     c_bands:  1 eigenvalues not converged
     c_bands:  1 eigenvalues not converged
     c_bands:  1 eigenvalues not converged
     c_bands:  1 eigenvalues not converged
     ethr =  1.73E-04,  avg # of iterations = 13.6

     total cpu time spent up to now is       47.3 secs

     total energy              =    -358.71967913 Ry
     estimated scf accuracy    <       0.47868811 Ry

     iteration #  6     ecut=    50.00 Ry     beta= 0.30
     Davidson diagonalization with overlap
     ethr =  1.73E-04,  avg # of iterations =  6.9

     total cpu time spent up to now is       54.9 secs

     total energy              =    -358.73749149 Ry
     estimated scf accuracy    <       0.10150478 Ry

     iteration #  7     ecut=    50.00 Ry     beta= 0.30
     Davidson diagonalization with overlap
     ethr =  1.73E-04,  avg # of iterations =  1.7

     total cpu time spent up to now is       59.7 secs

     total energy              =    -358.70903807 Ry
     estimated scf accuracy    <       0.07130797 Ry

     iteration #  8     ecut=    50.00 Ry     beta= 0.30
     Davidson diagonalization with overlap
     c_bands:  1 eigenvalues not converged
     c_bands:  1 eigenvalues not converged
     ethr =  1.73E-04,  avg # of iterations =  7.0

     total cpu time spent up to now is       67.4 secs

     total energy              =    -358.74231453 Ry
     estimated scf accuracy    <       0.01336005 Ry

     iteration #  9     ecut=    50.00 Ry     beta= 0.30
     Davidson diagonalization with overlap
     ethr =  3.71E-05,  avg # of iterations =  5.7

     total cpu time spent up to now is       74.3 secs

     total energy              =    -358.73964925 Ry
     estimated scf accuracy    <       0.03113141 Ry

     iteration # 10     ecut=    50.00 Ry     beta= 0.30
     Davidson diagonalization with overlap
     ethr =  3.71E-05,  avg # of iterations =  1.7

     total cpu time spent up to now is       78.9 secs

     total energy              =    -358.73292064 Ry
     estimated scf accuracy    <       0.01867082 Ry

     iteration # 11     ecut=    50.00 Ry     beta= 0.30
     Davidson diagonalization with overlap
     ethr =  3.71E-05,  avg # of iterations =  6.6

     total cpu time spent up to now is       86.4 secs

     total energy              =    -358.73814930 Ry
     estimated scf accuracy    <       0.00148820 Ry

     iteration # 12     ecut=    50.00 Ry     beta= 0.30
     Davidson diagonalization with overlap
     ethr =  4.13E-06,  avg # of iterations =  6.3

     total cpu time spent up to now is       94.1 secs

     total energy              =    -358.73825157 Ry
     estimated scf accuracy    <       0.00197851 Ry

     iteration # 13     ecut=    50.00 Ry     beta= 0.30
     Davidson diagonalization with overlap
     ethr =  4.13E-06,  avg # of iterations =  2.1

     total cpu time spent up to now is       98.9 secs

     total energy              =    -358.73799098 Ry
     estimated scf accuracy    <       0.00076420 Ry

     iteration # 14     ecut=    50.00 Ry     beta= 0.30
     Davidson diagonalization with overlap
     ethr =  2.12E-06,  avg # of iterations =  8.3

     total cpu time spent up to now is      108.3 secs

     total energy              =    -358.73840985 Ry
     estimated scf accuracy    <       0.00051672 Ry

     iteration # 15     ecut=    50.00 Ry     beta= 0.30
     Davidson diagonalization with overlap
     ethr =  1.44E-06,  avg # of iterations =  1.4

     total cpu time spent up to now is      112.8 secs

     total energy              =    -358.73836127 Ry
     estimated scf accuracy    <       0.00026476 Ry

     iteration # 16     ecut=    50.00 Ry     beta= 0.30
     Davidson diagonalization with overlap
     ethr =  7.35E-07,  avg # of iterations =  3.7

     total cpu time spent up to now is      118.4 secs

     total energy              =    -358.73837418 Ry
     estimated scf accuracy    <       0.00006766 Ry

     iteration # 17     ecut=    50.00 Ry     beta= 0.30
     Davidson diagonalization with overlap
     ethr =  1.88E-07,  avg # of iterations =  7.3

     total cpu time spent up to now is      127.3 secs

     total energy              =    -358.73841764 Ry
     estimated scf accuracy    <       0.00002910 Ry

     iteration # 18     ecut=    50.00 Ry     beta= 0.30
     Davidson diagonalization with overlap
     ethr =  8.08E-08,  avg # of iterations =  3.5

     total cpu time spent up to now is      132.9 secs

     total energy              =    -358.73841367 Ry
     estimated scf accuracy    <       0.00003686 Ry

     iteration # 19     ecut=    50.00 Ry     beta= 0.30
     Davidson diagonalization with overlap
     ethr =  8.08E-08,  avg # of iterations =  2.6

     total cpu time spent up to now is      138.0 secs

     total energy              =    -358.73841495 Ry
     estimated scf accuracy    <       0.00002334 Ry

     iteration # 20     ecut=    50.00 Ry     beta= 0.30
     Davidson diagonalization with overlap
     ethr =  6.48E-08,  avg # of iterations =  1.2

     total cpu time spent up to now is      142.4 secs

     total energy              =    -358.73841047 Ry
     estimated scf accuracy    <       0.00001971 Ry

     iteration # 21     ecut=    50.00 Ry     beta= 0.30
     Davidson diagonalization with overlap
     ethr =  5.48E-08,  avg # of iterations =  2.4

     total cpu time spent up to now is      147.3 secs

     total energy              =    -358.73841039 Ry
     estimated scf accuracy    <       0.00000750 Ry

     iteration # 22     ecut=    50.00 Ry     beta= 0.30
     Davidson diagonalization with overlap
     ethr =  2.08E-08,  avg # of iterations =  4.9

     total cpu time spent up to now is      153.5 secs

     total energy              =    -358.73841157 Ry
     estimated scf accuracy    <       0.00000088 Ry

     iteration # 23     ecut=    50.00 Ry     beta= 0.30
     Davidson diagonalization with overlap
     c_bands:  1 eigenvalues not converged
     c_bands:  2 eigenvalues not converged
     c_bands:  1 eigenvalues not converged
     ethr =  2.44E-09,  avg # of iterations = 11.5

     total cpu time spent up to now is      168.1 secs

     total energy              =    -358.73841192 Ry
     estimated scf accuracy    <       0.00000396 Ry

     iteration # 24     ecut=    50.00 Ry     beta= 0.30
     Davidson diagonalization with overlap
     ethr =  2.44E-09,  avg # of iterations =  8.6

     total cpu time spent up to now is      179.1 secs

     total energy              =    -358.73841275 Ry
     estimated scf accuracy    <       0.00000035 Ry

     iteration # 25     ecut=    50.00 Ry     beta= 0.30
     Davidson diagonalization with overlap
     ethr =  9.84E-10,  avg # of iterations =  8.7

     total cpu time spent up to now is      189.6 secs

     total energy              =    -358.73841261 Ry
     estimated scf accuracy    <       0.00000124 Ry

     iteration # 26     ecut=    50.00 Ry     beta= 0.30
     Davidson diagonalization with overlap
     ethr =  9.84E-10,  avg # of iterations =  6.1

     total cpu time spent up to now is      197.6 secs

     total energy              =    -358.73841276 Ry
     estimated scf accuracy    <       0.00000004 Ry

     iteration # 27     ecut=    50.00 Ry     beta= 0.30
     Davidson diagonalization with overlap
     ethr =  1.04E-10,  avg # of iterations =  7.8

     total cpu time spent up to now is      207.2 secs

     total energy              =    -358.73841280 Ry
     estimated scf accuracy    <       0.00000002 Ry

     iteration # 28     ecut=    50.00 Ry     beta= 0.30
     Davidson diagonalization with overlap
     ethr =  4.55E-11,  avg # of iterations =  2.9

     total cpu time spent up to now is      212.3 secs

     total energy              =    -358.73841280 Ry
     estimated scf accuracy    <       0.00000003 Ry

     iteration # 29     ecut=    50.00 Ry     beta= 0.30
     Davidson diagonalization with overlap
     ethr =  4.55E-11,  avg # of iterations =  1.7

     total cpu time spent up to now is      216.9 secs

     total energy              =    -358.73841279 Ry
     estimated scf accuracy    <       0.00000001 Ry

     iteration # 30     ecut=    50.00 Ry     beta= 0.30
     Davidson diagonalization with overlap
     ethr =  3.87E-11,  avg # of iterations =  1.9

     total cpu time spent up to now is      221.6 secs

     End of self-consistent calculation

     Number of k-points >= 100: set verbosity='high' to print the bands.

     highest occupied level (ev):    12.4009

!    total energy              =    -358.73841279 Ry
     estimated scf accuracy    <          7.8E-09 Ry

     The total energy is the sum of the following terms:
     one-electron contribution =    -234.96992007 Ry
     hartree contribution      =     158.29390162 Ry
     xc contribution           =    -110.88351677 Ry
     ewald contribution        =    -171.17887757 Ry

     convergence has been achieved in  30 iterations

     Forces acting on atoms (cartesian axes, Ry/au):

     atom    1 type  1   force =     1.36079875   -1.11567063    4.30474978
     atom    2 type  1   force =    -0.36819599    0.00391586   -1.02885977
     atom    3 type  2   force =     0.59724658   -0.66049713   -0.98383298
     atom    4 type  2   force =    -1.58984934    1.77225190   -2.29205703
     The non-local contrib.  to forces
     atom    1 type  1   force =    -0.03614071    0.00841020   -0.15250132
     atom    2 type  1   force =    -0.36063421    0.07814421   -0.40349420
     atom    3 type  2   force =    -0.60305912    0.59589055    0.69487730
     atom    4 type  2   force =     0.49981779   -0.79760606    0.17506620
     The ionic contribution  to forces
     atom    1 type  1   force =     6.93037111   -3.91545952   53.95148415
     atom    2 type  1   force =    -6.20846530   -0.83555523  -38.02403927
     atom    3 type  2   force =     7.31264210   -6.20922782  -10.17941831
     atom    4 type  2   force =    -8.03454792   10.96024257   -5.74802657
     The local contribution  to forces
     atom    1 type  1   force =    -5.44088847    2.72470369  -49.13148709
     atom    2 type  1   force =     6.14609820    0.75830011   37.27023608
     atom    3 type  2   force =    -6.11497713    4.95565845    8.50223995
     atom    4 type  2   force =     5.94445811   -8.39166520    3.27560282
     The core correction contribution to forces
     atom    1 type  1   force =    -0.09265020    0.06676966   -0.36260913
     atom    2 type  1   force =     0.05484803    0.00299709    0.12842782
     atom    3 type  2   force =     0.00262068   -0.00282037   -0.00142241
     atom    4 type  2   force =     0.00041198    0.00124829    0.00542516
     The Hubbard contrib.    to forces
     atom    1 type  1   force =     0.00000000    0.00000000    0.00000000
     atom    2 type  1   force =     0.00000000    0.00000000    0.00000000
     atom    3 type  2   force =     0.00000000    0.00000000    0.00000000
     atom    4 type  2   force =     0.00000000    0.00000000    0.00000000
     The SCF correction term to forces
     atom    1 type  1   force =     0.00012084   -0.00010749   -0.00014194
     atom    2 type  1   force =    -0.00002889    0.00001685    0.00000469
     atom    3 type  2   force =     0.00003387   -0.00001078   -0.00011461
     atom    4 type  2   force =     0.00002451    0.00001947   -0.00012975

     Total force =     5.958558     Total SCF correction =     0.000282

     Writing all to output data dir ./ZnO_ANN.save/

     init_run     :      3.31s CPU      3.40s WALL (       1 calls)
     electrons    :    213.52s CPU    217.79s WALL (       1 calls)
     forces       :      1.00s CPU      1.02s WALL (       1 calls)

     Called by init_run:
     wfcinit      :      2.45s CPU      2.49s WALL (       1 calls)
     potinit      :      0.25s CPU      0.26s WALL (       1 calls)
     hinit0       :      0.54s CPU      0.56s WALL (       1 calls)

     Called by electrons:
     c_bands      :    190.94s CPU    194.65s WALL (      30 calls)
     sum_band     :     20.55s CPU     21.05s WALL (      30 calls)
     v_of_rho     :      0.41s CPU      0.45s WALL (      31 calls)
     newd         :      1.55s CPU      1.58s WALL (      31 calls)
     mix_rho      :      0.07s CPU      0.08s WALL (      30 calls)

     Called by c_bands:
     init_us_2    :      1.36s CPU      1.38s WALL (    6944 calls)
     init_us_2:cp :      1.33s CPU      1.36s WALL (    6944 calls)
     cegterg      :    186.72s CPU    190.33s WALL (    3360 calls)

     Called by *egterg:
     cdiaghg      :     23.22s CPU     23.44s WALL (   20851 calls)
     h_psi        :    110.84s CPU    113.53s WALL (   20963 calls)
     s_psi        :     12.42s CPU     12.53s WALL (   20963 calls)
     g_psi        :      0.34s CPU      0.35s WALL (   17491 calls)

     Called by h_psi:
     h_psi:calbec :     13.71s CPU     14.20s WALL (   20963 calls)
     vloc_psi     :     84.33s CPU     86.40s WALL (   20963 calls)
     add_vuspsi   :     12.43s CPU     12.56s WALL (   20963 calls)

     General routines
     calbec       :     18.31s CPU     18.96s WALL (   24771 calls)
     fft          :      0.53s CPU      0.58s WALL (     412 calls)
     ffts         :      0.09s CPU      0.09s WALL (      61 calls)
     fftw         :     87.73s CPU     89.89s WALL (  447888 calls)
     interpolate  :      0.10s CPU      0.10s WALL (      31 calls)

     Parallel routines

     PWSCF        :   3m38.58s CPU   3m43.11s WALL


   This run was terminated on:  15:49:32  24Jun2025            

=------------------------------------------------------------------------------=
   JOB DONE.
=------------------------------------------------------------------------------=
Note: The following floating-point exceptions are signalling: IEEE_INVALID_FLAG
