
     Program PWSCF v.7.2 starts on 24Jun2025 at 17:44:32 

     This program is part of the open-source Quantum ESPRESSO suite
     for quantum simulation of materials; please cite
         "P. Giannozzi et al., J. Phys.:Condens. Matter 21 395502 (2009);
         "P. Giannozzi et al., J. Phys.:Condens. Matter 29 465901 (2017);
         "P. Giannozzi et al., J. Chem. Phys. 152 154105 (2020);
          URL http://www.quantum-espresso.org", 
     in publications or presentations arising from this work. More details at
     http://www.quantum-espresso.org/quote

     Parallel version (MPI), running on     8 processors

     MPI processes distributed on     1 nodes
     90927 MiB available memory on the printing compute node when the environment starts

     Reading input from /home/jvc/QEspresso7.2/ZnO_DataBase/scf_025_NOSYM.in/scf-6.30-1.61-0.25-2.in

     Current dimensions of program PWSCF are:
     Max number of different atomic species (ntypx) = 10
     Max number of k-points (npk) =  40000
     Max angular momentum in pseudopotentials (lmaxx) =  4
     file Zn.upf: wavefunction(s)  3D renormalized

     R & G space division:  proc/nbgrp/npool/nimage =       8
     Subspace diagonalization in iterative solution of the eigenvalue problem:
     a serial algorithm will be used


     Parallelization info
     --------------------
     sticks:   dense  smooth     PW     G-vecs:    dense   smooth      PW
     Min         137      68     20                 5853     2068     346
     Max         138      69     21                 5856     2075     353
     Sum        1099     547    163                46835    16563    2791

     Using Slab Decomposition



     bravais-lattice index     =            0
     lattice parameter (alat)  =       6.3024  a.u.
     unit-cell volume          =     346.8711 (a.u.)^3
     number of atoms/cell      =            4
     number of atomic types    =            2
     number of electrons       =        36.00
     number of Kohn-Sham states=           18
     kinetic-energy cutoff     =      50.0000  Ry
     charge density cutoff     =     400.0000  Ry
     scf convergence threshold =      1.0E-08
     mixing beta               =       0.3000
     number of iterations used =            8  plain     mixing
     Exchange-correlation= PBE
                           (   1   4   3   4   0   0   0)

     celldm(1)=   6.302398  celldm(2)=   0.000000  celldm(3)=   0.000000
     celldm(4)=   0.000000  celldm(5)=   0.000000  celldm(6)=   0.000000

     crystal axes: (cart. coord. in units of alat)
               a(1) = (   1.000000   0.000000   0.000000 )  
               a(2) = (  -0.500000   0.866025   0.000000 )  
               a(3) = (   0.000000   0.000000   1.600000 )  

     reciprocal axes: (cart. coord. in units 2 pi/alat)
               b(1) = (  1.000000  0.577350 -0.000000 )  
               b(2) = (  0.000000  1.154701  0.000000 )  
               b(3) = (  0.000000 -0.000000  0.625000 )  


     PseudoPot. # 1 for Zn read from file:
     ./pseudos/Zn.upf
     MD5 check sum: 7f56cabf9682ed8c977c2f7d0c5985c5
     Pseudo is Ultrasoft + core correction, Zval = 12.0
     Generated using &quot;atomic&quot; code by A. Dal Corso  v.6.2.2
     Using radial grid of 1201 points,  6 beta functions with: 
                l(1) =   0
                l(2) =   0
                l(3) =   1
                l(4) =   1
                l(5) =   2
                l(6) =   2
     Q(r) pseudized with 0 coefficients 


     PseudoPot. # 2 for O  read from file:
     ./pseudos/O.upf
     MD5 check sum: 91400c9766925bcf19f520983a725ff0
     Pseudo is Ultrasoft + core correction, Zval =  6.0
     Generated using &quot;atomic&quot; code by A. Dal Corso  v.6.3MaX
     Using radial grid of 1095 points,  4 beta functions with: 
                l(1) =   0
                l(2) =   0
                l(3) =   1
                l(4) =   1
     Q(r) pseudized with 0 coefficients 


     atomic species   valence    mass     pseudopotential
        Zn            12.00    63.38000     Zn( 1.00)
        O              6.00    15.99900     O ( 1.00)

     No symmetry found



   Cartesian axes

     site n.     atom                  positions (alat units)
         1           Zn  tau(   1) = (   0.6325163   0.2101010   0.5315686  )
         2           Zn  tau(   2) = (   0.1537536   0.5131032   0.0110002  )
         3           O   tau(   3) = (   0.5916688   0.4177760   1.2803401  )
         4           O   tau(   4) = (   0.3153501   0.4208641   0.5549487  )

     number of k points=   112

     Number of k-points >= 100: set verbosity='high' to print them.

     Dense  grid:    46835 G-vectors     FFT dimensions: (  45,  45,  72)

     Smooth grid:    16563 G-vectors     FFT dimensions: (  30,  30,  45)

     Estimated max dynamical RAM per process >      32.29 MB

     Estimated total dynamical RAM >     258.31 MB

     Check: negative core charge=   -0.000002

     Initial potential from superposition of free atoms

     starting charge      35.9925, renormalised to      36.0000
     Starting wfcs are   26 randomized atomic wfcs

     total cpu time spent up to now is        4.2 secs

     Self-consistent Calculation

     iteration #  1     ecut=    50.00 Ry     beta= 0.30
     Davidson diagonalization with overlap
     ethr =  1.00E-02,  avg # of iterations =  2.1

     total cpu time spent up to now is        9.8 secs

     total energy              =    -360.48188730 Ry
     estimated scf accuracy    <       1.19953348 Ry

     iteration #  2     ecut=    50.00 Ry     beta= 0.30
     Davidson diagonalization with overlap
     ethr =  3.33E-03,  avg # of iterations =  2.3

     total cpu time spent up to now is       15.9 secs

     total energy              =    -360.60080318 Ry
     estimated scf accuracy    <       0.18139919 Ry

     iteration #  3     ecut=    50.00 Ry     beta= 0.30
     Davidson diagonalization with overlap
     c_bands:  3 eigenvalues not converged
     ethr =  5.04E-04,  avg # of iterations =  8.4

     total cpu time spent up to now is       28.7 secs

     total energy              =    -360.69966518 Ry
     estimated scf accuracy    <       0.34121853 Ry

     iteration #  4     ecut=    50.00 Ry     beta= 0.30
     Davidson diagonalization with overlap
     ethr =  5.04E-04,  avg # of iterations =  4.7

     total cpu time spent up to now is       37.3 secs

     total energy              =    -360.77536263 Ry
     estimated scf accuracy    <       0.01181494 Ry

     iteration #  5     ecut=    50.00 Ry     beta= 0.30
     Davidson diagonalization with overlap
     c_bands:  1 eigenvalues not converged
     ethr =  3.28E-05,  avg # of iterations =  8.6

     total cpu time spent up to now is       50.5 secs

     total energy              =    -360.76284551 Ry
     estimated scf accuracy    <       0.08903550 Ry

     iteration #  6     ecut=    50.00 Ry     beta= 0.30
     Davidson diagonalization with overlap
     ethr =  3.28E-05,  avg # of iterations =  6.6

     total cpu time spent up to now is       61.4 secs

     total energy              =    -360.77434576 Ry
     estimated scf accuracy    <       0.00318840 Ry

     iteration #  7     ecut=    50.00 Ry     beta= 0.30
     Davidson diagonalization with overlap
     ethr =  8.86E-06,  avg # of iterations =  5.6

     total cpu time spent up to now is       68.2 secs

     total energy              =    -360.77473722 Ry
     estimated scf accuracy    <       0.00076793 Ry

     iteration #  8     ecut=    50.00 Ry     beta= 0.30
     Davidson diagonalization with overlap
     ethr =  2.13E-06,  avg # of iterations =  7.8

     total cpu time spent up to now is       80.2 secs

     total energy              =    -360.77503763 Ry
     estimated scf accuracy    <       0.00235627 Ry

     iteration #  9     ecut=    50.00 Ry     beta= 0.30
     Davidson diagonalization with overlap
     ethr =  2.13E-06,  avg # of iterations =  2.6

     total cpu time spent up to now is       85.9 secs

     total energy              =    -360.77446809 Ry
     estimated scf accuracy    <       0.00115500 Ry

     iteration # 10     ecut=    50.00 Ry     beta= 0.30
     Davidson diagonalization with overlap
     c_bands:  2 eigenvalues not converged
     ethr =  2.13E-06,  avg # of iterations =  8.4

     total cpu time spent up to now is       97.0 secs

     total energy              =    -360.77511575 Ry
     estimated scf accuracy    <       0.00150312 Ry

     iteration # 11     ecut=    50.00 Ry     beta= 0.30
     Davidson diagonalization with overlap
     ethr =  2.13E-06,  avg # of iterations =  1.3

     total cpu time spent up to now is      102.0 secs

     total energy              =    -360.77501295 Ry
     estimated scf accuracy    <       0.00095145 Ry

     iteration # 12     ecut=    50.00 Ry     beta= 0.30
     Davidson diagonalization with overlap
     ethr =  2.13E-06,  avg # of iterations =  2.7

     total cpu time spent up to now is      107.6 secs

     total energy              =    -360.77502359 Ry
     estimated scf accuracy    <       0.00035399 Ry

     iteration # 13     ecut=    50.00 Ry     beta= 0.30
     Davidson diagonalization with overlap
     c_bands:  1 eigenvalues not converged
     ethr =  9.83E-07,  avg # of iterations =  4.6

     total cpu time spent up to now is      113.8 secs

     total energy              =    -360.77506730 Ry
     estimated scf accuracy    <       0.00007007 Ry

     iteration # 14     ecut=    50.00 Ry     beta= 0.30
     Davidson diagonalization with overlap
     ethr =  1.95E-07,  avg # of iterations =  6.2

     total cpu time spent up to now is      121.4 secs

     total energy              =    -360.77509599 Ry
     estimated scf accuracy    <       0.00000360 Ry

     iteration # 15     ecut=    50.00 Ry     beta= 0.30
     Davidson diagonalization with overlap
     c_bands:  1 eigenvalues not converged
     ethr =  1.00E-08,  avg # of iterations =  6.2

     total cpu time spent up to now is      130.0 secs

     total energy              =    -360.77509812 Ry
     estimated scf accuracy    <       0.00000101 Ry

     iteration # 16     ecut=    50.00 Ry     beta= 0.30
     Davidson diagonalization with overlap
     c_bands:  1 eigenvalues not converged
     c_bands:  2 eigenvalues not converged
     ethr =  2.79E-09,  avg # of iterations =  7.2

     total cpu time spent up to now is      138.4 secs

     total energy              =    -360.77509882 Ry
     estimated scf accuracy    <       0.00000420 Ry

     iteration # 17     ecut=    50.00 Ry     beta= 0.30
     Davidson diagonalization with overlap
     c_bands:  1 eigenvalues not converged
     ethr =  2.79E-09,  avg # of iterations =  3.8

     total cpu time spent up to now is      144.7 secs

     total energy              =    -360.77509776 Ry
     estimated scf accuracy    <       0.00000558 Ry

     iteration # 18     ecut=    50.00 Ry     beta= 0.30
     Davidson diagonalization with overlap
     ethr =  2.79E-09,  avg # of iterations =  6.0

     total cpu time spent up to now is      154.5 secs

     total energy              =    -360.77509840 Ry
     estimated scf accuracy    <       0.00000312 Ry

     iteration # 19     ecut=    50.00 Ry     beta= 0.30
     Davidson diagonalization with overlap
     ethr =  2.79E-09,  avg # of iterations =  1.4

     total cpu time spent up to now is      159.4 secs

     total energy              =    -360.77509802 Ry
     estimated scf accuracy    <       0.00000320 Ry

     iteration # 20     ecut=    50.00 Ry     beta= 0.30
     Davidson diagonalization with overlap
     ethr =  2.79E-09,  avg # of iterations =  1.3

     total cpu time spent up to now is      164.3 secs

     total energy              =    -360.77509746 Ry
     estimated scf accuracy    <       0.00000237 Ry

     iteration # 21     ecut=    50.00 Ry     beta= 0.30
     Davidson diagonalization with overlap
     ethr =  2.79E-09,  avg # of iterations =  6.1

     total cpu time spent up to now is      172.5 secs

     total energy              =    -360.77509784 Ry
     estimated scf accuracy    <       0.00000009 Ry

     iteration # 22     ecut=    50.00 Ry     beta= 0.30
     Davidson diagonalization with overlap
     c_bands:  1 eigenvalues not converged
     ethr =  2.53E-10,  avg # of iterations =  6.2

     total cpu time spent up to now is      182.0 secs

     total energy              =    -360.77509788 Ry
     estimated scf accuracy    <       0.00000004 Ry

     iteration # 23     ecut=    50.00 Ry     beta= 0.30
     Davidson diagonalization with overlap
     ethr =  1.24E-10,  avg # of iterations =  5.9

     total cpu time spent up to now is      191.4 secs

     total energy              =    -360.77509789 Ry
     estimated scf accuracy    <       0.00000007 Ry

     iteration # 24     ecut=    50.00 Ry     beta= 0.30
     Davidson diagonalization with overlap
     ethr =  1.24E-10,  avg # of iterations =  2.0

     total cpu time spent up to now is      196.7 secs

     total energy              =    -360.77509788 Ry
     estimated scf accuracy    <       0.00000003 Ry

     iteration # 25     ecut=    50.00 Ry     beta= 0.30
     Davidson diagonalization with overlap
     ethr =  8.60E-11,  avg # of iterations =  5.9

     total cpu time spent up to now is      204.9 secs

     total energy              =    -360.77509789 Ry
     estimated scf accuracy    <       0.00000002 Ry

     iteration # 26     ecut=    50.00 Ry     beta= 0.30
     Davidson diagonalization with overlap
     ethr =  5.14E-11,  avg # of iterations =  1.4

     total cpu time spent up to now is      209.9 secs

     End of self-consistent calculation

     Number of k-points >= 100: set verbosity='high' to print the bands.

     highest occupied level (ev):     6.9212

!    total energy              =    -360.77509788 Ry
     estimated scf accuracy    <          9.5E-09 Ry

     The total energy is the sum of the following terms:
     one-electron contribution =    -193.80738119 Ry
     hartree contribution      =     135.54984744 Ry
     xc contribution           =    -109.66889007 Ry
     ewald contribution        =    -192.84867407 Ry

     convergence has been achieved in  26 iterations

     Forces acting on atoms (cartesian axes, Ry/au):

     atom    1 type  1   force =     1.61056897   -1.07372805   -0.01145971
     atom    2 type  1   force =    -0.07985500    0.00953399   -0.16660549
     atom    3 type  2   force =     0.08066372   -0.01352561    0.06457334
     atom    4 type  2   force =    -1.61137769    1.07771967    0.11349186
     The non-local contrib.  to forces
     atom    1 type  1   force =     0.99018964   -0.70386801   -0.10535751
     atom    2 type  1   force =    -0.36763772    0.18330066    0.51167283
     atom    3 type  2   force =    -0.11155165    0.08947116    0.89980435
     atom    4 type  2   force =     0.35951682   -0.20033546   -0.88441638
     The ionic contribution  to forces
     atom    1 type  1   force =    14.45864723   -9.59584840   11.43003062
     atom    2 type  1   force =    -4.04275871    1.72419252  -14.26353359
     atom    3 type  2   force =     2.48400094   -0.42250112   -7.97744004
     atom    4 type  2   force =   -12.89988946    8.29415700   10.81094302
     The local contribution  to forces
     atom    1 type  1   force =   -13.65326792    9.10486494  -11.34246668
     atom    2 type  1   force =     4.29898247   -1.88161387   13.59050190
     atom    3 type  2   force =    -2.29203303    0.32026806    7.15067120
     atom    4 type  2   force =    10.92481708   -7.01296202   -9.81993668
     The core correction contribution to forces
     atom    1 type  1   force =    -0.18487621    0.12103930    0.00612030
     atom    2 type  1   force =     0.03149216   -0.01630714   -0.00505048
     atom    3 type  2   force =     0.00024354   -0.00076038   -0.00835334
     atom    4 type  2   force =     0.00416579   -0.00313278    0.00679372
     The Hubbard contrib.    to forces
     atom    1 type  1   force =     0.00000000    0.00000000    0.00000000
     atom    2 type  1   force =     0.00000000    0.00000000    0.00000000
     atom    3 type  2   force =     0.00000000    0.00000000    0.00000000
     atom    4 type  2   force =     0.00000000    0.00000000    0.00000000
     The SCF correction term to forces
     atom    1 type  1   force =    -0.00013388    0.00009167    0.00022323
     atom    2 type  1   force =     0.00005669   -0.00003064   -0.00018649
     atom    3 type  2   force =    -0.00000620    0.00000421   -0.00009916
     atom    4 type  2   force =     0.00000196    0.00000049    0.00011784

     Total force =     2.750080     Total SCF correction =     0.000373

     Writing all to output data dir ./ZnO_ANN.save/

     init_run     :      3.67s CPU      3.75s WALL (       1 calls)
     electrons    :    202.01s CPU    205.70s WALL (       1 calls)
     forces       :      1.18s CPU      1.20s WALL (       1 calls)

     Called by init_run:
     wfcinit      :      2.68s CPU      2.73s WALL (       1 calls)
     potinit      :      0.32s CPU      0.32s WALL (       1 calls)
     hinit0       :      0.55s CPU      0.57s WALL (       1 calls)

     Called by electrons:
     c_bands      :    180.10s CPU    183.30s WALL (      26 calls)
     sum_band     :     19.78s CPU     20.21s WALL (      26 calls)
     v_of_rho     :      0.52s CPU      0.55s WALL (      27 calls)
     newd         :      1.59s CPU      1.62s WALL (      27 calls)
     mix_rho      :      0.07s CPU      0.09s WALL (      26 calls)

     Called by c_bands:
     init_us_2    :      1.47s CPU      1.49s WALL (    6048 calls)
     init_us_2:cp :      1.45s CPU      1.47s WALL (    6048 calls)
     cegterg      :    175.64s CPU    178.76s WALL (    2912 calls)

     Called by *egterg:
     cdiaghg      :     19.03s CPU     19.17s WALL (   16937 calls)
     h_psi        :    104.72s CPU    107.05s WALL (   17049 calls)
     s_psi        :     13.39s CPU     13.50s WALL (   17049 calls)
     g_psi        :      0.35s CPU      0.36s WALL (   14025 calls)

     Called by h_psi:
     h_psi:calbec :     13.91s CPU     14.36s WALL (   17049 calls)
     vloc_psi     :     77.06s CPU     78.82s WALL (   17049 calls)
     add_vuspsi   :     13.39s CPU     13.53s WALL (   17049 calls)

     General routines
     calbec       :     18.72s CPU     19.31s WALL (   20409 calls)
     fft          :      0.49s CPU      0.54s WALL (     360 calls)
     ffts         :      0.12s CPU      0.12s WALL (      53 calls)
     fftw         :     77.33s CPU     79.09s WALL (  387428 calls)
     interpolate  :      0.13s CPU      0.14s WALL (      27 calls)

     Parallel routines

     PWSCF        :   3m27.59s CPU   3m31.64s WALL


   This run was terminated on:  17:48: 3  24Jun2025            

=------------------------------------------------------------------------------=
   JOB DONE.
=------------------------------------------------------------------------------=
Note: The following floating-point exceptions are signalling: IEEE_INVALID_FLAG
