Authorization required, but no authorization protocol specified

Authorization required, but no authorization protocol specified

Authorization required, but no authorization protocol specified

Authorization required, but no authorization protocol specified

Authorization required, but no authorization protocol specified

Authorization required, but no authorization protocol specified

Authorization required, but no authorization protocol specified

Authorization required, but no authorization protocol specified

Authorization required, but no authorization protocol specified

Authorization required, but no authorization protocol specified

Authorization required, but no authorization protocol specified

Authorization required, but no authorization protocol specified

Authorization required, but no authorization protocol specified

Authorization required, but no authorization protocol specified

Authorization required, but no authorization protocol specified

Authorization required, but no authorization protocol specified

Authorization required, but no authorization protocol specified

Authorization required, but no authorization protocol specified


     Program PWSCF v.7.2 starts on 25Jul2025 at  1:57: 3 

     This program is part of the open-source Quantum ESPRESSO suite
     for quantum simulation of materials; please cite
         "P. Giannozzi et al., J. Phys.:Condens. Matter 21 395502 (2009);
         "P. Giannozzi et al., J. Phys.:Condens. Matter 29 465901 (2017);
         "P. Giannozzi et al., J. Chem. Phys. 152 154105 (2020);
          URL http://www.quantum-espresso.org", 
     in publications or presentations arising from this work. More details at
     http://www.quantum-espresso.org/quote

     Parallel version (MPI), running on    16 processors

     MPI processes distributed on     1 nodes
     79742 MiB available memory on the printing compute node when the environment starts

     Reading input from /home/jvc/QEspresso7.2/ZnO_database/scripts/cell133.in/ZnO-2.94-1.58-133.in
Warning: card &CELL ignored
Warning: card / ignored
Warning: card &FCP ignored
Warning: card / ignored
Warning: card &RISM ignored
Warning: card / ignored

     Current dimensions of program PWSCF are:
     Max number of different atomic species (ntypx) = 10
     Max number of k-points (npk) =  40000
     Max angular momentum in pseudopotentials (lmaxx) =  4
     file Zn.upf: wavefunction(s)  3D renormalized
     Found identity + (  0.0000  0.0000  0.3333) symmetry
     This is a supercell, fractional translations are disabled
     Message from routine setup:
     using ibrav=0 with symmetry is DISCOURAGED, use correct ibrav instead

     K-points division:     npool     =       4
     R & G space division:  proc/nbgrp/npool/nimage =       4
     Subspace diagonalization in iterative solution of the eigenvalue problem:
     one sub-group per band group will be used
     custom distributed-memory algorithm (size of sub-group:  2*  2 procs)


     Parallelization info
     --------------------
     sticks:   dense  smooth     PW     G-vecs:    dense   smooth      PW
     Min         787     393    115               100242    35425    5659
     Max         790     394    116               100245    35430    5668
     Sum        3153    1573    461               400971   141707   22649

     Using Slab Decomposition



     bravais-lattice index     =            0
     lattice parameter (alat)  =       6.1788  a.u.
     unit-cell volume          =    2968.1791 (a.u.)^3
     number of atoms/cell      =           36
     number of atomic types    =            2
     number of electrons       =       324.00
     number of Kohn-Sham states=          162
     kinetic-energy cutoff     =      50.0000  Ry
     charge density cutoff     =     400.0000  Ry
     scf convergence threshold =      1.0E-08
     mixing beta               =       0.3000
     number of iterations used =            8  plain     mixing
     Exchange-correlation= PBE
                           (   1   4   3   4   0   0   0)

     celldm(1)=   6.178822  celldm(2)=   0.000000  celldm(3)=   0.000000
     celldm(4)=   0.000000  celldm(5)=   0.000000  celldm(6)=   0.000000

     crystal axes: (cart. coord. in units of alat)
               a(1) = (   1.000000   0.000000   0.000000 )  
               a(2) = (  -1.500000   2.598076   0.000000 )  
               a(3) = (   0.000000   0.000000   4.843075 )  

     reciprocal axes: (cart. coord. in units 2 pi/alat)
               b(1) = (  1.000000  0.577350 -0.000000 )  
               b(2) = (  0.000000  0.384900  0.000000 )  
               b(3) = (  0.000000 -0.000000  0.206480 )  


     PseudoPot. # 1 for Zn read from file:
     /home/jvc/QEspresso7.2/ZnO_database/pseudos/Zn.upf
     MD5 check sum: 7f56cabf9682ed8c977c2f7d0c5985c5
     Pseudo is Ultrasoft + core correction, Zval = 12.0
     Generated using &quot;atomic&quot; code by A. Dal Corso  v.6.2.2
     Using radial grid of 1201 points,  6 beta functions with: 
                l(1) =   0
                l(2) =   0
                l(3) =   1
                l(4) =   1
                l(5) =   2
                l(6) =   2
     Q(r) pseudized with 0 coefficients 


     PseudoPot. # 2 for O  read from file:
     /home/jvc/QEspresso7.2/ZnO_database/pseudos/O.upf
     MD5 check sum: 91400c9766925bcf19f520983a725ff0
     Pseudo is Ultrasoft + core correction, Zval =  6.0
     Generated using &quot;atomic&quot; code by A. Dal Corso  v.6.3MaX
     Using radial grid of 1095 points,  4 beta functions with: 
                l(1) =   0
                l(2) =   0
                l(3) =   1
                l(4) =   1
     Q(r) pseudized with 0 coefficients 


     atomic species   valence    mass     pseudopotential
        Zn            12.00    65.38000     Zn( 1.00)
        O              6.00    15.99900     O ( 1.00)

      2 Sym. Ops. (no inversion) found


                                    s                        frac. trans.

      isym =  1     identity                                     

 cryst.   s( 1) = (     1          0          0      )
                  (     0          1          0      )
                  (     0          0          1      )

 cart.    s( 1) = (  1.0000000  0.0000000  0.0000000 )
                  (  0.0000000  1.0000000  0.0000000 )
                  (  0.0000000  0.0000000  1.0000000 )


      isym =  2     inv. 180 deg rotation - cart. axis [1,0,0]   

 cryst.   s( 2) = (    -1          0          0      )
                  (     3          1          0      )
                  (     0          0          1      )

 cart.    s( 2) = ( -1.0000000  0.0000000  0.0000000 )
                  (  0.0000000  1.0000000  0.0000000 )
                  (  0.0000000  0.0000000  1.0000000 )


   Cartesian axes

     site n.     atom                  positions (alat units)
         1           Zn  tau(   1) = (   0.5000000   0.2886751   0.8082020  )
         2           Zn  tau(   2) = (   0.0000000   0.5773503   0.0010228  )
         3           O   tau(   3) = (   0.5000000   0.2886751   1.4201130  )
         4           O   tau(   4) = (   0.0000000   0.5773503   0.6129338  )
         5           Zn  tau(   5) = (   0.5000000   0.2886751   2.4225604  )
         6           Zn  tau(   6) = (   0.0000000   0.5773503   1.6153812  )
         7           O   tau(   7) = (   0.5000000   0.2886751   3.0344713  )
         8           O   tau(   8) = (   0.0000000   0.5773503   2.2272921  )
         9           Zn  tau(   9) = (   0.5000000   0.2886751   4.0369187  )
        10           Zn  tau(  10) = (   0.0000000   0.5773503   3.2297395  )
        11           O   tau(  11) = (   0.5000000   0.2886751   4.6488297  )
        12           O   tau(  12) = (   0.0000000   0.5773503   3.8416505  )
        13           Zn  tau(  13) = (   0.0000000   1.1547005   0.8082020  )
        14           Zn  tau(  14) = (  -0.5000000   1.4433757   0.0010228  )
        15           O   tau(  15) = (   0.0000000   1.1547005   1.4201130  )
        16           O   tau(  16) = (  -0.5000000   1.4433757   0.6129338  )
        17           Zn  tau(  17) = (   0.0000000   1.1547005   2.4225604  )
        18           Zn  tau(  18) = (  -0.5000000   1.4433757   1.6153812  )
        19           O   tau(  19) = (   0.0000000   1.1547005   3.0344713  )
        20           O   tau(  20) = (  -0.5000000   1.4433757   2.2272921  )
        21           Zn  tau(  21) = (   0.0000000   1.1547005   4.0369187  )
        22           Zn  tau(  22) = (  -0.5000000   1.4433757   3.2297395  )
        23           O   tau(  23) = (   0.0000000   1.1547005   4.6488297  )
        24           O   tau(  24) = (  -0.5000000   1.4433757   3.8416505  )
        25           Zn  tau(  25) = (  -0.5000000   2.0207259   0.8082020  )
        26           Zn  tau(  26) = (  -1.0000000   2.3094011   0.0010228  )
        27           O   tau(  27) = (  -0.5000000   2.0207259   1.4201130  )
        28           O   tau(  28) = (  -1.0000000   2.3094011   0.6129338  )
        29           Zn  tau(  29) = (  -0.5000000   2.0207259   2.4225604  )
        30           Zn  tau(  30) = (  -1.0000000   2.3094011   1.6153812  )
        31           O   tau(  31) = (  -0.5000000   2.0207259   3.0344713  )
        32           O   tau(  32) = (  -1.0000000   2.3094011   2.2272921  )
        33           Zn  tau(  33) = (  -0.5000000   2.0207259   4.0369187  )
        34           Zn  tau(  34) = (  -1.0000000   2.3094011   3.2297395  )
        35           O   tau(  35) = (  -0.5000000   2.0207259   4.6488297  )
        36           O   tau(  36) = (  -1.0000000   2.3094011   3.8416505  )

   Crystallographic axes

     site n.     atom                  positions (cryst. coord.)
         1           Zn  tau(   1) = (  0.6666667  0.1111111  0.1668779  )
         2           Zn  tau(   2) = (  0.3333333  0.2222222  0.0002112  )
         3           O   tau(   3) = (  0.6666667  0.1111111  0.2932255  )
         4           O   tau(   4) = (  0.3333333  0.2222222  0.1265588  )
         5           Zn  tau(   5) = (  0.6666667  0.1111111  0.5002112  )
         6           Zn  tau(   6) = (  0.3333333  0.2222222  0.3335445  )
         7           O   tau(   7) = (  0.6666667  0.1111111  0.6265588  )
         8           O   tau(   8) = (  0.3333333  0.2222222  0.4598921  )
         9           Zn  tau(   9) = (  0.6666667  0.1111111  0.8335445  )
        10           Zn  tau(  10) = (  0.3333333  0.2222222  0.6668779  )
        11           O   tau(  11) = (  0.6666667  0.1111111  0.9598921  )
        12           O   tau(  12) = (  0.3333333  0.2222222  0.7932255  )
        13           Zn  tau(  13) = (  0.6666667  0.4444444  0.1668779  )
        14           Zn  tau(  14) = (  0.3333333  0.5555556  0.0002112  )
        15           O   tau(  15) = (  0.6666667  0.4444444  0.2932255  )
        16           O   tau(  16) = (  0.3333333  0.5555556  0.1265588  )
        17           Zn  tau(  17) = (  0.6666667  0.4444444  0.5002112  )
        18           Zn  tau(  18) = (  0.3333333  0.5555556  0.3335445  )
        19           O   tau(  19) = (  0.6666667  0.4444444  0.6265588  )
        20           O   tau(  20) = (  0.3333333  0.5555556  0.4598921  )
        21           Zn  tau(  21) = (  0.6666667  0.4444444  0.8335445  )
        22           Zn  tau(  22) = (  0.3333333  0.5555556  0.6668779  )
        23           O   tau(  23) = (  0.6666667  0.4444444  0.9598921  )
        24           O   tau(  24) = (  0.3333333  0.5555556  0.7932255  )
        25           Zn  tau(  25) = (  0.6666667  0.7777778  0.1668779  )
        26           Zn  tau(  26) = (  0.3333333  0.8888889  0.0002112  )
        27           O   tau(  27) = (  0.6666667  0.7777778  0.2932255  )
        28           O   tau(  28) = (  0.3333333  0.8888889  0.1265588  )
        29           Zn  tau(  29) = (  0.6666667  0.7777778  0.5002112  )
        30           Zn  tau(  30) = (  0.3333333  0.8888889  0.3335445  )
        31           O   tau(  31) = (  0.6666667  0.7777778  0.6265588  )
        32           O   tau(  32) = (  0.3333333  0.8888889  0.4598921  )
        33           Zn  tau(  33) = (  0.6666667  0.7777778  0.8335445  )
        34           Zn  tau(  34) = (  0.3333333  0.8888889  0.6668779  )
        35           O   tau(  35) = (  0.6666667  0.7777778  0.9598921  )
        36           O   tau(  36) = (  0.3333333  0.8888889  0.7932255  )

     number of k points=    12
                       cart. coord. in units 2pi/alat
        k(    1) = (   0.0000000   0.0000000   0.0000000), wk =   0.0833333
        k(    2) = (   0.0000000   0.0000000  -0.1032402), wk =   0.0833333
        k(    3) = (   0.0000000  -0.1924501   0.0000000), wk =   0.0833333
        k(    4) = (   0.0000000  -0.1924501  -0.1032402), wk =   0.0833333
        k(    5) = (   0.1666667   0.0962250   0.0000000), wk =   0.3333333
        k(    6) = (   0.1666667   0.0962250  -0.1032402), wk =   0.3333333
        k(    7) = (   0.3333333   0.1924501   0.0000000), wk =   0.1666667
        k(    8) = (   0.3333333   0.1924501  -0.1032402), wk =   0.1666667
        k(    9) = (   0.3333333  -0.0000000   0.0000000), wk =   0.1666667
        k(   10) = (   0.3333333  -0.0000000  -0.1032402), wk =   0.1666667
        k(   11) = (  -0.5000000  -0.2886751   0.0000000), wk =   0.1666667
        k(   12) = (  -0.5000000  -0.2886751  -0.1032402), wk =   0.1666667

                       cryst. coord.
        k(    1) = (   0.0000000   0.0000000   0.0000000), wk =   0.0833333
        k(    2) = (   0.0000000   0.0000000  -0.5000000), wk =   0.0833333
        k(    3) = (   0.0000000  -0.5000000   0.0000000), wk =   0.0833333
        k(    4) = (   0.0000000  -0.5000000  -0.5000000), wk =   0.0833333
        k(    5) = (   0.1666667   0.0000000   0.0000000), wk =   0.3333333
        k(    6) = (   0.1666667   0.0000000  -0.5000000), wk =   0.3333333
        k(    7) = (   0.3333333   0.0000000   0.0000000), wk =   0.1666667
        k(    8) = (   0.3333333   0.0000000  -0.5000000), wk =   0.1666667
        k(    9) = (   0.3333333  -0.5000000   0.0000000), wk =   0.1666667
        k(   10) = (   0.3333333  -0.5000000  -0.5000000), wk =   0.1666667
        k(   11) = (  -0.5000000  -0.0000000   0.0000000), wk =   0.1666667
        k(   12) = (  -0.5000000  -0.0000000  -0.5000000), wk =   0.1666667

     Dense  grid:   400971 G-vectors     FFT dimensions: (  40, 120, 192)

     Smooth grid:   141707 G-vectors     FFT dimensions: (  27,  90, 135)

     Dynamical RAM for                 wfc:      10.95 MB

     Dynamical RAM for     wfc (w. buffer):      43.80 MB

     Dynamical RAM for           str. fact:       3.06 MB

     Dynamical RAM for           local pot:       0.00 MB

     Dynamical RAM for          nlocal pot:      31.64 MB

     Dynamical RAM for                qrad:       3.21 MB

     Dynamical RAM for          rho,v,vnew:       9.86 MB

     Dynamical RAM for               rhoin:       3.29 MB

     Dynamical RAM for            rho*nmix:      24.47 MB

     Dynamical RAM for           G-vectors:       6.01 MB

     Dynamical RAM for          h,s,v(r/c):       1.20 MB

     Dynamical RAM for          <psi|beta>:       1.16 MB

     Dynamical RAM for                 psi:      21.90 MB

     Dynamical RAM for                hpsi:      21.90 MB

     Dynamical RAM for                spsi:      21.90 MB

     Dynamical RAM for      wfcinit/wfcrot:      32.89 MB

     Dynamical RAM for           addusdens:      79.16 MB

     Dynamical RAM for          addusforce:      91.85 MB

     Estimated static dynamical RAM per process >     114.24 MB

     Estimated max dynamical RAM per process >     230.56 MB

     Estimated total dynamical RAM >       3.32 GB

     Check: negative core charge=   -0.000002

     Initial potential from superposition of free atoms

     starting charge     323.9329, renormalised to     324.0000
     Starting wfcs are  234 randomized atomic wfcs

     total cpu time spent up to now is       15.6 secs

     Self-consistent Calculation

     iteration #  1     ecut=    50.00 Ry     beta= 0.30
     Davidson diagonalization with overlap

---- Real-time Memory Report at c_bands before calling an iterative solver
           177 MiB given to the printing process from OS
             0 MiB allocation reported by mallinfo(arena+hblkhd)
         77563 MiB available memory on the node where the printing process lives
------------------
     ethr =  1.00E-02,  avg # of iterations =  2.0

     total cpu time spent up to now is       29.5 secs

     total energy              =   -3253.31598444 Ry
     estimated scf accuracy    <       6.22214412 Ry

     iteration #  2     ecut=    50.00 Ry     beta= 0.30
     Davidson diagonalization with overlap

---- Real-time Memory Report at c_bands before calling an iterative solver
           256 MiB given to the printing process from OS
             0 MiB allocation reported by mallinfo(arena+hblkhd)
         76346 MiB available memory on the node where the printing process lives
------------------
     ethr =  1.92E-03,  avg # of iterations =  2.0

     total cpu time spent up to now is       46.9 secs

     total energy              =   -3254.21628972 Ry
     estimated scf accuracy    <       0.78943996 Ry

     iteration #  3     ecut=    50.00 Ry     beta= 0.30
     Davidson diagonalization with overlap

---- Real-time Memory Report at c_bands before calling an iterative solver
           257 MiB given to the printing process from OS
             0 MiB allocation reported by mallinfo(arena+hblkhd)
         76325 MiB available memory on the node where the printing process lives
------------------
     ethr =  2.44E-04,  avg # of iterations =  7.7

     total cpu time spent up to now is       77.9 secs

     total energy              =   -3254.50776748 Ry
     estimated scf accuracy    <       0.49733809 Ry

     iteration #  4     ecut=    50.00 Ry     beta= 0.30
     Davidson diagonalization with overlap

---- Real-time Memory Report at c_bands before calling an iterative solver
           257 MiB given to the printing process from OS
             0 MiB allocation reported by mallinfo(arena+hblkhd)
         76370 MiB available memory on the node where the printing process lives
------------------
     ethr =  1.53E-04,  avg # of iterations =  8.9

     total cpu time spent up to now is      115.3 secs

     total energy              =   -3254.81413440 Ry
     estimated scf accuracy    <       1.92061424 Ry

     iteration #  5     ecut=    50.00 Ry     beta= 0.30
     Davidson diagonalization with overlap

---- Real-time Memory Report at c_bands before calling an iterative solver
           259 MiB given to the printing process from OS
             0 MiB allocation reported by mallinfo(arena+hblkhd)
         76344 MiB available memory on the node where the printing process lives
------------------
     ethr =  1.53E-04,  avg # of iterations =  2.0

     total cpu time spent up to now is      129.4 secs

     total energy              =   -3253.98407525 Ry
     estimated scf accuracy    <       1.07192629 Ry

     iteration #  6     ecut=    50.00 Ry     beta= 0.30
     Davidson diagonalization with overlap

---- Real-time Memory Report at c_bands before calling an iterative solver
           260 MiB given to the printing process from OS
             0 MiB allocation reported by mallinfo(arena+hblkhd)
         76320 MiB available memory on the node where the printing process lives
------------------
     ethr =  1.53E-04,  avg # of iterations = 11.8

     total cpu time spent up to now is      174.5 secs

     total energy              =   -3253.72157617 Ry
     estimated scf accuracy    <      10.13242453 Ry

     iteration #  7     ecut=    50.00 Ry     beta= 0.30
     Davidson diagonalization with overlap

---- Real-time Memory Report at c_bands before calling an iterative solver
           261 MiB given to the printing process from OS
             0 MiB allocation reported by mallinfo(arena+hblkhd)
         76386 MiB available memory on the node where the printing process lives
------------------
     ethr =  1.53E-04,  avg # of iterations = 10.2

     total cpu time spent up to now is      213.8 secs

     total energy              =   -3254.73537139 Ry
     estimated scf accuracy    <       0.54286772 Ry

     iteration #  8     ecut=    50.00 Ry     beta= 0.30
     Davidson diagonalization with overlap

---- Real-time Memory Report at c_bands before calling an iterative solver
           263 MiB given to the printing process from OS
             0 MiB allocation reported by mallinfo(arena+hblkhd)
         76382 MiB available memory on the node where the printing process lives
------------------
     ethr =  1.53E-04,  avg # of iterations =  2.6

     total cpu time spent up to now is      228.2 secs

     total energy              =   -3254.72313798 Ry
     estimated scf accuracy    <       0.33638936 Ry

     iteration #  9     ecut=    50.00 Ry     beta= 0.30
     Davidson diagonalization with overlap

---- Real-time Memory Report at c_bands before calling an iterative solver
           265 MiB given to the printing process from OS
             0 MiB allocation reported by mallinfo(arena+hblkhd)
         76261 MiB available memory on the node where the printing process lives
------------------
     ethr =  1.04E-04,  avg # of iterations =  2.0

     total cpu time spent up to now is      242.4 secs

     total energy              =   -3254.67488099 Ry
     estimated scf accuracy    <       0.21346981 Ry

     iteration # 10     ecut=    50.00 Ry     beta= 0.30
     Davidson diagonalization with overlap

---- Real-time Memory Report at c_bands before calling an iterative solver
           265 MiB given to the printing process from OS
             0 MiB allocation reported by mallinfo(arena+hblkhd)
         76289 MiB available memory on the node where the printing process lives
------------------
     ethr =  6.59E-05,  avg # of iterations =  4.9

     total cpu time spent up to now is      261.2 secs

     total energy              =   -3254.70371073 Ry
     estimated scf accuracy    <       0.03371363 Ry

     iteration # 11     ecut=    50.00 Ry     beta= 0.30
     Davidson diagonalization with overlap

---- Real-time Memory Report at c_bands before calling an iterative solver
           266 MiB given to the printing process from OS
             0 MiB allocation reported by mallinfo(arena+hblkhd)
         76350 MiB available memory on the node where the printing process lives
------------------
     ethr =  1.04E-05,  avg # of iterations =  7.7

     total cpu time spent up to now is      291.8 secs

     total energy              =   -3254.73252075 Ry
     estimated scf accuracy    <       0.00357881 Ry

     iteration # 12     ecut=    50.00 Ry     beta= 0.30
     Davidson diagonalization with overlap

---- Real-time Memory Report at c_bands before calling an iterative solver
           266 MiB given to the printing process from OS
             0 MiB allocation reported by mallinfo(arena+hblkhd)
         76390 MiB available memory on the node where the printing process lives
------------------
     ethr =  1.10E-06,  avg # of iterations =  5.8

     total cpu time spent up to now is      310.2 secs

     total energy              =   -3254.73329029 Ry
     estimated scf accuracy    <       0.00411809 Ry

     iteration # 13     ecut=    50.00 Ry     beta= 0.30
     Davidson diagonalization with overlap

---- Real-time Memory Report at c_bands before calling an iterative solver
           266 MiB given to the printing process from OS
             0 MiB allocation reported by mallinfo(arena+hblkhd)
         76277 MiB available memory on the node where the printing process lives
------------------
     ethr =  1.10E-06,  avg # of iterations =  1.3

     total cpu time spent up to now is      323.7 secs

     total energy              =   -3254.73020119 Ry
     estimated scf accuracy    <       0.00472193 Ry

     iteration # 14     ecut=    50.00 Ry     beta= 0.30
     Davidson diagonalization with overlap

---- Real-time Memory Report at c_bands before calling an iterative solver
           266 MiB given to the printing process from OS
             0 MiB allocation reported by mallinfo(arena+hblkhd)
         76376 MiB available memory on the node where the printing process lives
------------------
     ethr =  1.10E-06,  avg # of iterations =  6.3

     total cpu time spent up to now is      352.1 secs

     total energy              =   -3254.73222518 Ry
     estimated scf accuracy    <       0.00158558 Ry

     iteration # 15     ecut=    50.00 Ry     beta= 0.30
     Davidson diagonalization with overlap

---- Real-time Memory Report at c_bands before calling an iterative solver
           266 MiB given to the printing process from OS
             0 MiB allocation reported by mallinfo(arena+hblkhd)
         76297 MiB available memory on the node where the printing process lives
------------------
     ethr =  4.89E-07,  avg # of iterations =  1.8

     total cpu time spent up to now is      366.5 secs

     total energy              =   -3254.73136451 Ry
     estimated scf accuracy    <       0.00123020 Ry

     iteration # 16     ecut=    50.00 Ry     beta= 0.30
     Davidson diagonalization with overlap

---- Real-time Memory Report at c_bands before calling an iterative solver
           266 MiB given to the printing process from OS
             0 MiB allocation reported by mallinfo(arena+hblkhd)
         76320 MiB available memory on the node where the printing process lives
------------------
     ethr =  3.80E-07,  avg # of iterations =  7.2

     total cpu time spent up to now is      399.0 secs

     total energy              =   -3254.73209848 Ry
     estimated scf accuracy    <       0.00147458 Ry

     iteration # 17     ecut=    50.00 Ry     beta= 0.30
     Davidson diagonalization with overlap

---- Real-time Memory Report at c_bands before calling an iterative solver
           266 MiB given to the printing process from OS
             0 MiB allocation reported by mallinfo(arena+hblkhd)
         76317 MiB available memory on the node where the printing process lives
------------------
     ethr =  3.80E-07,  avg # of iterations =  1.2

     total cpu time spent up to now is      412.2 secs

     total energy              =   -3254.73190614 Ry
     estimated scf accuracy    <       0.00088282 Ry

     iteration # 18     ecut=    50.00 Ry     beta= 0.30
     Davidson diagonalization with overlap

---- Real-time Memory Report at c_bands before calling an iterative solver
           266 MiB given to the printing process from OS
             0 MiB allocation reported by mallinfo(arena+hblkhd)
         76278 MiB available memory on the node where the printing process lives
------------------
     ethr =  2.72E-07,  avg # of iterations =  2.2

     total cpu time spent up to now is      427.2 secs

     total energy              =   -3254.73219373 Ry
     estimated scf accuracy    <       0.00029018 Ry

     iteration # 19     ecut=    50.00 Ry     beta= 0.30
     Davidson diagonalization with overlap

---- Real-time Memory Report at c_bands before calling an iterative solver
           266 MiB given to the printing process from OS
             0 MiB allocation reported by mallinfo(arena+hblkhd)
         76273 MiB available memory on the node where the printing process lives
------------------
     ethr =  8.96E-08,  avg # of iterations =  2.2

     total cpu time spent up to now is      442.3 secs

     total energy              =   -3254.73255336 Ry
     estimated scf accuracy    <       0.00071547 Ry

     iteration # 20     ecut=    50.00 Ry     beta= 0.30
     Davidson diagonalization with overlap

---- Real-time Memory Report at c_bands before calling an iterative solver
           266 MiB given to the printing process from OS
             0 MiB allocation reported by mallinfo(arena+hblkhd)
         76257 MiB available memory on the node where the printing process lives
------------------
     ethr =  8.96E-08,  avg # of iterations =  5.6

     total cpu time spent up to now is      467.5 secs

     total energy              =   -3254.73239528 Ry
     estimated scf accuracy    <       0.00249338 Ry

     iteration # 21     ecut=    50.00 Ry     beta= 0.30
     Davidson diagonalization with overlap

---- Real-time Memory Report at c_bands before calling an iterative solver
           266 MiB given to the printing process from OS
             0 MiB allocation reported by mallinfo(arena+hblkhd)
         76352 MiB available memory on the node where the printing process lives
------------------
     ethr =  8.96E-08,  avg # of iterations =  1.1

     total cpu time spent up to now is      480.6 secs

     total energy              =   -3254.73159601 Ry
     estimated scf accuracy    <       0.00197780 Ry

     iteration # 22     ecut=    50.00 Ry     beta= 0.30
     Davidson diagonalization with overlap

---- Real-time Memory Report at c_bands before calling an iterative solver
           267 MiB given to the printing process from OS
             0 MiB allocation reported by mallinfo(arena+hblkhd)
         76362 MiB available memory on the node where the printing process lives
------------------
     ethr =  8.96E-08,  avg # of iterations =  7.4

     total cpu time spent up to now is      515.5 secs

     total energy              =   -3254.73199400 Ry
     estimated scf accuracy    <       0.00000230 Ry

     iteration # 23     ecut=    50.00 Ry     beta= 0.30
     Davidson diagonalization with overlap

---- Real-time Memory Report at c_bands before calling an iterative solver
           267 MiB given to the printing process from OS
             0 MiB allocation reported by mallinfo(arena+hblkhd)
         76337 MiB available memory on the node where the printing process lives
------------------
     ethr =  7.08E-10,  avg # of iterations = 10.1

     total cpu time spent up to now is      558.3 secs

     total energy              =   -3254.73198970 Ry
     estimated scf accuracy    <       0.00005218 Ry

     iteration # 24     ecut=    50.00 Ry     beta= 0.30
     Davidson diagonalization with overlap

---- Real-time Memory Report at c_bands before calling an iterative solver
           267 MiB given to the printing process from OS
             0 MiB allocation reported by mallinfo(arena+hblkhd)
         76337 MiB available memory on the node where the printing process lives
------------------
     ethr =  7.08E-10,  avg # of iterations = 10.1

     total cpu time spent up to now is      595.9 secs

     total energy              =   -3254.73198958 Ry
     estimated scf accuracy    <       0.00000913 Ry

     iteration # 25     ecut=    50.00 Ry     beta= 0.30
     Davidson diagonalization with overlap

---- Real-time Memory Report at c_bands before calling an iterative solver
           267 MiB given to the printing process from OS
             0 MiB allocation reported by mallinfo(arena+hblkhd)
         76366 MiB available memory on the node where the printing process lives
------------------
     ethr =  7.08E-10,  avg # of iterations =  6.6

     total cpu time spent up to now is      625.5 secs

     total energy              =   -3254.73199097 Ry
     estimated scf accuracy    <       0.00000017 Ry

     iteration # 26     ecut=    50.00 Ry     beta= 0.30
     Davidson diagonalization with overlap

---- Real-time Memory Report at c_bands before calling an iterative solver
           267 MiB given to the printing process from OS
             0 MiB allocation reported by mallinfo(arena+hblkhd)
         76378 MiB available memory on the node where the printing process lives
------------------
     ethr =  5.11E-11,  avg # of iterations = 11.4

     total cpu time spent up to now is      662.9 secs

     total energy              =   -3254.73199101 Ry
     estimated scf accuracy    <       0.00000042 Ry

     iteration # 27     ecut=    50.00 Ry     beta= 0.30
     Davidson diagonalization with overlap

---- Real-time Memory Report at c_bands before calling an iterative solver
           267 MiB given to the printing process from OS
             0 MiB allocation reported by mallinfo(arena+hblkhd)
         76325 MiB available memory on the node where the printing process lives
------------------
     ethr =  5.11E-11,  avg # of iterations =  6.7

     total cpu time spent up to now is      693.4 secs

     total energy              =   -3254.73199114 Ry
     estimated scf accuracy    <       0.00000003 Ry

     iteration # 28     ecut=    50.00 Ry     beta= 0.30
     Davidson diagonalization with overlap

---- Real-time Memory Report at c_bands before calling an iterative solver
           267 MiB given to the printing process from OS
             0 MiB allocation reported by mallinfo(arena+hblkhd)
         76351 MiB available memory on the node where the printing process lives
------------------
     ethr =  1.04E-11,  avg # of iterations =  5.4

     total cpu time spent up to now is      709.0 secs

     total energy              =   -3254.73199112 Ry
     estimated scf accuracy    <       0.00000003 Ry

     iteration # 29     ecut=    50.00 Ry     beta= 0.30
     Davidson diagonalization with overlap

---- Real-time Memory Report at c_bands before calling an iterative solver
           267 MiB given to the printing process from OS
             0 MiB allocation reported by mallinfo(arena+hblkhd)
         76307 MiB available memory on the node where the printing process lives
------------------
     ethr =  1.02E-11,  avg # of iterations =  5.1

     total cpu time spent up to now is      732.2 secs

     End of self-consistent calculation

          k = 0.0000 0.0000 0.0000 ( 17677 PWs)   bands (ev):

   -10.9984 -10.8351 -10.8351 -10.5469 -10.5469 -10.4951 -10.4951 -10.4470
   -10.4470 -10.4470 -10.4470 -10.3181 -10.2519 -10.2519 -10.2518 -10.2518
   -10.1573 -10.1573   0.9559   0.9559   0.9559   0.9559   1.0420   1.0420
     1.0907   1.0907   1.0907   1.0907   1.1614   1.1614   1.2062   1.2062
     1.3159   1.3159   1.3451   1.3451   1.3451   1.3451   1.3565   1.3780
     1.3781   1.4366   1.4366   1.4366   1.4366   1.4393   1.5014   1.5014
     1.5196   1.5196   1.5967   1.5967   1.5967   1.5967   1.6674   1.6674
     1.6674   1.6674   1.7197   1.7197   1.7583   1.7583   1.7583   1.7583
     1.7846   1.7846   1.7846   1.7846   1.9005   1.9005   2.0312   2.0312
     2.3484   2.3484   2.4282   2.4282   2.4787   2.4787   2.4787   2.4787
     2.4918   2.4918   2.4918   2.4918   2.4988   2.4988   2.5339   2.5339
     2.5339   2.5339   2.5917   2.5917   2.5917   2.5917   2.6096   2.6096
     2.6096   2.6096   2.6248   2.6248   2.6552   2.6552   2.6819   2.6819
     2.6819   2.6819   2.8131   2.8131   2.8918   3.0838   3.0838   3.6415
     3.6415   3.6415   3.6415   3.7941   3.7941   3.8753   3.8753   4.0473
     4.0473   4.0473   4.0473   4.6507   4.6507   4.9084   4.9084   4.9084
     4.9084   5.0973   5.0973   5.4186   5.4186   5.4186   5.4186   5.4566
     5.4566   5.9793   5.9793   5.9793   5.9793   6.0155   6.0155   6.0155
     6.0155   6.0931   6.0931   6.1252   6.1252   6.3017   6.3017   6.3190
     6.3190   6.3190   6.3190   6.7004   6.7004   6.7004   6.7004   6.8050
     6.8874   6.8874

     occupation numbers 
     1.0000   1.0000   1.0000   1.0000   1.0000   1.0000   1.0000   1.0000
     1.0000   1.0000   1.0000   1.0000   1.0000   1.0000   1.0000   1.0000
     1.0000   1.0000   1.0000   1.0000   1.0000   1.0000   1.0000   1.0000
     1.0000   1.0000   1.0000   1.0000   1.0000   1.0000   1.0000   1.0000
     1.0000   1.0000   1.0000   1.0000   1.0000   1.0000   1.0000   1.0000
     1.0000   1.0000   1.0000   1.0000   1.0000   1.0000   1.0000   1.0000
     1.0000   1.0000   1.0000   1.0000   1.0000   1.0000   1.0000   1.0000
     1.0000   1.0000   1.0000   1.0000   1.0000   1.0000   1.0000   1.0000
     1.0000   1.0000   1.0000   1.0000   1.0000   1.0000   1.0000   1.0000
     1.0000   1.0000   1.0000   1.0000   1.0000   1.0000   1.0000   1.0000
     1.0000   1.0000   1.0000   1.0000   1.0000   1.0000   1.0000   1.0000
     1.0000   1.0000   1.0000   1.0000   1.0000   1.0000   1.0000   1.0000
     1.0000   1.0000   1.0000   1.0000   1.0000   1.0000   1.0000   1.0000
     1.0000   1.0000   1.0000   1.0000   1.0000   1.0000   1.0000   1.0000
     1.0000   1.0000   1.0000   1.0000   1.0000   1.0000   1.0000   1.0000
     1.0000   1.0000   1.0000   1.0000   1.0000   1.0000   1.0000   1.0000
     1.0000   1.0000   1.0000   1.0000   1.0000   1.0000   1.0000   1.0000
     1.0000   1.0000   1.0000   1.0000   1.0000   1.0000   1.0000   1.0000
     1.0000   1.0000   1.0000   1.0000   1.0000   1.0000   1.0000   1.0000
     1.0000   1.0000   1.0000   1.0000   1.0000   1.0000   1.0000   1.0000
     1.0000   1.0000

          k = 0.0000 0.0000-0.1032 ( 17624 PWs)   bands (ev):

   -10.9551 -10.9550 -10.6673 -10.6673 -10.5200 -10.5200 -10.5200 -10.5200
   -10.3660 -10.3660 -10.3486 -10.3486 -10.3486 -10.3485 -10.1824 -10.1824
   -10.1824 -10.1824   0.9620   0.9620   0.9620   0.9620   1.0114   1.0114
     1.0114   1.0114   1.1298   1.1298   1.2878   1.2878   1.2878   1.2878
     1.3102   1.3102   1.3169   1.3169   1.3225   1.3225   1.3225   1.3225
     1.3852   1.3852   1.3852   1.3852   1.4826   1.4826   1.4826   1.4826
     1.5395   1.5395   1.5395   1.5395   1.6841   1.6841   1.6841   1.6842
     1.6874   1.6874   1.6875   1.6875   1.6945   1.6945   1.6945   1.6945
     1.8679   1.8679   1.8679   1.8679   1.8969   1.8969   1.8970   1.8970
     2.3852   2.3852   2.3853   2.3853   2.4460   2.4460   2.4460   2.4460
     2.5083   2.5083   2.5083   2.5083   2.5468   2.5468   2.5468   2.5468
     2.5701   2.5701   2.5702   2.5702   2.5851   2.5851   2.5851   2.5851
     2.6171   2.6171   2.6172   2.6172   2.6424   2.6424   2.6425   2.6425
     2.7606   2.7606   2.7606   2.7606   3.2007   3.2007   3.3424   3.3424
     3.3424   3.3424   3.8758   3.8758   3.8758   3.8758   3.9352   3.9352
     3.9352   3.9352   4.6229   4.6229   4.6230   4.6230   4.6601   4.6601
     5.1856   5.1857   5.1857   5.1857   5.5304   5.5304   5.5304   5.5304
     5.7225   5.7225   5.7225   5.7225   6.1085   6.1085   6.1086   6.1086
     6.1772   6.1772   6.1773   6.1773   6.2255   6.2255   6.2255   6.2255
     6.2430   6.2430   6.5109   6.5109   6.5109   6.5109   6.8375   6.8375
     6.8375   6.8375

     occupation numbers 
     1.0000   1.0000   1.0000   1.0000   1.0000   1.0000   1.0000   1.0000
     1.0000   1.0000   1.0000   1.0000   1.0000   1.0000   1.0000   1.0000
     1.0000   1.0000   1.0000   1.0000   1.0000   1.0000   1.0000   1.0000
     1.0000   1.0000   1.0000   1.0000   1.0000   1.0000   1.0000   1.0000
     1.0000   1.0000   1.0000   1.0000   1.0000   1.0000   1.0000   1.0000
     1.0000   1.0000   1.0000   1.0000   1.0000   1.0000   1.0000   1.0000
     1.0000   1.0000   1.0000   1.0000   1.0000   1.0000   1.0000   1.0000
     1.0000   1.0000   1.0000   1.0000   1.0000   1.0000   1.0000   1.0000
     1.0000   1.0000   1.0000   1.0000   1.0000   1.0000   1.0000   1.0000
     1.0000   1.0000   1.0000   1.0000   1.0000   1.0000   1.0000   1.0000
     1.0000   1.0000   1.0000   1.0000   1.0000   1.0000   1.0000   1.0000
     1.0000   1.0000   1.0000   1.0000   1.0000   1.0000   1.0000   1.0000
     1.0000   1.0000   1.0000   1.0000   1.0000   1.0000   1.0000   1.0000
     1.0000   1.0000   1.0000   1.0000   1.0000   1.0000   1.0000   1.0000
     1.0000   1.0000   1.0000   1.0000   1.0000   1.0000   1.0000   1.0000
     1.0000   1.0000   1.0000   1.0000   1.0000   1.0000   1.0000   1.0000
     1.0000   1.0000   1.0000   1.0000   1.0000   1.0000   1.0000   1.0000
     1.0000   1.0000   1.0000   1.0000   1.0000   1.0000   1.0000   1.0000
     1.0000   1.0000   1.0000   1.0000   1.0000   1.0000   1.0000   1.0000
     1.0000   1.0000   1.0000   1.0000   1.0000   1.0000   1.0000   1.0000
     1.0000   1.0000

          k = 0.0000-0.1925 0.0000 ( 17658 PWs)   bands (ev):

   -10.8593 -10.8592 -10.7127 -10.7127 -10.7127 -10.7127 -10.4120 -10.4120
   -10.4120 -10.4120 -10.3492 -10.2913 -10.2913 -10.2580 -10.2580 -10.1867
   -10.1867 -10.1406   0.9826   0.9826   1.0471   1.0471   1.0821   1.0821
     1.0821   1.0821   1.1141   1.1443   1.1443   1.1443   1.1443   1.1787
     1.1787   1.3230   1.3939   1.3939   1.4175   1.4175   1.4332   1.4332
     1.4332   1.4332   1.4425   1.4425   1.4425   1.4425   1.4978   1.4978
     1.5221   1.5221   1.5221   1.5221   1.5437   1.5437   1.5437   1.5437
     1.5609   1.6182   1.6182   1.6641   1.6641   1.6647   1.6647   1.8687
     1.8687   1.8803   1.8803   1.9178   1.9178   1.9413   1.9538   2.0753
     2.3719   2.3719   2.4269   2.4269   2.4641   2.4695   2.4695   2.4695
     2.4695   2.4884   2.4884   2.4884   2.4884   2.5909   2.5934   2.5935
     2.5935   2.5935   2.6003   2.6003   2.6172   2.6172   2.6172   2.6172
     2.6268   2.6268   2.6329   2.6329   2.6358   2.6358   2.6705   2.7317
     2.7317   2.7417   2.7479   2.7479   2.8614   2.8614   3.1456   3.1456
     3.2047   3.2754   3.2754   3.4268   3.9343   3.9343   3.9343   3.9343
     4.1406   4.7140   5.0141   5.0141   5.0928   5.0928   5.1229   5.1229
     5.1229   5.1229   5.2257   5.2257   5.5975   5.5975   5.5975   5.5975
     5.6403   5.7660   5.7660   5.7794   5.7794   5.7885   5.7886   5.7927
     5.7927   6.0235   6.0235   6.0235   6.0235   6.0831   6.2838   6.2838
     6.2838   6.2838   6.4801   6.4801   6.4801   6.4801   6.6256   6.6257
     6.7031   6.7031

     occupation numbers 
     1.0000   1.0000   1.0000   1.0000   1.0000   1.0000   1.0000   1.0000
     1.0000   1.0000   1.0000   1.0000   1.0000   1.0000   1.0000   1.0000
     1.0000   1.0000   1.0000   1.0000   1.0000   1.0000   1.0000   1.0000
     1.0000   1.0000   1.0000   1.0000   1.0000   1.0000   1.0000   1.0000
     1.0000   1.0000   1.0000   1.0000   1.0000   1.0000   1.0000   1.0000
     1.0000   1.0000   1.0000   1.0000   1.0000   1.0000   1.0000   1.0000
     1.0000   1.0000   1.0000   1.0000   1.0000   1.0000   1.0000   1.0000
     1.0000   1.0000   1.0000   1.0000   1.0000   1.0000   1.0000   1.0000
     1.0000   1.0000   1.0000   1.0000   1.0000   1.0000   1.0000   1.0000
     1.0000   1.0000   1.0000   1.0000   1.0000   1.0000   1.0000   1.0000
     1.0000   1.0000   1.0000   1.0000   1.0000   1.0000   1.0000   1.0000
     1.0000   1.0000   1.0000   1.0000   1.0000   1.0000   1.0000   1.0000
     1.0000   1.0000   1.0000   1.0000   1.0000   1.0000   1.0000   1.0000
     1.0000   1.0000   1.0000   1.0000   1.0000   1.0000   1.0000   1.0000
     1.0000   1.0000   1.0000   1.0000   1.0000   1.0000   1.0000   1.0000
     1.0000   1.0000   1.0000   1.0000   1.0000   1.0000   1.0000   1.0000
     1.0000   1.0000   1.0000   1.0000   1.0000   1.0000   1.0000   1.0000
     1.0000   1.0000   1.0000   1.0000   1.0000   1.0000   1.0000   1.0000
     1.0000   1.0000   1.0000   1.0000   1.0000   1.0000   1.0000   1.0000
     1.0000   1.0000   1.0000   1.0000   1.0000   1.0000   1.0000   1.0000
     1.0000   1.0000

          k = 0.0000-0.1925-0.1032 ( 17640 PWs)   bands (ev):

   -10.8202 -10.8202 -10.8202 -10.8202 -10.5636 -10.5636 -10.5636 -10.5636
   -10.3334 -10.3333 -10.2995 -10.2995 -10.2995 -10.2995 -10.2371 -10.2370
   -10.1525 -10.1525   0.9527   0.9527   1.0549   1.0549   1.0549   1.0549
     1.0698   1.0698   1.1496   1.1496   1.1496   1.1496   1.2255   1.2255
     1.3367   1.3367   1.3367   1.3367   1.4035   1.4035   1.4035   1.4035
     1.4548   1.4548   1.4548   1.4548   1.4698   1.4698   1.4698   1.4698
     1.4827   1.4827   1.4827   1.4827   1.5871   1.5872   1.5905   1.5905
     1.5905   1.5905   1.5969   1.5969   1.5969   1.5969   1.7821   1.7821
     1.8587   1.8587   1.9133   1.9133   1.9195   1.9195   2.0308   2.0308
     2.4013   2.4013   2.4014   2.4014   2.4440   2.4440   2.4440   2.4440
     2.5266   2.5266   2.5440   2.5440   2.5440   2.5440   2.5485   2.5485
     2.5485   2.5485   2.5930   2.5930   2.6133   2.6133   2.6255   2.6255
     2.6255   2.6255   2.6574   2.6574   2.6724   2.6724   2.6724   2.6724
     2.6978   2.6978   2.7410   2.7411   3.1660   3.1660   3.1878   3.1878
     3.2560   3.2560   3.2560   3.2560   3.3762   3.3762   4.4237   4.4238
     4.6008   4.6008   4.6008   4.6008   4.8201   4.8201   5.2751   5.2751
     5.2751   5.2751   5.4385   5.4386   5.5540   5.5540   5.6315   5.6315
     5.6315   5.6315   5.7267   5.7268   5.8520   5.8520   5.8520   5.8521
     5.9120   5.9120   5.9120   5.9120   5.9987   5.9988   6.2538   6.2538
     6.2538   6.2538   6.5473   6.5473   6.5473   6.5473   6.6436   6.6436
     6.6437   6.6437

     occupation numbers 
     1.0000   1.0000   1.0000   1.0000   1.0000   1.0000   1.0000   1.0000
     1.0000   1.0000   1.0000   1.0000   1.0000   1.0000   1.0000   1.0000
     1.0000   1.0000   1.0000   1.0000   1.0000   1.0000   1.0000   1.0000
     1.0000   1.0000   1.0000   1.0000   1.0000   1.0000   1.0000   1.0000
     1.0000   1.0000   1.0000   1.0000   1.0000   1.0000   1.0000   1.0000
     1.0000   1.0000   1.0000   1.0000   1.0000   1.0000   1.0000   1.0000
     1.0000   1.0000   1.0000   1.0000   1.0000   1.0000   1.0000   1.0000
     1.0000   1.0000   1.0000   1.0000   1.0000   1.0000   1.0000   1.0000
     1.0000   1.0000   1.0000   1.0000   1.0000   1.0000   1.0000   1.0000
     1.0000   1.0000   1.0000   1.0000   1.0000   1.0000   1.0000   1.0000
     1.0000   1.0000   1.0000   1.0000   1.0000   1.0000   1.0000   1.0000
     1.0000   1.0000   1.0000   1.0000   1.0000   1.0000   1.0000   1.0000
     1.0000   1.0000   1.0000   1.0000   1.0000   1.0000   1.0000   1.0000
     1.0000   1.0000   1.0000   1.0000   1.0000   1.0000   1.0000   1.0000
     1.0000   1.0000   1.0000   1.0000   1.0000   1.0000   1.0000   1.0000
     1.0000   1.0000   1.0000   1.0000   1.0000   1.0000   1.0000   1.0000
     1.0000   1.0000   1.0000   1.0000   1.0000   1.0000   1.0000   1.0000
     1.0000   1.0000   1.0000   1.0000   1.0000   1.0000   1.0000   1.0000
     1.0000   1.0000   1.0000   1.0000   1.0000   1.0000   1.0000   1.0000
     1.0000   1.0000   1.0000   1.0000   1.0000   1.0000   1.0000   1.0000
     1.0000   1.0000

          k = 0.1667 0.0962 0.0000 ( 17707 PWs)   bands (ev):

   -10.8592 -10.7127 -10.7127 -10.6321 -10.5178 -10.5178 -10.4120 -10.4120
   -10.3566 -10.2961 -10.2961 -10.2904 -10.2904 -10.2580 -10.1858 -10.1858
   -10.1781 -10.1366   1.0368   1.0368   1.0821   1.0821   1.1038   1.1038
     1.1268   1.1268   1.1443   1.1443   1.1448   1.1787   1.1968   1.1968
     1.2098   1.3347   1.3939   1.4175   1.4332   1.4332   1.4425   1.4425
     1.4530   1.4978   1.5169   1.5169   1.5221   1.5221   1.5272   1.5381
     1.5381   1.5437   1.5437   1.5839   1.5839   1.5839   1.5845   1.6182
     1.6647   1.6853   1.6853   1.7338   1.7338   1.7418   1.7418   1.7927
     1.8373   1.8904   1.8904   1.9133   1.9133   1.9688   2.0460   2.1149
     2.3226   2.3719   2.4055   2.4269   2.4472   2.4609   2.4609   2.4695
     2.4695   2.4731   2.4884   2.4884   2.4958   2.4958   2.5183   2.5183
     2.5677   2.5677   2.5935   2.5935   2.6056   2.6056   2.6172   2.6172
     2.6358   2.6484   2.6725   2.6725   2.6836   2.6913   2.6913   2.7479
     2.8116   2.8116   2.8199   2.8614   2.8732   3.0203   3.0747   3.2568
     3.2568   3.5916   3.5916   3.6813   3.8660   3.8660   3.9343   3.9343
     4.1031   4.4221   4.4227   4.4657   4.4657   4.5350   4.5350   4.6354
     4.9826   4.9826   5.0818   5.0818   5.1229   5.1229   5.2257   5.2291
     5.3664   5.3664   5.3814   5.3814   5.5975   5.5975   5.6136   5.7794
     5.7885   5.7976   5.8448   5.8448   5.9570   5.9571   6.0235   6.0235
     6.0905   6.0905   6.2537   6.2838   6.2838   6.2864   6.4801   6.4801
     6.6257   6.7031

     occupation numbers 
     1.0000   1.0000   1.0000   1.0000   1.0000   1.0000   1.0000   1.0000
     1.0000   1.0000   1.0000   1.0000   1.0000   1.0000   1.0000   1.0000
     1.0000   1.0000   1.0000   1.0000   1.0000   1.0000   1.0000   1.0000
     1.0000   1.0000   1.0000   1.0000   1.0000   1.0000   1.0000   1.0000
     1.0000   1.0000   1.0000   1.0000   1.0000   1.0000   1.0000   1.0000
     1.0000   1.0000   1.0000   1.0000   1.0000   1.0000   1.0000   1.0000
     1.0000   1.0000   1.0000   1.0000   1.0000   1.0000   1.0000   1.0000
     1.0000   1.0000   1.0000   1.0000   1.0000   1.0000   1.0000   1.0000
     1.0000   1.0000   1.0000   1.0000   1.0000   1.0000   1.0000   1.0000
     1.0000   1.0000   1.0000   1.0000   1.0000   1.0000   1.0000   1.0000
     1.0000   1.0000   1.0000   1.0000   1.0000   1.0000   1.0000   1.0000
     1.0000   1.0000   1.0000   1.0000   1.0000   1.0000   1.0000   1.0000
     1.0000   1.0000   1.0000   1.0000   1.0000   1.0000   1.0000   1.0000
     1.0000   1.0000   1.0000   1.0000   1.0000   1.0000   1.0000   1.0000
     1.0000   1.0000   1.0000   1.0000   1.0000   1.0000   1.0000   1.0000
     1.0000   1.0000   1.0000   1.0000   1.0000   1.0000   1.0000   1.0000
     1.0000   1.0000   1.0000   1.0000   1.0000   1.0000   1.0000   1.0000
     1.0000   1.0000   1.0000   1.0000   1.0000   1.0000   1.0000   1.0000
     1.0000   1.0000   1.0000   1.0000   1.0000   1.0000   1.0000   1.0000
     1.0000   1.0000   1.0000   1.0000   1.0000   1.0000   1.0000   1.0000
     1.0000   1.0000

          k = 0.1667 0.0962-0.1032 ( 17698 PWs)   bands (ev):

   -10.8202 -10.8202 -10.6015 -10.6014 -10.5636 -10.5636 -10.4037 -10.4037
   -10.3401 -10.3400 -10.2995 -10.2995 -10.2390 -10.2390 -10.2081 -10.2080
   -10.1494 -10.1494   1.0209   1.0209   1.0549   1.0549   1.0857   1.0857
     1.1086   1.1086   1.1496   1.1496   1.1780   1.1781   1.2850   1.2850
     1.3367   1.3367   1.3763   1.3763   1.4035   1.4035   1.4548   1.4548
     1.4698   1.4698   1.4827   1.4827   1.5188   1.5188   1.5328   1.5328
     1.5573   1.5573   1.5637   1.5637   1.5905   1.5905   1.5969   1.5969
     1.6623   1.6623   1.6781   1.6781   1.7730   1.7730   1.8092   1.8092
     1.8094   1.8094   1.8597   1.8597   1.9824   1.9824   2.0290   2.0291
     2.3642   2.3642   2.4013   2.4014   2.4171   2.4172   2.4440   2.4440
     2.4789   2.4789   2.5393   2.5393   2.5440   2.5440   2.5485   2.5485
     2.5519   2.5519   2.5532   2.5532   2.5835   2.5835   2.6255   2.6255
     2.6363   2.6363   2.6724   2.6724   2.6804   2.6804   2.7389   2.7389
     2.7500   2.7501   2.8696   2.8696   3.1154   3.1154   3.2560   3.2560
     3.3752   3.3752   3.4275   3.4275   3.6971   3.6971   4.2092   4.2092
     4.2135   4.2135   4.5551   4.5551   4.6008   4.6008   4.6101   4.6101
     4.6168   4.6168   4.9299   4.9299   5.2328   5.2328   5.2751   5.2751
     5.5301   5.5301   5.5973   5.5973   5.6315   5.6315   5.6423   5.6423
     5.7237   5.7237   5.7987   5.7987   5.8520   5.8520   5.9120   5.9120
     6.1733   6.1733   6.2538   6.2538   6.2739   6.2739   6.5473   6.5473
     6.6436   6.6437

     occupation numbers 
     1.0000   1.0000   1.0000   1.0000   1.0000   1.0000   1.0000   1.0000
     1.0000   1.0000   1.0000   1.0000   1.0000   1.0000   1.0000   1.0000
     1.0000   1.0000   1.0000   1.0000   1.0000   1.0000   1.0000   1.0000
     1.0000   1.0000   1.0000   1.0000   1.0000   1.0000   1.0000   1.0000
     1.0000   1.0000   1.0000   1.0000   1.0000   1.0000   1.0000   1.0000
     1.0000   1.0000   1.0000   1.0000   1.0000   1.0000   1.0000   1.0000
     1.0000   1.0000   1.0000   1.0000   1.0000   1.0000   1.0000   1.0000
     1.0000   1.0000   1.0000   1.0000   1.0000   1.0000   1.0000   1.0000
     1.0000   1.0000   1.0000   1.0000   1.0000   1.0000   1.0000   1.0000
     1.0000   1.0000   1.0000   1.0000   1.0000   1.0000   1.0000   1.0000
     1.0000   1.0000   1.0000   1.0000   1.0000   1.0000   1.0000   1.0000
     1.0000   1.0000   1.0000   1.0000   1.0000   1.0000   1.0000   1.0000
     1.0000   1.0000   1.0000   1.0000   1.0000   1.0000   1.0000   1.0000
     1.0000   1.0000   1.0000   1.0000   1.0000   1.0000   1.0000   1.0000
     1.0000   1.0000   1.0000   1.0000   1.0000   1.0000   1.0000   1.0000
     1.0000   1.0000   1.0000   1.0000   1.0000   1.0000   1.0000   1.0000
     1.0000   1.0000   1.0000   1.0000   1.0000   1.0000   1.0000   1.0000
     1.0000   1.0000   1.0000   1.0000   1.0000   1.0000   1.0000   1.0000
     1.0000   1.0000   1.0000   1.0000   1.0000   1.0000   1.0000   1.0000
     1.0000   1.0000   1.0000   1.0000   1.0000   1.0000   1.0000   1.0000
     1.0000   1.0000

          k = 0.3333 0.1925 0.0000 ( 17745 PWs)   bands (ev):

   -10.5469 -10.5469 -10.4470 -10.4470 -10.4470 -10.4470 -10.2519 -10.2519
   -10.2518 -10.2518 -10.1942 -10.1942 -10.1871 -10.1871 -10.1871 -10.1871
   -10.1573 -10.1573   0.9559   0.9559   0.9559   0.9559   1.0420   1.0420
     1.0907   1.0907   1.0907   1.0907   1.2800   1.3780   1.3780   1.3917
     1.3917   1.4031   1.4031   1.4031   1.4031   1.5196   1.5196   1.5967
     1.5967   1.5967   1.5967   1.6674   1.6674   1.6674   1.6674   1.6688
     1.6688   1.7171   1.7171   1.7197   1.7197   1.7583   1.7583   1.7583
     1.7583   1.7846   1.7846   1.7846   1.7846   1.9005   1.9005   2.0259
     2.0312   2.0312   2.0771   2.0771   2.0771   2.0771   2.2690   2.2690
     2.3484   2.3484   2.3627   2.4064   2.4064   2.4607   2.4607   2.4787
     2.4787   2.4787   2.4787   2.4858   2.4988   2.4988   2.5316   2.5316
     2.5339   2.5339   2.5339   2.5339   2.6096   2.6096   2.6096   2.6096
     2.6552   2.6552   2.6819   2.6819   2.6819   2.6819   2.8131   2.8131
     2.8530   2.8530   2.8530   2.8530   3.0838   3.0838   3.2411   3.2873
     3.2873   3.2873   3.2873   3.4120   3.4120   3.6415   3.6415   3.6415
     3.6415   3.7941   3.7941   3.8035   3.8035   4.0473   4.0473   4.0473
     4.0473   4.6507   4.6507   4.7453   4.7453   4.9084   4.9084   4.9084
     4.9084   5.0284   5.0284   5.0973   5.0973   5.2183   5.4186   5.4186
     5.4186   5.4186   5.5234   5.5234   5.5235   5.5235   5.9793   5.9793
     5.9793   5.9793   6.0155   6.0155   6.0155   6.0155   6.0931   6.0931
     6.3017   6.3017

     occupation numbers 
     1.0000   1.0000   1.0000   1.0000   1.0000   1.0000   1.0000   1.0000
     1.0000   1.0000   1.0000   1.0000   1.0000   1.0000   1.0000   1.0000
     1.0000   1.0000   1.0000   1.0000   1.0000   1.0000   1.0000   1.0000
     1.0000   1.0000   1.0000   1.0000   1.0000   1.0000   1.0000   1.0000
     1.0000   1.0000   1.0000   1.0000   1.0000   1.0000   1.0000   1.0000
     1.0000   1.0000   1.0000   1.0000   1.0000   1.0000   1.0000   1.0000
     1.0000   1.0000   1.0000   1.0000   1.0000   1.0000   1.0000   1.0000
     1.0000   1.0000   1.0000   1.0000   1.0000   1.0000   1.0000   1.0000
     1.0000   1.0000   1.0000   1.0000   1.0000   1.0000   1.0000   1.0000
     1.0000   1.0000   1.0000   1.0000   1.0000   1.0000   1.0000   1.0000
     1.0000   1.0000   1.0000   1.0000   1.0000   1.0000   1.0000   1.0000
     1.0000   1.0000   1.0000   1.0000   1.0000   1.0000   1.0000   1.0000
     1.0000   1.0000   1.0000   1.0000   1.0000   1.0000   1.0000   1.0000
     1.0000   1.0000   1.0000   1.0000   1.0000   1.0000   1.0000   1.0000
     1.0000   1.0000   1.0000   1.0000   1.0000   1.0000   1.0000   1.0000
     1.0000   1.0000   1.0000   1.0000   1.0000   1.0000   1.0000   1.0000
     1.0000   1.0000   1.0000   1.0000   1.0000   1.0000   1.0000   1.0000
     1.0000   1.0000   1.0000   1.0000   1.0000   1.0000   1.0000   1.0000
     1.0000   1.0000   1.0000   1.0000   1.0000   1.0000   1.0000   1.0000
     1.0000   1.0000   1.0000   1.0000   1.0000   1.0000   1.0000   1.0000
     1.0000   1.0000

          k = 0.3333 0.1925-0.1032 ( 17706 PWs)   bands (ev):

   -10.5200 -10.5200 -10.5200 -10.5200 -10.3486 -10.3486 -10.3486 -10.3485
   -10.1919 -10.1918 -10.1918 -10.1918 -10.1848 -10.1848 -10.1824 -10.1824
   -10.1824 -10.1824   0.9620   0.9620   0.9620   0.9620   1.0114   1.0114
     1.0114   1.0114   1.2878   1.2878   1.2878   1.2878   1.3081   1.3081
     1.3212   1.3212   1.5306   1.5306   1.5395   1.5395   1.5395   1.5395
     1.5787   1.5787   1.5787   1.5787   1.6841   1.6841   1.6842   1.6842
     1.6874   1.6874   1.6875   1.6875   1.6945   1.6945   1.6945   1.6945
     1.8679   1.8679   1.8679   1.8679   1.8969   1.8970   1.8970   1.8970
     1.9187   1.9187   2.0556   2.0556   2.1585   2.1585   2.1585   2.1585
     2.3793   2.3793   2.3852   2.3852   2.3853   2.3853   2.4346   2.4346
     2.4791   2.4792   2.5083   2.5083   2.5083   2.5083   2.5701   2.5702
     2.5702   2.5702   2.5851   2.5851   2.5851   2.5851   2.6424   2.6424
     2.6425   2.6425   2.6812   2.6812   2.6812   2.6812   2.7606   2.7606
     2.7606   2.7606   2.9254   2.9254   3.2429   3.2430   3.3424   3.3424
     3.3424   3.3424   3.3685   3.3685   3.3685   3.3685   3.4090   3.4090
     3.8758   3.8758   3.8758   3.8758   3.9352   3.9352   3.9352   3.9352
     4.2827   4.2827   4.6229   4.6229   4.6230   4.6230   5.0893   5.0894
     5.1856   5.1857   5.1857   5.1857   5.1983   5.1983   5.1983   5.1983
     5.5304   5.5304   5.5304   5.5304   5.6818   5.6819   5.7225   5.7225
     5.7225   5.7225   6.1085   6.1085   6.1086   6.1086   6.2255   6.2255
     6.2255   6.2255

     occupation numbers 
     1.0000   1.0000   1.0000   1.0000   1.0000   1.0000   1.0000   1.0000
     1.0000   1.0000   1.0000   1.0000   1.0000   1.0000   1.0000   1.0000
     1.0000   1.0000   1.0000   1.0000   1.0000   1.0000   1.0000   1.0000
     1.0000   1.0000   1.0000   1.0000   1.0000   1.0000   1.0000   1.0000
     1.0000   1.0000   1.0000   1.0000   1.0000   1.0000   1.0000   1.0000
     1.0000   1.0000   1.0000   1.0000   1.0000   1.0000   1.0000   1.0000
     1.0000   1.0000   1.0000   1.0000   1.0000   1.0000   1.0000   1.0000
     1.0000   1.0000   1.0000   1.0000   1.0000   1.0000   1.0000   1.0000
     1.0000   1.0000   1.0000   1.0000   1.0000   1.0000   1.0000   1.0000
     1.0000   1.0000   1.0000   1.0000   1.0000   1.0000   1.0000   1.0000
     1.0000   1.0000   1.0000   1.0000   1.0000   1.0000   1.0000   1.0000
     1.0000   1.0000   1.0000   1.0000   1.0000   1.0000   1.0000   1.0000
     1.0000   1.0000   1.0000   1.0000   1.0000   1.0000   1.0000   1.0000
     1.0000   1.0000   1.0000   1.0000   1.0000   1.0000   1.0000   1.0000
     1.0000   1.0000   1.0000   1.0000   1.0000   1.0000   1.0000   1.0000
     1.0000   1.0000   1.0000   1.0000   1.0000   1.0000   1.0000   1.0000
     1.0000   1.0000   1.0000   1.0000   1.0000   1.0000   1.0000   1.0000
     1.0000   1.0000   1.0000   1.0000   1.0000   1.0000   1.0000   1.0000
     1.0000   1.0000   1.0000   1.0000   1.0000   1.0000   1.0000   1.0000
     1.0000   1.0000   1.0000   1.0000   1.0000   1.0000   1.0000   1.0000
     1.0000   1.0000

          k = 0.3333-0.0000 0.0000 ( 17761 PWs)   bands (ev):

   -10.6321 -10.5178 -10.5178 -10.3566 -10.3566 -10.2961 -10.2961 -10.2961
   -10.2961 -10.2904 -10.2904 -10.1858 -10.1858 -10.1858 -10.1858 -10.1781
   -10.1366 -10.1366   1.0368   1.0368   1.1038   1.1038   1.1038   1.1038
     1.1268   1.1268   1.1448   1.1968   1.1968   1.1968   1.1968   1.2098
     1.2098   1.3347   1.4530   1.4530   1.5169   1.5169   1.5272   1.5381
     1.5381   1.5839   1.5839   1.5839   1.5839   1.5839   1.5839   1.5845
     1.6853   1.6853   1.7338   1.7338   1.7338   1.7338   1.7418   1.7418
     1.7927   1.7927   1.8373   1.8904   1.8904   1.8904   1.8904   1.9133
     1.9133   1.9133   1.9133   1.9688   2.0460   2.0460   2.1149   2.1149
     2.3226   2.4055   2.4055   2.4472   2.4609   2.4609   2.4731   2.4731
     2.4958   2.4958   2.4958   2.4958   2.5183   2.5183   2.5677   2.5677
     2.5677   2.5677   2.6056   2.6056   2.6484   2.6725   2.6725   2.6836
     2.6836   2.6913   2.6913   2.6913   2.6913   2.8116   2.8116   2.8116
     2.8116   2.8199   2.8732   2.8732   3.0203   3.0747   3.0747   3.2568
     3.2568   3.2568   3.2568   3.5916   3.5916   3.5916   3.5916   3.6813
     3.6813   3.8660   3.8660   4.1031   4.1031   4.4221   4.4221   4.4227
     4.4657   4.4657   4.5350   4.5350   4.5350   4.5350   4.6354   4.9826
     4.9826   5.0818   5.0818   5.0818   5.0818   5.2291   5.3664   5.3664
     5.3814   5.3814   5.3814   5.3814   5.6135   5.6136   5.7976   5.7976
     5.8448   5.8448   5.8448   5.8448   5.9570   5.9570   6.0905   6.0905
     6.2537   6.2864

     occupation numbers 
     1.0000   1.0000   1.0000   1.0000   1.0000   1.0000   1.0000   1.0000
     1.0000   1.0000   1.0000   1.0000   1.0000   1.0000   1.0000   1.0000
     1.0000   1.0000   1.0000   1.0000   1.0000   1.0000   1.0000   1.0000
     1.0000   1.0000   1.0000   1.0000   1.0000   1.0000   1.0000   1.0000
     1.0000   1.0000   1.0000   1.0000   1.0000   1.0000   1.0000   1.0000
     1.0000   1.0000   1.0000   1.0000   1.0000   1.0000   1.0000   1.0000
     1.0000   1.0000   1.0000   1.0000   1.0000   1.0000   1.0000   1.0000
     1.0000   1.0000   1.0000   1.0000   1.0000   1.0000   1.0000   1.0000
     1.0000   1.0000   1.0000   1.0000   1.0000   1.0000   1.0000   1.0000
     1.0000   1.0000   1.0000   1.0000   1.0000   1.0000   1.0000   1.0000
     1.0000   1.0000   1.0000   1.0000   1.0000   1.0000   1.0000   1.0000
     1.0000   1.0000   1.0000   1.0000   1.0000   1.0000   1.0000   1.0000
     1.0000   1.0000   1.0000   1.0000   1.0000   1.0000   1.0000   1.0000
     1.0000   1.0000   1.0000   1.0000   1.0000   1.0000   1.0000   1.0000
     1.0000   1.0000   1.0000   1.0000   1.0000   1.0000   1.0000   1.0000
     1.0000   1.0000   1.0000   1.0000   1.0000   1.0000   1.0000   1.0000
     1.0000   1.0000   1.0000   1.0000   1.0000   1.0000   1.0000   1.0000
     1.0000   1.0000   1.0000   1.0000   1.0000   1.0000   1.0000   1.0000
     1.0000   1.0000   1.0000   1.0000   1.0000   1.0000   1.0000   1.0000
     1.0000   1.0000   1.0000   1.0000   1.0000   1.0000   1.0000   1.0000
     1.0000   1.0000

          k = 0.3333-0.0000-0.1032 ( 17772 PWs)   bands (ev):

   -10.6015 -10.6014 -10.4037 -10.4037 -10.3401 -10.3401 -10.3400 -10.3400
   -10.2390 -10.2390 -10.2390 -10.2390 -10.2081 -10.2080 -10.1494 -10.1494
   -10.1494 -10.1494   1.0209   1.0209   1.0857   1.0857   1.0857   1.0857
     1.1086   1.1086   1.1780   1.1780   1.1781   1.1781   1.2850   1.2850
     1.3763   1.3763   1.3763   1.3763   1.5188   1.5188   1.5328   1.5328
     1.5573   1.5573   1.5637   1.5637   1.5637   1.5637   1.6623   1.6623
     1.6623   1.6624   1.6781   1.6781   1.7730   1.7730   1.7730   1.7730
     1.8092   1.8092   1.8094   1.8094   1.8597   1.8597   1.8597   1.8597
     1.9824   1.9824   1.9824   1.9824   2.0290   2.0290   2.0291   2.0291
     2.3642   2.3642   2.4171   2.4171   2.4172   2.4172   2.4789   2.4789
     2.5393   2.5393   2.5393   2.5393   2.5519   2.5519   2.5532   2.5532
     2.5532   2.5532   2.5835   2.5835   2.6363   2.6363   2.6804   2.6804
     2.6804   2.6804   2.7389   2.7389   2.7389   2.7389   2.7500   2.7501
     2.8696   2.8696   2.8696   2.8696   3.1154   3.1154   3.1154   3.1154
     3.3752   3.3752   3.4275   3.4275   3.4275   3.4275   3.6971   3.6971
     3.6971   3.6971   4.2092   4.2092   4.2092   4.2092   4.2135   4.2135
     4.5551   4.5551   4.6101   4.6101   4.6168   4.6168   4.6168   4.6168
     4.9299   4.9299   4.9299   4.9299   5.2328   5.2328   5.5301   5.5301
     5.5973   5.5973   5.5973   5.5973   5.6423   5.6423   5.6423   5.6423
     5.7237   5.7237   5.7987   5.7987   5.7987   5.7987   6.1733   6.1733
     6.2739   6.2739

     occupation numbers 
     1.0000   1.0000   1.0000   1.0000   1.0000   1.0000   1.0000   1.0000
     1.0000   1.0000   1.0000   1.0000   1.0000   1.0000   1.0000   1.0000
     1.0000   1.0000   1.0000   1.0000   1.0000   1.0000   1.0000   1.0000
     1.0000   1.0000   1.0000   1.0000   1.0000   1.0000   1.0000   1.0000
     1.0000   1.0000   1.0000   1.0000   1.0000   1.0000   1.0000   1.0000
     1.0000   1.0000   1.0000   1.0000   1.0000   1.0000   1.0000   1.0000
     1.0000   1.0000   1.0000   1.0000   1.0000   1.0000   1.0000   1.0000
     1.0000   1.0000   1.0000   1.0000   1.0000   1.0000   1.0000   1.0000
     1.0000   1.0000   1.0000   1.0000   1.0000   1.0000   1.0000   1.0000
     1.0000   1.0000   1.0000   1.0000   1.0000   1.0000   1.0000   1.0000
     1.0000   1.0000   1.0000   1.0000   1.0000   1.0000   1.0000   1.0000
     1.0000   1.0000   1.0000   1.0000   1.0000   1.0000   1.0000   1.0000
     1.0000   1.0000   1.0000   1.0000   1.0000   1.0000   1.0000   1.0000
     1.0000   1.0000   1.0000   1.0000   1.0000   1.0000   1.0000   1.0000
     1.0000   1.0000   1.0000   1.0000   1.0000   1.0000   1.0000   1.0000
     1.0000   1.0000   1.0000   1.0000   1.0000   1.0000   1.0000   1.0000
     1.0000   1.0000   1.0000   1.0000   1.0000   1.0000   1.0000   1.0000
     1.0000   1.0000   1.0000   1.0000   1.0000   1.0000   1.0000   1.0000
     1.0000   1.0000   1.0000   1.0000   1.0000   1.0000   1.0000   1.0000
     1.0000   1.0000   1.0000   1.0000   1.0000   1.0000   1.0000   1.0000
     1.0000   1.0000

          k =-0.5000-0.2887 0.0000 ( 17766 PWs)   bands (ev):

   -10.3566 -10.3566 -10.3492 -10.2961 -10.2961 -10.2961 -10.2961 -10.2913
   -10.2913 -10.1867 -10.1867 -10.1858 -10.1858 -10.1858 -10.1858 -10.1406
   -10.1366 -10.1366   0.9826   0.9826   1.0471   1.0471   1.1038   1.1038
     1.1038   1.1038   1.1141   1.1968   1.1968   1.1968   1.1968   1.2098
     1.2098   1.3230   1.4530   1.4530   1.5609   1.5839   1.5839   1.5839
     1.5839   1.5839   1.5839   1.6641   1.6641   1.7338   1.7338   1.7338
     1.7338   1.7927   1.7927   1.8687   1.8687   1.8803   1.8803   1.8904
     1.8904   1.8904   1.8904   1.9133   1.9133   1.9133   1.9134   1.9178
     1.9178   1.9413   1.9538   2.0460   2.0460   2.0753   2.1149   2.1149
     2.4055   2.4055   2.4641   2.4731   2.4731   2.4958   2.4958   2.4958
     2.4958   2.5677   2.5677   2.5677   2.5677   2.5909   2.6003   2.6003
     2.6268   2.6268   2.6329   2.6329   2.6705   2.6836   2.6836   2.6913
     2.6913   2.6913   2.6913   2.7317   2.7317   2.7417   2.8116   2.8116
     2.8116   2.8116   2.8732   2.8732   3.0747   3.0747   3.1456   3.1456
     3.2047   3.2568   3.2568   3.2568   3.2568   3.2754   3.2754   3.4268
     3.5916   3.5916   3.5916   3.5916   3.6813   3.6813   4.1031   4.1031
     4.1406   4.4221   4.4221   4.5350   4.5350   4.5350   4.5350   4.7140
     5.0141   5.0141   5.0818   5.0818   5.0818   5.0818   5.0928   5.0928
     5.3814   5.3814   5.3814   5.3814   5.6135   5.6136   5.6403   5.7660
     5.7660   5.7927   5.7927   5.7976   5.7976   5.8448   5.8448   5.8448
     5.8448   6.0831

     occupation numbers 
     1.0000   1.0000   1.0000   1.0000   1.0000   1.0000   1.0000   1.0000
     1.0000   1.0000   1.0000   1.0000   1.0000   1.0000   1.0000   1.0000
     1.0000   1.0000   1.0000   1.0000   1.0000   1.0000   1.0000   1.0000
     1.0000   1.0000   1.0000   1.0000   1.0000   1.0000   1.0000   1.0000
     1.0000   1.0000   1.0000   1.0000   1.0000   1.0000   1.0000   1.0000
     1.0000   1.0000   1.0000   1.0000   1.0000   1.0000   1.0000   1.0000
     1.0000   1.0000   1.0000   1.0000   1.0000   1.0000   1.0000   1.0000
     1.0000   1.0000   1.0000   1.0000   1.0000   1.0000   1.0000   1.0000
     1.0000   1.0000   1.0000   1.0000   1.0000   1.0000   1.0000   1.0000
     1.0000   1.0000   1.0000   1.0000   1.0000   1.0000   1.0000   1.0000
     1.0000   1.0000   1.0000   1.0000   1.0000   1.0000   1.0000   1.0000
     1.0000   1.0000   1.0000   1.0000   1.0000   1.0000   1.0000   1.0000
     1.0000   1.0000   1.0000   1.0000   1.0000   1.0000   1.0000   1.0000
     1.0000   1.0000   1.0000   1.0000   1.0000   1.0000   1.0000   1.0000
     1.0000   1.0000   1.0000   1.0000   1.0000   1.0000   1.0000   1.0000
     1.0000   1.0000   1.0000   1.0000   1.0000   1.0000   1.0000   1.0000
     1.0000   1.0000   1.0000   1.0000   1.0000   1.0000   1.0000   1.0000
     1.0000   1.0000   1.0000   1.0000   1.0000   1.0000   1.0000   1.0000
     1.0000   1.0000   1.0000   1.0000   1.0000   1.0000   1.0000   1.0000
     1.0000   1.0000   1.0000   1.0000   1.0000   1.0000   1.0000   1.0000
     1.0000   1.0000

          k =-0.5000-0.2887-0.1032 ( 17788 PWs)   bands (ev):

   -10.3401 -10.3401 -10.3400 -10.3400 -10.3334 -10.3333 -10.2390 -10.2390
   -10.2390 -10.2390 -10.2371 -10.2370 -10.1525 -10.1525 -10.1494 -10.1494
   -10.1494 -10.1494   0.9527   0.9527   1.0698   1.0698   1.0857   1.0857
     1.0857   1.0857   1.1780   1.1780   1.1781   1.1781   1.2255   1.2255
     1.3763   1.3763   1.3763   1.3763   1.5637   1.5637   1.5637   1.5637
     1.5871   1.5872   1.6623   1.6623   1.6623   1.6624   1.7730   1.7730
     1.7730   1.7730   1.7821   1.7821   1.8587   1.8587   1.8597   1.8597
     1.8597   1.8597   1.9133   1.9133   1.9195   1.9195   1.9824   1.9824
     1.9824   1.9824   2.0290   2.0290   2.0291   2.0291   2.0308   2.0308
     2.4171   2.4171   2.4172   2.4172   2.5266   2.5266   2.5393   2.5393
     2.5393   2.5393   2.5532   2.5532   2.5532   2.5532   2.5930   2.5930
     2.6133   2.6133   2.6574   2.6574   2.6804   2.6804   2.6804   2.6804
     2.6978   2.6978   2.7389   2.7389   2.7389   2.7389   2.7410   2.7411
     2.8696   2.8696   2.8696   2.8696   3.1154   3.1154   3.1154   3.1154
     3.1660   3.1660   3.1878   3.1878   3.3762   3.3762   3.4275   3.4275
     3.4275   3.4275   3.6971   3.6971   3.6971   3.6971   4.2092   4.2092
     4.2092   4.2092   4.4237   4.4238   4.6168   4.6168   4.6168   4.6168
     4.8201   4.8201   4.9299   4.9299   4.9299   4.9299   5.4385   5.4386
     5.5540   5.5540   5.5973   5.5973   5.5973   5.5973   5.6423   5.6423
     5.6423   5.6423   5.7267   5.7268   5.7987   5.7987   5.7987   5.7987
     5.9987   5.9988

     occupation numbers 
     1.0000   1.0000   1.0000   1.0000   1.0000   1.0000   1.0000   1.0000
     1.0000   1.0000   1.0000   1.0000   1.0000   1.0000   1.0000   1.0000
     1.0000   1.0000   1.0000   1.0000   1.0000   1.0000   1.0000   1.0000
     1.0000   1.0000   1.0000   1.0000   1.0000   1.0000   1.0000   1.0000
     1.0000   1.0000   1.0000   1.0000   1.0000   1.0000   1.0000   1.0000
     1.0000   1.0000   1.0000   1.0000   1.0000   1.0000   1.0000   1.0000
     1.0000   1.0000   1.0000   1.0000   1.0000   1.0000   1.0000   1.0000
     1.0000   1.0000   1.0000   1.0000   1.0000   1.0000   1.0000   1.0000
     1.0000   1.0000   1.0000   1.0000   1.0000   1.0000   1.0000   1.0000
     1.0000   1.0000   1.0000   1.0000   1.0000   1.0000   1.0000   1.0000
     1.0000   1.0000   1.0000   1.0000   1.0000   1.0000   1.0000   1.0000
     1.0000   1.0000   1.0000   1.0000   1.0000   1.0000   1.0000   1.0000
     1.0000   1.0000   1.0000   1.0000   1.0000   1.0000   1.0000   1.0000
     1.0000   1.0000   1.0000   1.0000   1.0000   1.0000   1.0000   1.0000
     1.0000   1.0000   1.0000   1.0000   1.0000   1.0000   1.0000   1.0000
     1.0000   1.0000   1.0000   1.0000   1.0000   1.0000   1.0000   1.0000
     1.0000   1.0000   1.0000   1.0000   1.0000   1.0000   1.0000   1.0000
     1.0000   1.0000   1.0000   1.0000   1.0000   1.0000   1.0000   1.0000
     1.0000   1.0000   1.0000   1.0000   1.0000   1.0000   1.0000   1.0000
     1.0000   1.0000   1.0000   1.0000   1.0000   1.0000   1.0000   1.0000
     1.0000   1.0000

     highest occupied level (ev):     6.8874

!    total energy              =   -3254.73199113 Ry
     estimated scf accuracy    <          7.9E-09 Ry

     The total energy is the sum of the following terms:
     one-electron contribution =   -1390.72593170 Ry
     hartree contribution      =    1064.60109860 Ry
     xc contribution           =    -985.91457015 Ry
     ewald contribution        =   -1942.69258788 Ry

     convergence has been achieved in  29 iterations

     Forces acting on atoms (cartesian axes, Ry/au):

     atom    1 type  1   force =     0.00000000   -0.00000260    0.00007238
     atom    2 type  1   force =     0.00000000   -0.00000161    0.00006238
     atom    3 type  2   force =     0.00000000    0.00000030   -0.00006095
     atom    4 type  2   force =     0.00000000   -0.00000023   -0.00006059
     atom    5 type  1   force =     0.00000000   -0.00000169    0.00005944
     atom    6 type  1   force =     0.00000000    0.00000056    0.00006421
     atom    7 type  2   force =     0.00000000    0.00000002   -0.00006172
     atom    8 type  2   force =     0.00000000   -0.00000020   -0.00006140
     atom    9 type  1   force =     0.00000000   -0.00000350    0.00005795
     atom   10 type  1   force =     0.00000000   -0.00000438    0.00005296
     atom   11 type  2   force =     0.00000000    0.00000000   -0.00006141
     atom   12 type  2   force =     0.00000000   -0.00000008   -0.00006174
     atom   13 type  1   force =     0.00000000    0.00000079    0.00007364
     atom   14 type  1   force =     0.00000000    0.00000426    0.00006130
     atom   15 type  2   force =     0.00000000    0.00000009   -0.00006100
     atom   16 type  2   force =     0.00000000    0.00000028   -0.00006055
     atom   17 type  1   force =     0.00000000    0.00000118    0.00005576
     atom   18 type  1   force =     0.00000000    0.00000083    0.00006450
     atom   19 type  2   force =     0.00000000    0.00000033   -0.00006160
     atom   20 type  2   force =     0.00000000    0.00000001   -0.00006131
     atom   21 type  1   force =     0.00000000    0.00000181    0.00005949
     atom   22 type  1   force =     0.00000000    0.00000341    0.00005313
     atom   23 type  2   force =     0.00000000    0.00000024   -0.00006151
     atom   24 type  2   force =     0.00000000   -0.00000008   -0.00006204
     atom   25 type  1   force =     0.00000000    0.00000076    0.00006941
     atom   26 type  1   force =     0.00000000   -0.00000171    0.00006291
     atom   27 type  2   force =     0.00000000   -0.00000019   -0.00006096
     atom   28 type  2   force =     0.00000000    0.00000005   -0.00006070
     atom   29 type  1   force =     0.00000000    0.00000033    0.00005892
     atom   30 type  1   force =     0.00000000   -0.00000033    0.00006364
     atom   31 type  2   force =     0.00000000   -0.00000001   -0.00006161
     atom   32 type  2   force =     0.00000000   -0.00000018   -0.00006140
     atom   33 type  1   force =     0.00000000    0.00000070    0.00005852
     atom   34 type  1   force =     0.00000000    0.00000088    0.00005298
     atom   35 type  2   force =     0.00000000   -0.00000005   -0.00006143
     atom   36 type  2   force =     0.00000000   -0.00000000   -0.00006161
     The non-local contrib.  to forces
     atom    1 type  1   force =     0.00000000   -0.00000095   -0.00482750
     atom    2 type  1   force =     0.00000000   -0.00000117   -0.00483187
     atom    3 type  2   force =     0.00000000    0.00000040    0.00575297
     atom    4 type  2   force =     0.00000000    0.00000070    0.00575030
     atom    5 type  1   force =     0.00000000   -0.00000081   -0.00483446
     atom    6 type  1   force =     0.00000000   -0.00000035   -0.00483084
     atom    7 type  2   force =     0.00000000    0.00000109    0.00575596
     atom    8 type  2   force =     0.00000000    0.00000005    0.00575529
     atom    9 type  1   force =     0.00000000   -0.00000150   -0.00483533
     atom   10 type  1   force =     0.00000000   -0.00000186   -0.00483714
     atom   11 type  2   force =     0.00000000    0.00000149    0.00575323
     atom   12 type  2   force =     0.00000000    0.00000061    0.00575521
     atom   13 type  1   force =     0.00000000    0.00000076   -0.00482748
     atom   14 type  1   force =     0.00000000    0.00000131   -0.00483266
     atom   15 type  2   force =     0.00000000    0.00000000    0.00575183
     atom   16 type  2   force =     0.00000000   -0.00000114    0.00575125
     atom   17 type  1   force =     0.00000000    0.00000077   -0.00483529
     atom   18 type  1   force =     0.00000000    0.00000052   -0.00483088
     atom   19 type  2   force =     0.00000000    0.00000008    0.00575688
     atom   20 type  2   force =     0.00000000   -0.00000074    0.00575564
     atom   21 type  1   force =     0.00000000    0.00000103   -0.00483469
     atom   22 type  1   force =     0.00000000    0.00000109   -0.00483764
     atom   23 type  2   force =     0.00000000   -0.00000043    0.00575302
     atom   24 type  2   force =     0.00000000   -0.00000120    0.00575465
     atom   25 type  1   force =     0.00000000    0.00000029   -0.00482885
     atom   26 type  1   force =     0.00000000   -0.00000039   -0.00483211
     atom   27 type  2   force =     0.00000000    0.00000002    0.00575294
     atom   28 type  2   force =     0.00000000   -0.00000003    0.00575143
     atom   29 type  1   force =     0.00000000    0.00000033   -0.00483471
     atom   30 type  1   force =     0.00000000   -0.00000008   -0.00483158
     atom   31 type  2   force =     0.00000000   -0.00000068    0.00575623
     atom   32 type  2   force =     0.00000000   -0.00000011    0.00575501
     atom   33 type  1   force =     0.00000000    0.00000077   -0.00483560
     atom   34 type  1   force =     0.00000000    0.00000066   -0.00483724
     atom   35 type  2   force =     0.00000000   -0.00000062    0.00575285
     atom   36 type  2   force =     0.00000000   -0.00000030    0.00575594
     The ionic contribution  to forces
     atom    1 type  1   force =     0.00000000    0.00000001    0.06271746
     atom    2 type  1   force =    -0.00000000    0.00000001    0.06271750
     atom    3 type  2   force =     0.00000000    0.00000000   -0.06271747
     atom    4 type  2   force =    -0.00000000    0.00000001   -0.06271748
     atom    5 type  1   force =     0.00000000    0.00000001    0.06271750
     atom    6 type  1   force =    -0.00000000    0.00000001    0.06271746
     atom    7 type  2   force =     0.00000000    0.00000000   -0.06271748
     atom    8 type  2   force =    -0.00000000    0.00000001   -0.06271746
     atom    9 type  1   force =     0.00000000    0.00000001    0.06271746
     atom   10 type  1   force =    -0.00000000    0.00000001    0.06271746
     atom   11 type  2   force =     0.00000000    0.00000000   -0.06271746
     atom   12 type  2   force =    -0.00000000    0.00000001   -0.06271747
     atom   13 type  1   force =    -0.00000001    0.00000001    0.06271746
     atom   14 type  1   force =     0.00000001   -0.00000001    0.06271749
     atom   15 type  2   force =    -0.00000000    0.00000000   -0.06271747
     atom   16 type  2   force =     0.00000000   -0.00000000   -0.06271748
     atom   17 type  1   force =    -0.00000001    0.00000001    0.06271749
     atom   18 type  1   force =     0.00000001   -0.00000001    0.06271745
     atom   19 type  2   force =    -0.00000000    0.00000000   -0.06271748
     atom   20 type  2   force =     0.00000000   -0.00000000   -0.06271746
     atom   21 type  1   force =    -0.00000001    0.00000001    0.06271745
     atom   22 type  1   force =     0.00000001   -0.00000001    0.06271746
     atom   23 type  2   force =    -0.00000000    0.00000000   -0.06271746
     atom   24 type  2   force =     0.00000000   -0.00000000   -0.06271747
     atom   25 type  1   force =     0.00000000   -0.00000001    0.06271746
     atom   26 type  1   force =    -0.00000000   -0.00000001    0.06271750
     atom   27 type  2   force =     0.00000000   -0.00000001   -0.06271747
     atom   28 type  2   force =    -0.00000000   -0.00000000   -0.06271748
     atom   29 type  1   force =     0.00000000   -0.00000001    0.06271750
     atom   30 type  1   force =    -0.00000000   -0.00000001    0.06271746
     atom   31 type  2   force =     0.00000000   -0.00000001   -0.06271748
     atom   32 type  2   force =    -0.00000000   -0.00000000   -0.06271746
     atom   33 type  1   force =     0.00000000   -0.00000001    0.06271746
     atom   34 type  1   force =    -0.00000000   -0.00000001    0.06271746
     atom   35 type  2   force =     0.00000000   -0.00000001   -0.06271746
     atom   36 type  2   force =    -0.00000000   -0.00000000   -0.06271747
     The local contribution  to forces
     atom    1 type  1   force =    -0.00000004    0.00000340   -0.05830303
     atom    2 type  1   force =     0.00000000    0.00000198   -0.05829066
     atom    3 type  2   force =    -0.00000001   -0.00000031    0.05696399
     atom    4 type  2   force =     0.00000000    0.00000187    0.05695897
     atom    5 type  1   force =    -0.00000004    0.00000213   -0.05828485
     atom    6 type  1   force =     0.00000000   -0.00000017   -0.05829185
     atom    7 type  2   force =    -0.00000001    0.00000187    0.05697127
     atom    8 type  2   force =     0.00000000    0.00000001    0.05696835
     atom    9 type  1   force =    -0.00000004    0.00000456   -0.05828288
     atom   10 type  1   force =     0.00000000    0.00000621   -0.05827592
     atom   11 type  2   force =    -0.00000001    0.00000127    0.05696513
     atom   12 type  2   force =     0.00000000    0.00000238    0.05696971
     atom   13 type  1   force =    -0.00000009   -0.00000137   -0.05830491
     atom   14 type  1   force =     0.00000009   -0.00000492   -0.05828841
     atom   15 type  2   force =    -0.00000002   -0.00000061    0.05696314
     atom   16 type  2   force =     0.00000002   -0.00000147    0.05695941
     atom   17 type  1   force =    -0.00000009   -0.00000170   -0.05828033
     atom   18 type  1   force =     0.00000009   -0.00000086   -0.05829232
     atom   19 type  2   force =    -0.00000002   -0.00000177    0.05697056
     atom   20 type  2   force =     0.00000002   -0.00000015    0.05696921
     atom   21 type  1   force =    -0.00000009   -0.00000270   -0.05828565
     atom   22 type  1   force =     0.00000009   -0.00000517   -0.05827617
     atom   23 type  2   force =    -0.00000002   -0.00000175    0.05696542
     atom   24 type  2   force =     0.00000002   -0.00000080    0.05696964
     atom   25 type  1   force =    -0.00000000   -0.00000181   -0.05830010
     atom   26 type  1   force =     0.00000004    0.00000295   -0.05829073
     atom   27 type  2   force =    -0.00000000    0.00000051    0.05696246
     atom   28 type  2   force =     0.00000001   -0.00000033    0.05696088
     atom   29 type  1   force =    -0.00000000   -0.00000070   -0.05828464
     atom   30 type  1   force =     0.00000004    0.00000072   -0.05829110
     atom   31 type  2   force =    -0.00000000   -0.00000166    0.05697055
     atom   32 type  2   force =     0.00000001    0.00000068    0.05696694
     atom   33 type  1   force =    -0.00000000   -0.00000196   -0.05828445
     atom   34 type  1   force =     0.00000004   -0.00000076   -0.05827576
     atom   35 type  2   force =    -0.00000000   -0.00000077    0.05696326
     atom   36 type  2   force =     0.00000001    0.00000015    0.05696913
     The core correction contribution to forces
     atom    1 type  1   force =    -0.00000001   -0.00000005    0.00046410
     atom    2 type  1   force =     0.00000000    0.00000005    0.00046405
     atom    3 type  2   force =     0.00000000   -0.00000001   -0.00006502
     atom    4 type  2   force =    -0.00000000   -0.00000001   -0.00006499
     atom    5 type  1   force =    -0.00000001   -0.00000000    0.00046400
     atom    6 type  1   force =     0.00000000    0.00000003    0.00046396
     atom    7 type  2   force =     0.00000000   -0.00000001   -0.00006504
     atom    8 type  2   force =    -0.00000000   -0.00000000   -0.00006504
     atom    9 type  1   force =    -0.00000001   -0.00000003    0.00046403
     atom   10 type  1   force =     0.00000000   -0.00000008    0.00046391
     atom   11 type  2   force =     0.00000000   -0.00000002   -0.00006502
     atom   12 type  2   force =    -0.00000000   -0.00000000   -0.00006503
     atom   13 type  1   force =    -0.00000001   -0.00000001    0.00046416
     atom   14 type  1   force =     0.00000001    0.00000005    0.00046401
     atom   15 type  2   force =     0.00000000   -0.00000000   -0.00006500
     atom   16 type  2   force =    -0.00000000    0.00000001   -0.00006500
     atom   17 type  1   force =    -0.00000001   -0.00000000    0.00046391
     atom   18 type  1   force =     0.00000001   -0.00000003    0.00046396
     atom   19 type  2   force =     0.00000000   -0.00000001   -0.00006506
     atom   20 type  2   force =    -0.00000000    0.00000001   -0.00006504
     atom   21 type  1   force =    -0.00000001    0.00000002    0.00046409
     atom   22 type  1   force =     0.00000001    0.00000012    0.00046397
     atom   23 type  2   force =     0.00000000    0.00000000   -0.00006501
     atom   24 type  2   force =    -0.00000000    0.00000001   -0.00006503
     atom   25 type  1   force =    -0.00000000    0.00000007    0.00046414
     atom   26 type  1   force =     0.00000001   -0.00000011    0.00046407
     atom   27 type  2   force =     0.00000000    0.00000000   -0.00006502
     atom   28 type  2   force =    -0.00000000   -0.00000000   -0.00006500
     atom   29 type  1   force =    -0.00000000   -0.00000000    0.00046404
     atom   30 type  1   force =     0.00000001   -0.00000002    0.00046398
     atom   31 type  2   force =     0.00000000    0.00000001   -0.00006505
     atom   32 type  2   force =    -0.00000000    0.00000000   -0.00006504
     atom   33 type  1   force =    -0.00000000    0.00000003    0.00046415
     atom   34 type  1   force =     0.00000001   -0.00000005    0.00046391
     atom   35 type  2   force =     0.00000000    0.00000001   -0.00006502
     atom   36 type  2   force =    -0.00000000    0.00000000   -0.00006504
     The Hubbard contrib.    to forces
     atom    1 type  1   force =     0.00000000    0.00000000    0.00000000
     atom    2 type  1   force =     0.00000000    0.00000000    0.00000000
     atom    3 type  2   force =     0.00000000    0.00000000    0.00000000
     atom    4 type  2   force =     0.00000000    0.00000000    0.00000000
     atom    5 type  1   force =     0.00000000    0.00000000    0.00000000
     atom    6 type  1   force =     0.00000000    0.00000000    0.00000000
     atom    7 type  2   force =     0.00000000    0.00000000    0.00000000
     atom    8 type  2   force =     0.00000000    0.00000000    0.00000000
     atom    9 type  1   force =     0.00000000    0.00000000    0.00000000
     atom   10 type  1   force =     0.00000000    0.00000000    0.00000000
     atom   11 type  2   force =     0.00000000    0.00000000    0.00000000
     atom   12 type  2   force =     0.00000000    0.00000000    0.00000000
     atom   13 type  1   force =     0.00000000    0.00000000    0.00000000
     atom   14 type  1   force =     0.00000000    0.00000000    0.00000000
     atom   15 type  2   force =     0.00000000    0.00000000    0.00000000
     atom   16 type  2   force =     0.00000000    0.00000000    0.00000000
     atom   17 type  1   force =     0.00000000    0.00000000    0.00000000
     atom   18 type  1   force =     0.00000000    0.00000000    0.00000000
     atom   19 type  2   force =     0.00000000    0.00000000    0.00000000
     atom   20 type  2   force =     0.00000000    0.00000000    0.00000000
     atom   21 type  1   force =     0.00000000    0.00000000    0.00000000
     atom   22 type  1   force =     0.00000000    0.00000000    0.00000000
     atom   23 type  2   force =     0.00000000    0.00000000    0.00000000
     atom   24 type  2   force =     0.00000000    0.00000000    0.00000000
     atom   25 type  1   force =     0.00000000    0.00000000    0.00000000
     atom   26 type  1   force =     0.00000000    0.00000000    0.00000000
     atom   27 type  2   force =     0.00000000    0.00000000    0.00000000
     atom   28 type  2   force =     0.00000000    0.00000000    0.00000000
     atom   29 type  1   force =     0.00000000    0.00000000    0.00000000
     atom   30 type  1   force =     0.00000000    0.00000000    0.00000000
     atom   31 type  2   force =     0.00000000    0.00000000    0.00000000
     atom   32 type  2   force =     0.00000000    0.00000000    0.00000000
     atom   33 type  1   force =     0.00000000    0.00000000    0.00000000
     atom   34 type  1   force =     0.00000000    0.00000000    0.00000000
     atom   35 type  2   force =     0.00000000    0.00000000    0.00000000
     atom   36 type  2   force =     0.00000000    0.00000000    0.00000000
     The SCF correction term to forces
     atom    1 type  1   force =     0.00000000   -0.00000505    0.00001966
     atom    2 type  1   force =     0.00000000   -0.00000250    0.00000167
     atom    3 type  2   force =    -0.00000000    0.00000017    0.00000290
     atom    4 type  2   force =    -0.00000000   -0.00000284    0.00001093
     atom    5 type  1   force =     0.00000000   -0.00000305   -0.00000444
     atom    6 type  1   force =     0.00000000    0.00000100    0.00000379
     atom    7 type  2   force =    -0.00000000   -0.00000297   -0.00000811
     atom    8 type  2   force =    -0.00000000   -0.00000030   -0.00000423
     atom    9 type  1   force =     0.00000000   -0.00000657   -0.00000701
     atom   10 type  1   force =     0.00000000   -0.00000871   -0.00001704
     atom   11 type  2   force =    -0.00000000   -0.00000278    0.00000101
     atom   12 type  2   force =    -0.00000000   -0.00000311   -0.00000584
     atom   13 type  1   force =     0.00000000    0.00000136    0.00002272
     atom   14 type  1   force =    -0.00000000    0.00000779   -0.00000083
     atom   15 type  2   force =    -0.00000000    0.00000066    0.00000482
     atom   16 type  2   force =     0.00000000    0.00000283    0.00000958
     atom   17 type  1   force =     0.00000000    0.00000207   -0.00001170
     atom   18 type  1   force =    -0.00000000    0.00000116    0.00000459
     atom   19 type  2   force =    -0.00000000    0.00000199   -0.00000819
     atom   20 type  2   force =     0.00000000    0.00000086   -0.00000535
     atom   21 type  1   force =     0.00000000    0.00000343   -0.00000340
     atom   22 type  1   force =    -0.00000000    0.00000734   -0.00001618
     atom   23 type  2   force =    -0.00000000    0.00000238    0.00000083
     atom   24 type  2   force =     0.00000000    0.00000187   -0.00000551
     atom   25 type  1   force =    -0.00000000    0.00000218    0.00001507
     atom   26 type  1   force =    -0.00000000   -0.00000419    0.00000250
     atom   27 type  2   force =     0.00000000   -0.00000075    0.00000445
     atom   28 type  2   force =     0.00000000    0.00000038    0.00000778
     atom   29 type  1   force =    -0.00000000    0.00000067   -0.00000496
     atom   30 type  1   force =    -0.00000000   -0.00000099    0.00000319
     atom   31 type  2   force =     0.00000000    0.00000229   -0.00000755
     atom   32 type  2   force =     0.00000000   -0.00000078   -0.00000255
     atom   33 type  1   force =    -0.00000000    0.00000185   -0.00000472
     atom   34 type  1   force =    -0.00000000    0.00000100   -0.00001707
     atom   35 type  2   force =     0.00000000    0.00000131    0.00000325
     atom   36 type  2   force =     0.00000000    0.00000011   -0.00000585

     Total force =     0.000369     Total SCF correction =     0.000058
     SCF correction compared to forces is large: reduce conv_thr to get better values

     init_run     :     19.93s CPU     15.19s WALL (       1 calls)
     electrons    :   1324.75s CPU    716.63s WALL (       1 calls)
     forces       :     11.48s CPU      7.80s WALL (       1 calls)

     Called by init_run:
     wfcinit      :     11.44s CPU      6.64s WALL (       1 calls)
     wfcinit:atom :      0.14s CPU      0.12s WALL (       3 calls)
     wfcinit:wfcr :     10.77s CPU      6.05s WALL (       3 calls)
     potinit      :      3.95s CPU      4.02s WALL (       1 calls)
     hinit0       :      3.95s CPU      3.98s WALL (       1 calls)

     Called by electrons:
     c_bands      :   1206.50s CPU    630.20s WALL (      29 calls)
     sum_band     :     96.88s CPU     66.76s WALL (      29 calls)
     v_of_rho     :      8.62s CPU      8.99s WALL (      30 calls)
     v_h          :      0.50s CPU      0.54s WALL (      30 calls)
     v_xc         :      8.37s CPU      8.70s WALL (      31 calls)
     newd         :     10.68s CPU      9.12s WALL (      30 calls)
     mix_rho      :      1.94s CPU      1.42s WALL (      29 calls)

     Called by c_bands:
     init_us_2    :      4.14s CPU      2.94s WALL (     180 calls)
     init_us_2:cp :      4.13s CPU      2.94s WALL (     180 calls)
     cegterg      :   1151.08s CPU    580.86s WALL (      87 calls)

     Called by sum_band:
     sum_band:wei :      0.01s CPU      0.01s WALL (      29 calls)
     sum_band:loo :     79.55s CPU     55.36s WALL (      29 calls)
     sum_band:buf :      0.61s CPU      0.43s WALL (      87 calls)
     sum_band:ini :      2.02s CPU      1.37s WALL (      87 calls)
     sum_band:cal :     30.19s CPU      8.10s WALL (      87 calls)
     sum_band:bec :      0.20s CPU      0.13s WALL (      87 calls)
     addusdens    :     13.08s CPU      8.58s WALL (      29 calls)
                                        0.00s GPU  (      29 calls)
     addusd:skk   :      0.29s CPU      0.24s WALL (      58 calls)
                                        0.00s GPU  (      58 calls)

     Called by *egterg:
     cdiaghg      :    132.82s CPU     78.63s WALL (     686 calls)
     cegterg:over :    113.42s CPU     32.56s WALL (     599 calls)
     cegterg:upda :     73.19s CPU     20.24s WALL (     599 calls)
     cegterg:last :    164.66s CPU     45.76s WALL (     298 calls)
     cdiaghg:chol :      2.58s CPU      1.69s WALL (     686 calls)
     cdiaghg:inve :      1.71s CPU      0.71s WALL (     686 calls)
     cdiaghg:para :     17.25s CPU      7.57s WALL (    1372 calls)
     h_psi        :    532.93s CPU    365.66s WALL (     689 calls)
     s_psi        :    111.22s CPU     29.37s WALL (     689 calls)
     g_psi        :      2.85s CPU      1.73s WALL (     599 calls)

     Called by h_psi:
     h_psi:calbec :    109.39s CPU     31.31s WALL (     689 calls)
     vloc_psi     :    309.67s CPU    301.59s WALL (     689 calls)
     add_vuspsi   :    111.24s CPU     29.62s WALL (     689 calls)

     General routines
     calbec       :    143.84s CPU     40.53s WALL (     788 calls)
     fft          :      5.76s CPU      5.80s WALL (     399 calls)
     ffts         :      0.47s CPU      0.40s WALL (      59 calls)
     fftw         :    295.04s CPU    287.20s WALL (  115196 calls)
     interpolate  :      0.59s CPU      0.63s WALL (      30 calls)

     Parallel routines

     PWSCF        :  22m36.72s CPU  12m20.16s WALL


   This run was terminated on:   2: 9:23  25Jul2025            

=------------------------------------------------------------------------------=
   JOB DONE.
=------------------------------------------------------------------------------=
Note: The following floating-point exceptions are signalling: IEEE_INVALID_FLAG
Note: The following floating-point exceptions are signalling: IEEE_INVALID_FLAG
Note: The following floating-point exceptions are signalling: IEEE_DENORMAL
Note: The following floating-point exceptions are signalling: IEEE_INVALID_FLAG
Note: The following floating-point exceptions are signalling: IEEE_INVALID_FLAG
Note: The following floating-point exceptions are signalling: IEEE_DENORMAL
Note: The following floating-point exceptions are signalling: IEEE_DENORMAL
Note: The following floating-point exceptions are signalling: IEEE_DENORMAL
