
     Program PWSCF v.7.2 starts on 24Jun2025 at 20:15:39 

     This program is part of the open-source Quantum ESPRESSO suite
     for quantum simulation of materials; please cite
         "P. Giannozzi et al., J. Phys.:Condens. Matter 21 395502 (2009);
         "P. Giannozzi et al., J. Phys.:Condens. Matter 29 465901 (2017);
         "P. Giannozzi et al., J. Chem. Phys. 152 154105 (2020);
          URL http://www.quantum-espresso.org", 
     in publications or presentations arising from this work. More details at
     http://www.quantum-espresso.org/quote

     Parallel version (MPI), running on     8 processors

     MPI processes distributed on     1 nodes
     90659 MiB available memory on the printing compute node when the environment starts

     Reading input from /home/jvc/QEspresso7.2/ZnO_DataBase/scf_025_NOSYM.in/scf-6.67-1.68-0.25-5.in

     Current dimensions of program PWSCF are:
     Max number of different atomic species (ntypx) = 10
     Max number of k-points (npk) =  40000
     Max angular momentum in pseudopotentials (lmaxx) =  4
     file Zn.upf: wavefunction(s)  3D renormalized

     R & G space division:  proc/nbgrp/npool/nimage =       8
     Subspace diagonalization in iterative solution of the eigenvalue problem:
     a serial algorithm will be used


     Parallelization info
     --------------------
     sticks:   dense  smooth     PW     G-vecs:    dense   smooth      PW
     Min         154      75     23                 6952     2457     407
     Max         155      78     24                 6957     2461     412
     Sum        1237     613    187                55639    19669    3273

     Using Slab Decomposition



     bravais-lattice index     =            0
     lattice parameter (alat)  =       6.6731  a.u.
     unit-cell volume          =     411.7549 (a.u.)^3
     number of atoms/cell      =            4
     number of atomic types    =            2
     number of electrons       =        36.00
     number of Kohn-Sham states=           18
     kinetic-energy cutoff     =      50.0000  Ry
     charge density cutoff     =     400.0000  Ry
     scf convergence threshold =      1.0E-08
     mixing beta               =       0.3000
     number of iterations used =            8  plain     mixing
     Exchange-correlation= PBE
                           (   1   4   3   4   0   0   0)

     celldm(1)=   6.673127  celldm(2)=   0.000000  celldm(3)=   0.000000
     celldm(4)=   0.000000  celldm(5)=   0.000000  celldm(6)=   0.000000

     crystal axes: (cart. coord. in units of alat)
               a(1) = (   1.000000   0.000000   0.000000 )  
               a(2) = (  -0.500000   0.866025   0.000000 )  
               a(3) = (   0.000000   0.000000   1.600000 )  

     reciprocal axes: (cart. coord. in units 2 pi/alat)
               b(1) = (  1.000000  0.577350 -0.000000 )  
               b(2) = (  0.000000  1.154701  0.000000 )  
               b(3) = (  0.000000 -0.000000  0.625000 )  


     PseudoPot. # 1 for Zn read from file:
     ./pseudos/Zn.upf
     MD5 check sum: 7f56cabf9682ed8c977c2f7d0c5985c5
     Pseudo is Ultrasoft + core correction, Zval = 12.0
     Generated using &quot;atomic&quot; code by A. Dal Corso  v.6.2.2
     Using radial grid of 1201 points,  6 beta functions with: 
                l(1) =   0
                l(2) =   0
                l(3) =   1
                l(4) =   1
                l(5) =   2
                l(6) =   2
     Q(r) pseudized with 0 coefficients 


     PseudoPot. # 2 for O  read from file:
     ./pseudos/O.upf
     MD5 check sum: 91400c9766925bcf19f520983a725ff0
     Pseudo is Ultrasoft + core correction, Zval =  6.0
     Generated using &quot;atomic&quot; code by A. Dal Corso  v.6.3MaX
     Using radial grid of 1095 points,  4 beta functions with: 
                l(1) =   0
                l(2) =   0
                l(3) =   1
                l(4) =   1
     Q(r) pseudized with 0 coefficients 


     atomic species   valence    mass     pseudopotential
        Zn            12.00    63.38000     Zn( 1.00)
        O              6.00    15.99900     O ( 1.00)

     No symmetry found



   Cartesian axes

     site n.     atom                  positions (alat units)
         1           Zn  tau(   1) = (   0.1536994   0.4678241   0.4555686  )
         2           Zn  tau(   2) = (   0.0916267   0.5359681  -0.2660497  )
         3           O   tau(   3) = (   0.3490606   0.4493427   1.1672368  )
         4           O   tau(   4) = (  -0.2009959   0.5789221   0.8843740  )

     number of k points=   112

     Number of k-points >= 100: set verbosity='high' to print them.

     Dense  grid:    55639 G-vectors     FFT dimensions: (  45,  45,  72)

     Smooth grid:    19669 G-vectors     FFT dimensions: (  32,  32,  50)

     Estimated max dynamical RAM per process >      37.53 MB

     Estimated total dynamical RAM >     300.20 MB

     Check: negative core charge=   -0.000002

     Initial potential from superposition of free atoms

     starting charge      35.9925, renormalised to      36.0000
     Starting wfcs are   26 randomized atomic wfcs

     total cpu time spent up to now is        4.5 secs

     Self-consistent Calculation

     iteration #  1     ecut=    50.00 Ry     beta= 0.30
     Davidson diagonalization with overlap
     ethr =  1.00E-02,  avg # of iterations =  2.0

     total cpu time spent up to now is       10.7 secs

     total energy              =    -359.27638900 Ry
     estimated scf accuracy    <       1.86088415 Ry

     iteration #  2     ecut=    50.00 Ry     beta= 0.30
     Davidson diagonalization with overlap
     ethr =  5.17E-03,  avg # of iterations =  5.7

     total cpu time spent up to now is       19.2 secs

     total energy              =    -359.76995822 Ry
     estimated scf accuracy    <       0.16499280 Ry

     iteration #  3     ecut=    50.00 Ry     beta= 0.30
     Davidson diagonalization with overlap
     ethr =  4.58E-04,  avg # of iterations =  6.1

     total cpu time spent up to now is       28.3 secs

     total energy              =    -359.80163694 Ry
     estimated scf accuracy    <       0.10776513 Ry

     iteration #  4     ecut=    50.00 Ry     beta= 0.30
     Davidson diagonalization with overlap
     ethr =  2.99E-04,  avg # of iterations =  4.9

     total cpu time spent up to now is       35.7 secs

     total energy              =    -359.81918055 Ry
     estimated scf accuracy    <       0.01039560 Ry

     iteration #  5     ecut=    50.00 Ry     beta= 0.30
     Davidson diagonalization with overlap
     c_bands:  1 eigenvalues not converged
     c_bands:  1 eigenvalues not converged
     c_bands:  1 eigenvalues not converged
     ethr =  2.89E-05,  avg # of iterations = 10.2

     total cpu time spent up to now is       48.8 secs

     total energy              =    -359.82033495 Ry
     estimated scf accuracy    <       0.02914629 Ry

     iteration #  6     ecut=    50.00 Ry     beta= 0.30
     Davidson diagonalization with overlap
     ethr =  2.89E-05,  avg # of iterations =  7.2

     total cpu time spent up to now is       59.6 secs

     total energy              =    -359.82702443 Ry
     estimated scf accuracy    <       0.00193471 Ry

     iteration #  7     ecut=    50.00 Ry     beta= 0.30
     Davidson diagonalization with overlap
     c_bands:  1 eigenvalues not converged
     c_bands:  1 eigenvalues not converged
     c_bands:  1 eigenvalues not converged
     ethr =  5.37E-06,  avg # of iterations = 10.5

     total cpu time spent up to now is       70.8 secs

     total energy              =    -359.82470555 Ry
     estimated scf accuracy    <       0.00876853 Ry

     iteration #  8     ecut=    50.00 Ry     beta= 0.30
     Davidson diagonalization with overlap
     c_bands:  1 eigenvalues not converged
     ethr =  5.37E-06,  avg # of iterations = 10.7

     total cpu time spent up to now is       85.1 secs

     total energy              =    -359.82652483 Ry
     estimated scf accuracy    <       0.00183947 Ry

     iteration #  9     ecut=    50.00 Ry     beta= 0.30
     Davidson diagonalization with overlap
     ethr =  5.11E-06,  avg # of iterations =  4.7

     total cpu time spent up to now is       92.9 secs

     total energy              =    -359.82700999 Ry
     estimated scf accuracy    <       0.00002705 Ry

     iteration # 10     ecut=    50.00 Ry     beta= 0.30
     Davidson diagonalization with overlap
     c_bands:  1 eigenvalues not converged
     c_bands:  1 eigenvalues not converged
     c_bands:  1 eigenvalues not converged
     c_bands:  1 eigenvalues not converged
     c_bands:  1 eigenvalues not converged
     c_bands:  1 eigenvalues not converged
     c_bands:  1 eigenvalues not converged
     c_bands:  1 eigenvalues not converged
     c_bands:  1 eigenvalues not converged
     c_bands:  1 eigenvalues not converged
     c_bands:  2 eigenvalues not converged
     c_bands:  1 eigenvalues not converged
     c_bands:  1 eigenvalues not converged
     c_bands:  1 eigenvalues not converged
     c_bands:  1 eigenvalues not converged
     c_bands:  1 eigenvalues not converged
     c_bands:  1 eigenvalues not converged
     c_bands:  1 eigenvalues not converged
     c_bands:  1 eigenvalues not converged
     c_bands:  1 eigenvalues not converged
     c_bands:  1 eigenvalues not converged
     c_bands:  2 eigenvalues not converged
     c_bands:  1 eigenvalues not converged
     c_bands:  1 eigenvalues not converged
     c_bands:  1 eigenvalues not converged
     c_bands:  2 eigenvalues not converged
     ethr =  7.52E-08,  avg # of iterations = 16.3

     total cpu time spent up to now is      117.1 secs

     total energy              =    -359.82693240 Ry
     estimated scf accuracy    <       0.00158142 Ry

     iteration # 11     ecut=    50.00 Ry     beta= 0.30
     Davidson diagonalization with overlap
     c_bands:  1 eigenvalues not converged
     c_bands:  1 eigenvalues not converged
     c_bands:  1 eigenvalues not converged
     c_bands:  1 eigenvalues not converged
     c_bands:  1 eigenvalues not converged
     c_bands:  1 eigenvalues not converged
     c_bands:  1 eigenvalues not converged
     c_bands:  2 eigenvalues not converged
     c_bands:  1 eigenvalues not converged
     c_bands:  1 eigenvalues not converged
     c_bands:  1 eigenvalues not converged
     c_bands:  1 eigenvalues not converged
     c_bands:  1 eigenvalues not converged
     c_bands:  1 eigenvalues not converged
     ethr =  7.52E-08,  avg # of iterations = 14.2

     total cpu time spent up to now is      137.1 secs

     total energy              =    -359.82705707 Ry
     estimated scf accuracy    <       0.00006869 Ry

     iteration # 12     ecut=    50.00 Ry     beta= 0.30
     Davidson diagonalization with overlap
     ethr =  7.52E-08,  avg # of iterations =  8.8

     total cpu time spent up to now is      147.7 secs

     total energy              =    -359.82707141 Ry
     estimated scf accuracy    <       0.00000261 Ry

     iteration # 13     ecut=    50.00 Ry     beta= 0.30
     Davidson diagonalization with overlap
     c_bands:  1 eigenvalues not converged
     c_bands:  1 eigenvalues not converged
     c_bands:  1 eigenvalues not converged
     ethr =  7.24E-09,  avg # of iterations = 10.4

     total cpu time spent up to now is      158.9 secs

     total energy              =    -359.82707210 Ry
     estimated scf accuracy    <       0.00000344 Ry

     iteration # 14     ecut=    50.00 Ry     beta= 0.30
     Davidson diagonalization with overlap
     c_bands:  1 eigenvalues not converged
     ethr =  7.24E-09,  avg # of iterations =  6.9

     total cpu time spent up to now is      168.9 secs

     total energy              =    -359.82707277 Ry
     estimated scf accuracy    <       0.00000189 Ry

     iteration # 15     ecut=    50.00 Ry     beta= 0.30
     Davidson diagonalization with overlap
     ethr =  5.26E-09,  avg # of iterations =  2.2

     total cpu time spent up to now is      175.1 secs

     total energy              =    -359.82707256 Ry
     estimated scf accuracy    <       0.00000065 Ry

     iteration # 16     ecut=    50.00 Ry     beta= 0.30
     Davidson diagonalization with overlap
     ethr =  1.80E-09,  avg # of iterations =  7.9

     total cpu time spent up to now is      187.5 secs

     total energy              =    -359.82707317 Ry
     estimated scf accuracy    <       0.00000106 Ry

     iteration # 17     ecut=    50.00 Ry     beta= 0.30
     Davidson diagonalization with overlap
     ethr =  1.80E-09,  avg # of iterations =  1.1

     total cpu time spent up to now is      192.8 secs

     total energy              =    -359.82707309 Ry
     estimated scf accuracy    <       0.00000085 Ry

     iteration # 18     ecut=    50.00 Ry     beta= 0.30
     Davidson diagonalization with overlap
     ethr =  1.80E-09,  avg # of iterations =  1.2

     total cpu time spent up to now is      198.3 secs

     total energy              =    -359.82707310 Ry
     estimated scf accuracy    <       0.00000057 Ry

     iteration # 19     ecut=    50.00 Ry     beta= 0.30
     Davidson diagonalization with overlap
     ethr =  1.57E-09,  avg # of iterations =  1.0

     total cpu time spent up to now is      203.5 secs

     total energy              =    -359.82707303 Ry
     estimated scf accuracy    <       0.00000053 Ry

     iteration # 20     ecut=    50.00 Ry     beta= 0.30
     Davidson diagonalization with overlap
     ethr =  1.47E-09,  avg # of iterations =  1.2

     total cpu time spent up to now is      208.8 secs

     total energy              =    -359.82707301 Ry
     estimated scf accuracy    <       0.00000033 Ry

     iteration # 21     ecut=    50.00 Ry     beta= 0.30
     Davidson diagonalization with overlap
     ethr =  9.10E-10,  avg # of iterations =  2.2

     total cpu time spent up to now is      214.8 secs

     total energy              =    -359.82707299 Ry
     estimated scf accuracy    <       0.00000019 Ry

     iteration # 22     ecut=    50.00 Ry     beta= 0.30
     Davidson diagonalization with overlap
     ethr =  5.35E-10,  avg # of iterations =  5.6

     total cpu time spent up to now is      222.8 secs

     total energy              =    -359.82707304 Ry
     estimated scf accuracy    <       0.00000002 Ry

     iteration # 23     ecut=    50.00 Ry     beta= 0.30
     Davidson diagonalization with overlap
     c_bands:  1 eigenvalues not converged
     c_bands:  1 eigenvalues not converged
     c_bands:  1 eigenvalues not converged
     ethr =  6.65E-11,  avg # of iterations =  9.4

     total cpu time spent up to now is      235.0 secs

     total energy              =    -359.82707308 Ry
     estimated scf accuracy    <       0.00000013 Ry

     iteration # 24     ecut=    50.00 Ry     beta= 0.30
     Davidson diagonalization with overlap
     ethr =  6.65E-11,  avg # of iterations =  2.0

     total cpu time spent up to now is      240.8 secs

     total energy              =    -359.82707303 Ry
     estimated scf accuracy    <       0.00000016 Ry

     iteration # 25     ecut=    50.00 Ry     beta= 0.30
     Davidson diagonalization with overlap
     ethr =  6.65E-11,  avg # of iterations =  6.2

     total cpu time spent up to now is      250.0 secs

     total energy              =    -359.82707305 Ry
     estimated scf accuracy    <       0.00000002 Ry

     iteration # 26     ecut=    50.00 Ry     beta= 0.30
     Davidson diagonalization with overlap
     ethr =  5.90E-11,  avg # of iterations =  1.1

     total cpu time spent up to now is      255.2 secs

     total energy              =    -359.82707304 Ry
     estimated scf accuracy    <       0.00000002 Ry

     iteration # 27     ecut=    50.00 Ry     beta= 0.30
     Davidson diagonalization with overlap
     ethr =  5.64E-11,  avg # of iterations =  3.3

     total cpu time spent up to now is      261.9 secs

     End of self-consistent calculation

     Number of k-points >= 100: set verbosity='high' to print the bands.

     highest occupied level (ev):     5.7701

!    total energy              =    -359.82707304 Ry
     estimated scf accuracy    <          4.1E-09 Ry

     The total energy is the sum of the following terms:
     one-electron contribution =    -220.12942675 Ry
     hartree contribution      =     145.92835962 Ry
     xc contribution           =    -109.59603213 Ry
     ewald contribution        =    -176.02997378 Ry

     convergence has been achieved in  27 iterations

     Forces acting on atoms (cartesian axes, Ry/au):

     atom    1 type  1   force =    -0.01723848    0.00201908    0.03039397
     atom    2 type  1   force =    -3.15872240    1.04543270    2.06776084
     atom    3 type  2   force =     3.19467300   -1.04242604   -1.99210293
     atom    4 type  2   force =    -0.01871212   -0.00502574   -0.10605189
     The non-local contrib.  to forces
     atom    1 type  1   force =     0.32432691   -0.12867674    0.03356532
     atom    2 type  1   force =    -0.00822175   -0.16284797    0.02256324
     atom    3 type  2   force =    -0.52106134    0.20724335    0.69090729
     atom    4 type  2   force =     0.35119858   -0.23387937   -0.08240582
     The ionic contribution  to forces
     atom    1 type  1   force =     2.26738725   -1.29044874   -7.21181252
     atom    2 type  1   force =   -18.75586074    7.24565994   23.40408061
     atom    3 type  2   force =    20.87687083   -7.91948477  -10.47414491
     atom    4 type  2   force =    -4.38839734    1.96427357   -5.71812319
     The local contribution  to forces
     atom    1 type  1   force =    -2.58987041    1.41420964    7.20179158
     atom    2 type  1   force =    15.37149194   -5.96624315  -21.19815743
     atom    3 type  2   force =   -17.15192164    6.66689073    7.78877377
     atom    4 type  2   force =     4.02073986   -1.73733961    5.69265356
     The core correction contribution to forces
     atom    1 type  1   force =    -0.01907604    0.00694075    0.00691092
     atom    2 type  1   force =     0.23370975   -0.07108168   -0.16070546
     atom    3 type  2   force =    -0.00919345    0.00292490    0.00230213
     atom    4 type  2   force =    -0.00221035    0.00191423    0.00176179
     The Hubbard contrib.    to forces
     atom    1 type  1   force =     0.00000000    0.00000000    0.00000000
     atom    2 type  1   force =     0.00000000    0.00000000    0.00000000
     atom    3 type  2   force =     0.00000000    0.00000000    0.00000000
     atom    4 type  2   force =     0.00000000    0.00000000    0.00000000
     The SCF correction term to forces
     atom    1 type  1   force =     0.00002197   -0.00001471   -0.00008962
     atom    2 type  1   force =     0.00018657   -0.00006332   -0.00004842
     atom    3 type  2   force =     0.00000676   -0.00000913    0.00003049
     atom    4 type  2   force =    -0.00001471   -0.00000344    0.00003348

     Total force =     5.533534     Total SCF correction =     0.000229

     Writing all to output data dir ./ZnO_ANN.save/

     init_run     :      3.94s CPU      4.03s WALL (       1 calls)
     electrons    :    252.93s CPU    257.40s WALL (       1 calls)
     forces       :      1.40s CPU      1.41s WALL (       1 calls)

     Called by init_run:
     wfcinit      :      2.91s CPU      2.95s WALL (       1 calls)
     potinit      :      0.37s CPU      0.37s WALL (       1 calls)
     hinit0       :      0.57s CPU      0.58s WALL (       1 calls)

     Called by electrons:
     c_bands      :    228.00s CPU    231.92s WALL (      27 calls)
     sum_band     :     22.18s CPU     22.65s WALL (      27 calls)
     v_of_rho     :      0.58s CPU      0.61s WALL (      28 calls)
     newd         :      2.10s CPU      2.15s WALL (      28 calls)
     mix_rho      :      0.09s CPU      0.10s WALL (      27 calls)

     Called by c_bands:
     init_us_2    :      1.85s CPU      1.88s WALL (    6272 calls)
     init_us_2:cp :      1.82s CPU      1.86s WALL (    6272 calls)
     cegterg      :    222.29s CPU    226.12s WALL (    3024 calls)

     Called by *egterg:
     cdiaghg      :     24.43s CPU     24.63s WALL (   21312 calls)
     h_psi        :    124.63s CPU    127.47s WALL (   21424 calls)
     s_psi        :     17.58s CPU     17.71s WALL (   21424 calls)
     g_psi        :      0.48s CPU      0.49s WALL (   18288 calls)

     Called by h_psi:
     h_psi:calbec :     18.74s CPU     19.34s WALL (   21424 calls)
     vloc_psi     :     87.83s CPU     89.92s WALL (   21424 calls)
     add_vuspsi   :     17.60s CPU     17.75s WALL (   21424 calls)

     General routines
     calbec       :     24.66s CPU     25.40s WALL (   24896 calls)
     fft          :      0.60s CPU      0.65s WALL (     373 calls)
     ffts         :      0.13s CPU      0.13s WALL (      55 calls)
     fftw         :     84.93s CPU     86.95s WALL (  430918 calls)
     interpolate  :      0.15s CPU      0.16s WALL (      28 calls)

     Parallel routines

     PWSCF        :   4m19.05s CPU   4m23.92s WALL


   This run was terminated on:  20:20: 3  24Jun2025            

=------------------------------------------------------------------------------=
   JOB DONE.
=------------------------------------------------------------------------------=
Note: The following floating-point exceptions are signalling: IEEE_INVALID_FLAG
