
     Program PWSCF v.7.2 starts on 24Jun2025 at 15:42: 7 

     This program is part of the open-source Quantum ESPRESSO suite
     for quantum simulation of materials; please cite
         "P. Giannozzi et al., J. Phys.:Condens. Matter 21 395502 (2009);
         "P. Giannozzi et al., J. Phys.:Condens. Matter 29 465901 (2017);
         "P. Giannozzi et al., J. Chem. Phys. 152 154105 (2020);
          URL http://www.quantum-espresso.org", 
     in publications or presentations arising from this work. More details at
     http://www.quantum-espresso.org/quote

     Parallel version (MPI), running on     8 processors

     MPI processes distributed on     1 nodes
     91160 MiB available memory on the printing compute node when the environment starts

     Reading input from /home/jvc/QEspresso7.2/ZnO_DataBase/scf_025_NOSYM.in/scf-5.93-1.45-0.25-5.in

     Current dimensions of program PWSCF are:
     Max number of different atomic species (ntypx) = 10
     Max number of k-points (npk) =  40000
     Max angular momentum in pseudopotentials (lmaxx) =  4
     file Zn.upf: wavefunction(s)  3D renormalized

     R & G space division:  proc/nbgrp/npool/nimage =       8
     Subspace diagonalization in iterative solution of the eigenvalue problem:
     a serial algorithm will be used


     Parallelization info
     --------------------
     sticks:   dense  smooth     PW     G-vecs:    dense   smooth      PW
     Min         119      62     18                 4887     1734     288
     Max         120      63     19                 4898     1737     293
     Sum         955     499    151                39127    13885    2333

     Using Slab Decomposition



     bravais-lattice index     =            0
     lattice parameter (alat)  =       5.9317  a.u.
     unit-cell volume          =     289.1886 (a.u.)^3
     number of atoms/cell      =            4
     number of atomic types    =            2
     number of electrons       =        36.00
     number of Kohn-Sham states=           18
     kinetic-energy cutoff     =      50.0000  Ry
     charge density cutoff     =     400.0000  Ry
     scf convergence threshold =      1.0E-08
     mixing beta               =       0.3000
     number of iterations used =            8  plain     mixing
     Exchange-correlation= PBE
                           (   1   4   3   4   0   0   0)

     celldm(1)=   5.931669  celldm(2)=   0.000000  celldm(3)=   0.000000
     celldm(4)=   0.000000  celldm(5)=   0.000000  celldm(6)=   0.000000

     crystal axes: (cart. coord. in units of alat)
               a(1) = (   1.000000   0.000000   0.000000 )  
               a(2) = (  -0.500000   0.866025   0.000000 )  
               a(3) = (   0.000000   0.000000   1.600000 )  

     reciprocal axes: (cart. coord. in units 2 pi/alat)
               b(1) = (  1.000000  0.577350 -0.000000 )  
               b(2) = (  0.000000  1.154701  0.000000 )  
               b(3) = (  0.000000 -0.000000  0.625000 )  


     PseudoPot. # 1 for Zn read from file:
     ./pseudos/Zn.upf
     MD5 check sum: 7f56cabf9682ed8c977c2f7d0c5985c5
     Pseudo is Ultrasoft + core correction, Zval = 12.0
     Generated using &quot;atomic&quot; code by A. Dal Corso  v.6.2.2
     Using radial grid of 1201 points,  6 beta functions with: 
                l(1) =   0
                l(2) =   0
                l(3) =   1
                l(4) =   1
                l(5) =   2
                l(6) =   2
     Q(r) pseudized with 0 coefficients 


     PseudoPot. # 2 for O  read from file:
     ./pseudos/O.upf
     MD5 check sum: 91400c9766925bcf19f520983a725ff0
     Pseudo is Ultrasoft + core correction, Zval =  6.0
     Generated using &quot;atomic&quot; code by A. Dal Corso  v.6.3MaX
     Using radial grid of 1095 points,  4 beta functions with: 
                l(1) =   0
                l(2) =   0
                l(3) =   1
                l(4) =   1
     Q(r) pseudized with 0 coefficients 


     atomic species   valence    mass     pseudopotential
        Zn            12.00    63.38000     Zn( 1.00)
        O              6.00    15.99900     O ( 1.00)

     No symmetry found



   Cartesian axes

     site n.     atom                  positions (alat units)
         1           Zn  tau(   1) = (   0.5713786   0.2126204   0.8316888  )
         2           Zn  tau(   2) = (  -0.1501234   0.5637843  -0.2417913  )
         3           O   tau(   3) = (   0.4614002   0.4878675   1.0593719  )
         4           O   tau(   4) = (   0.0580244   0.6225992   0.6385047  )

     number of k points=   112

     Number of k-points >= 100: set verbosity='high' to print them.

     Dense  grid:    39127 G-vectors     FFT dimensions: (  40,  40,  64)

     Smooth grid:    13885 G-vectors     FFT dimensions: (  27,  27,  45)

     Estimated max dynamical RAM per process >      27.34 MB

     Estimated total dynamical RAM >     218.72 MB

     Check: negative core charge=   -0.000002

     Initial potential from superposition of free atoms

     starting charge      35.9925, renormalised to      36.0000
     Starting wfcs are   26 randomized atomic wfcs

     total cpu time spent up to now is        3.8 secs

     Self-consistent Calculation

     iteration #  1     ecut=    50.00 Ry     beta= 0.30
     Davidson diagonalization with overlap
     ethr =  1.00E-02,  avg # of iterations =  2.7

     total cpu time spent up to now is        9.1 secs

     total energy              =    -359.42394457 Ry
     estimated scf accuracy    <       1.73733139 Ry

     iteration #  2     ecut=    50.00 Ry     beta= 0.30
     Davidson diagonalization with overlap
     ethr =  4.83E-03,  avg # of iterations =  3.5

     total cpu time spent up to now is       15.0 secs

     total energy              =    -359.63477684 Ry
     estimated scf accuracy    <       0.17210098 Ry

     iteration #  3     ecut=    50.00 Ry     beta= 0.30
     Davidson diagonalization with overlap
     c_bands:  1 eigenvalues not converged
     ethr =  4.78E-04,  avg # of iterations = 12.3

     total cpu time spent up to now is       27.7 secs

     total energy              =    -359.90812561 Ry
     estimated scf accuracy    <       0.71101852 Ry

     iteration #  4     ecut=    50.00 Ry     beta= 0.30
     Davidson diagonalization with overlap
     ethr =  4.78E-04,  avg # of iterations =  1.3

     total cpu time spent up to now is       32.1 secs

     total energy              =    -359.53884347 Ry
     estimated scf accuracy    <       0.59825592 Ry

     iteration #  5     ecut=    50.00 Ry     beta= 0.30
     Davidson diagonalization with overlap
     c_bands:  1 eigenvalues not converged
     ethr =  4.78E-04,  avg # of iterations = 12.5

     total cpu time spent up to now is       46.7 secs

     total energy              =    -359.78222353 Ry
     estimated scf accuracy    <       0.86452200 Ry

     iteration #  6     ecut=    50.00 Ry     beta= 0.30
     Davidson diagonalization with overlap
     ethr =  4.78E-04,  avg # of iterations =  5.9

     total cpu time spent up to now is       53.7 secs

     total energy              =    -359.91200455 Ry
     estimated scf accuracy    <       0.12893845 Ry

     iteration #  7     ecut=    50.00 Ry     beta= 0.30
     Davidson diagonalization with overlap
     ethr =  3.58E-04,  avg # of iterations =  3.8

     total cpu time spent up to now is       59.2 secs

     total energy              =    -359.83718642 Ry
     estimated scf accuracy    <       0.34093918 Ry

     iteration #  8     ecut=    50.00 Ry     beta= 0.30
     Davidson diagonalization with overlap
     ethr =  3.58E-04,  avg # of iterations =  2.4

     total cpu time spent up to now is       64.0 secs

     total energy              =    -359.78870771 Ry
     estimated scf accuracy    <       0.16764832 Ry

     iteration #  9     ecut=    50.00 Ry     beta= 0.30
     Davidson diagonalization with overlap
     ethr =  3.58E-04,  avg # of iterations =  6.7

     total cpu time spent up to now is       70.7 secs

     total energy              =    -359.83182356 Ry
     estimated scf accuracy    <       0.00557526 Ry

     iteration # 10     ecut=    50.00 Ry     beta= 0.30
     Davidson diagonalization with overlap
     c_bands:  1 eigenvalues not converged
     c_bands:  2 eigenvalues not converged
     c_bands:  3 eigenvalues not converged
     c_bands:  1 eigenvalues not converged
     ethr =  1.55E-05,  avg # of iterations = 10.4

     total cpu time spent up to now is       81.7 secs

     total energy              =    -359.83718781 Ry
     estimated scf accuracy    <       0.05820547 Ry

     iteration # 11     ecut=    50.00 Ry     beta= 0.30
     Davidson diagonalization with overlap
     ethr =  1.55E-05,  avg # of iterations =  2.7

     total cpu time spent up to now is       86.6 secs

     total energy              =    -359.82772733 Ry
     estimated scf accuracy    <       0.04135734 Ry

     iteration # 12     ecut=    50.00 Ry     beta= 0.30
     Davidson diagonalization with overlap
     c_bands:  1 eigenvalues not converged
     c_bands:  1 eigenvalues not converged
     c_bands:  1 eigenvalues not converged
     ethr =  1.55E-05,  avg # of iterations =  9.9

     total cpu time spent up to now is       95.5 secs

     total energy              =    -359.83354675 Ry
     estimated scf accuracy    <       0.00125823 Ry

     iteration # 13     ecut=    50.00 Ry     beta= 0.30
     Davidson diagonalization with overlap
     ethr =  3.50E-06,  avg # of iterations =  3.3

     total cpu time spent up to now is      100.5 secs

     total energy              =    -359.83358426 Ry
     estimated scf accuracy    <       0.00073444 Ry

     iteration # 14     ecut=    50.00 Ry     beta= 0.30
     Davidson diagonalization with overlap
     ethr =  2.04E-06,  avg # of iterations =  5.5

     total cpu time spent up to now is      106.9 secs

     total energy              =    -359.83368584 Ry
     estimated scf accuracy    <       0.00077146 Ry

     iteration # 15     ecut=    50.00 Ry     beta= 0.30
     Davidson diagonalization with overlap
     ethr =  2.04E-06,  avg # of iterations =  1.3

     total cpu time spent up to now is      111.2 secs

     total energy              =    -359.83338140 Ry
     estimated scf accuracy    <       0.00057609 Ry

     iteration # 16     ecut=    50.00 Ry     beta= 0.30
     Davidson diagonalization with overlap
     ethr =  1.60E-06,  avg # of iterations =  8.5

     total cpu time spent up to now is      119.3 secs

     total energy              =    -359.83356170 Ry
     estimated scf accuracy    <       0.00069809 Ry

     iteration # 17     ecut=    50.00 Ry     beta= 0.30
     Davidson diagonalization with overlap
     ethr =  1.60E-06,  avg # of iterations =  3.5

     total cpu time spent up to now is      124.4 secs

     total energy              =    -359.83359422 Ry
     estimated scf accuracy    <       0.00013258 Ry

     iteration # 18     ecut=    50.00 Ry     beta= 0.30
     Davidson diagonalization with overlap
     c_bands:  1 eigenvalues not converged
     ethr =  3.68E-07,  avg # of iterations =  6.9

     total cpu time spent up to now is      131.6 secs

     total energy              =    -359.83368081 Ry
     estimated scf accuracy    <       0.00002093 Ry

     iteration # 19     ecut=    50.00 Ry     beta= 0.30
     Davidson diagonalization with overlap
     c_bands:  2 eigenvalues not converged
     c_bands:  1 eigenvalues not converged
     c_bands:  1 eigenvalues not converged
     c_bands:  1 eigenvalues not converged
     c_bands:  1 eigenvalues not converged
     c_bands:  1 eigenvalues not converged
     c_bands:  1 eigenvalues not converged
     ethr =  5.81E-08,  avg # of iterations = 12.3

     total cpu time spent up to now is      142.2 secs

     total energy              =    -359.83365020 Ry
     estimated scf accuracy    <       0.00035420 Ry

     iteration # 20     ecut=    50.00 Ry     beta= 0.30
     Davidson diagonalization with overlap
     c_bands:  1 eigenvalues not converged
     ethr =  5.81E-08,  avg # of iterations =  8.7

     total cpu time spent up to now is      150.4 secs

     total energy              =    -359.83365338 Ry
     estimated scf accuracy    <       0.00006798 Ry

     iteration # 21     ecut=    50.00 Ry     beta= 0.30
     Davidson diagonalization with overlap
     ethr =  5.81E-08,  avg # of iterations =  6.7

     total cpu time spent up to now is      156.7 secs

     total energy              =    -359.83365935 Ry
     estimated scf accuracy    <       0.00000826 Ry

     iteration # 22     ecut=    50.00 Ry     beta= 0.30
     Davidson diagonalization with overlap
     ethr =  2.29E-08,  avg # of iterations =  3.3

     total cpu time spent up to now is      161.8 secs

     total energy              =    -359.83365994 Ry
     estimated scf accuracy    <       0.00000443 Ry

     iteration # 23     ecut=    50.00 Ry     beta= 0.30
     Davidson diagonalization with overlap
     ethr =  1.23E-08,  avg # of iterations =  2.3

     total cpu time spent up to now is      166.5 secs

     total energy              =    -359.83366015 Ry
     estimated scf accuracy    <       0.00000300 Ry

     iteration # 24     ecut=    50.00 Ry     beta= 0.30
     Davidson diagonalization with overlap
     ethr =  8.34E-09,  avg # of iterations =  1.5

     total cpu time spent up to now is      170.9 secs

     total energy              =    -359.83366021 Ry
     estimated scf accuracy    <       0.00000258 Ry

     iteration # 25     ecut=    50.00 Ry     beta= 0.30
     Davidson diagonalization with overlap
     ethr =  7.17E-09,  avg # of iterations =  1.3

     total cpu time spent up to now is      175.3 secs

     total energy              =    -359.83366002 Ry
     estimated scf accuracy    <       0.00000231 Ry

     iteration # 26     ecut=    50.00 Ry     beta= 0.30
     Davidson diagonalization with overlap
     ethr =  6.41E-09,  avg # of iterations =  1.6

     total cpu time spent up to now is      179.7 secs

     total energy              =    -359.83365963 Ry
     estimated scf accuracy    <       0.00000153 Ry

     iteration # 27     ecut=    50.00 Ry     beta= 0.30
     Davidson diagonalization with overlap
     ethr =  4.25E-09,  avg # of iterations =  6.9

     total cpu time spent up to now is      186.2 secs

     total energy              =    -359.83366007 Ry
     estimated scf accuracy    <       0.00000009 Ry

     iteration # 28     ecut=    50.00 Ry     beta= 0.30
     Davidson diagonalization with overlap
     ethr =  2.48E-10,  avg # of iterations =  6.9

     total cpu time spent up to now is      193.2 secs

     total energy              =    -359.83366009 Ry
     estimated scf accuracy    <       0.00000006 Ry

     iteration # 29     ecut=    50.00 Ry     beta= 0.30
     Davidson diagonalization with overlap
     ethr =  1.73E-10,  avg # of iterations =  7.2

     total cpu time spent up to now is      200.1 secs

     total energy              =    -359.83366011 Ry
     estimated scf accuracy    <       0.00000002 Ry

     iteration # 30     ecut=    50.00 Ry     beta= 0.30
     Davidson diagonalization with overlap
     c_bands:  1 eigenvalues not converged
     ethr =  4.22E-11,  avg # of iterations =  4.4

     total cpu time spent up to now is      206.0 secs

     total energy              =    -359.83366011 Ry
     estimated scf accuracy    <       0.00000003 Ry

     iteration # 31     ecut=    50.00 Ry     beta= 0.30
     Davidson diagonalization with overlap
     ethr =  4.22E-11,  avg # of iterations =  1.6

     total cpu time spent up to now is      210.4 secs

     total energy              =    -359.83366011 Ry
     estimated scf accuracy    <       0.00000002 Ry

     iteration # 32     ecut=    50.00 Ry     beta= 0.30
     Davidson diagonalization with overlap
     ethr =  4.22E-11,  avg # of iterations =  1.0

     total cpu time spent up to now is      214.6 secs

     total energy              =    -359.83366011 Ry
     estimated scf accuracy    <       0.00000002 Ry

     iteration # 33     ecut=    50.00 Ry     beta= 0.30
     Davidson diagonalization with overlap
     ethr =  4.22E-11,  avg # of iterations =  4.4

     total cpu time spent up to now is      220.1 secs

     End of self-consistent calculation

     Number of k-points >= 100: set verbosity='high' to print the bands.

     highest occupied level (ev):    10.8434

!    total energy              =    -359.83366011 Ry
     estimated scf accuracy    <          2.5E-09 Ry

     The total energy is the sum of the following terms:
     one-electron contribution =    -225.51655447 Ry
     hartree contribution      =     154.24690369 Ry
     xc contribution           =    -110.51439280 Ry
     ewald contribution        =    -178.04961653 Ry

     convergence has been achieved in  33 iterations

     Forces acting on atoms (cartesian axes, Ry/au):

     atom    1 type  1   force =     0.88665002   -2.09698713   -1.97828481
     atom    2 type  1   force =     0.36875445    0.10233746    0.43882081
     atom    3 type  2   force =    -1.15124312    2.29835950    1.96371781
     atom    4 type  2   force =    -0.10416135   -0.30370982   -0.42425382
     The non-local contrib.  to forces
     atom    1 type  1   force =     0.22411689    0.31908362    0.23182842
     atom    2 type  1   force =     0.53846338    0.05713176    0.21260398
     atom    3 type  2   force =     0.89129526   -0.62536425    0.75680511
     atom    4 type  2   force =    -0.26309300    0.73399410    0.07785838
     The ionic contribution  to forces
     atom    1 type  1   force =     5.10113909  -10.85006838  -27.87414165
     atom    2 type  1   force =     6.17175299    2.23320048   35.13357285
     atom    3 type  2   force =   -10.92282518   14.00627585   12.26828404
     atom    4 type  2   force =    -0.35006689   -5.38940795  -19.52771525
     The local contribution  to forces
     atom    1 type  1   force =    -4.34790581    8.30313970   25.50440700
     atom    2 type  1   force =    -6.27724354   -2.17201321  -34.83880385
     atom    3 type  2   force =     8.88286667  -11.07972925  -11.04753923
     atom    4 type  2   force =     0.50607191    4.35645405   19.02294164
     The core correction contribution to forces
     atom    1 type  1   force =    -0.09068550    0.13086430    0.15965208
     atom    2 type  1   force =    -0.06420774   -0.01597128   -0.06842742
     atom    3 type  2   force =    -0.00256922   -0.00282370   -0.01374065
     atom    4 type  2   force =     0.00291447   -0.00474351    0.00260073
     The Hubbard contrib.    to forces
     atom    1 type  1   force =     0.00000000    0.00000000    0.00000000
     atom    2 type  1   force =     0.00000000    0.00000000    0.00000000
     atom    3 type  2   force =     0.00000000    0.00000000    0.00000000
     atom    4 type  2   force =     0.00000000    0.00000000    0.00000000
     The SCF correction term to forces
     atom    1 type  1   force =    -0.00002158   -0.00000282   -0.00004729
     atom    2 type  1   force =    -0.00001757   -0.00000673   -0.00014140
     atom    3 type  2   force =    -0.00001759    0.00000440   -0.00010809
     atom    4 type  2   force =     0.00000523   -0.00000295    0.00004404

     Total force =     4.492573     Total SCF correction =     0.000192

     Writing all to output data dir ./ZnO_ANN.save/

     init_run     :      3.27s CPU      3.35s WALL (       1 calls)
     electrons    :    212.41s CPU    216.27s WALL (       1 calls)
     forces       :      0.99s CPU      1.00s WALL (       1 calls)

     Called by init_run:
     wfcinit      :      2.42s CPU      2.46s WALL (       1 calls)
     potinit      :      0.24s CPU      0.25s WALL (       1 calls)
     hinit0       :      0.53s CPU      0.55s WALL (       1 calls)

     Called by electrons:
     c_bands      :    188.17s CPU    191.48s WALL (      33 calls)
     sum_band     :     22.04s CPU     22.53s WALL (      33 calls)
     v_of_rho     :      0.44s CPU      0.49s WALL (      34 calls)
     newd         :      1.69s CPU      1.72s WALL (      34 calls)
     mix_rho      :      0.08s CPU      0.09s WALL (      33 calls)

     Called by c_bands:
     init_us_2    :      1.33s CPU      1.35s WALL (    7616 calls)
     init_us_2:cp :      1.30s CPU      1.33s WALL (    7616 calls)
     cegterg      :    183.48s CPU    186.69s WALL (    3696 calls)

     Called by *egterg:
     cdiaghg      :     22.70s CPU     22.92s WALL (   23095 calls)
     h_psi        :    108.15s CPU    110.48s WALL (   23207 calls)
     s_psi        :      9.96s CPU     10.07s WALL (   23207 calls)
     g_psi        :      0.33s CPU      0.33s WALL (   19399 calls)

     Called by h_psi:
     h_psi:calbec :     13.78s CPU     14.21s WALL (   23207 calls)
     vloc_psi     :     84.14s CPU     85.93s WALL (   23207 calls)
     add_vuspsi   :      9.89s CPU     10.01s WALL (   23207 calls)

     General routines
     calbec       :     18.86s CPU     19.43s WALL (   27351 calls)
     fft          :      0.61s CPU      0.67s WALL (     451 calls)
     ffts         :      0.08s CPU      0.09s WALL (      67 calls)
     fftw         :     89.68s CPU     91.61s WALL (  454406 calls)
     interpolate  :      0.09s CPU      0.10s WALL (      34 calls)

     Parallel routines

     PWSCF        :   3m37.38s CPU   3m41.48s WALL


   This run was terminated on:  15:45:49  24Jun2025            

=------------------------------------------------------------------------------=
   JOB DONE.
=------------------------------------------------------------------------------=
Note: The following floating-point exceptions are signalling: IEEE_INVALID_FLAG
