
     Program PWSCF v.7.2 starts on 24Jun2025 at 17:12: 0 

     This program is part of the open-source Quantum ESPRESSO suite
     for quantum simulation of materials; please cite
         "P. Giannozzi et al., J. Phys.:Condens. Matter 21 395502 (2009);
         "P. Giannozzi et al., J. Phys.:Condens. Matter 29 465901 (2017);
         "P. Giannozzi et al., J. Chem. Phys. 152 154105 (2020);
          URL http://www.quantum-espresso.org", 
     in publications or presentations arising from this work. More details at
     http://www.quantum-espresso.org/quote

     Parallel version (MPI), running on     8 processors

     MPI processes distributed on     1 nodes
     91000 MiB available memory on the printing compute node when the environment starts

     Reading input from /home/jvc/QEspresso7.2/ZnO_DataBase/scf_025_NOSYM.in/scf-6.18-1.68-0.25-2.in

     Current dimensions of program PWSCF are:
     Max number of different atomic species (ntypx) = 10
     Max number of k-points (npk) =  40000
     Max angular momentum in pseudopotentials (lmaxx) =  4
     file Zn.upf: wavefunction(s)  3D renormalized

     R & G space division:  proc/nbgrp/npool/nimage =       8
     Subspace diagonalization in iterative solution of the eigenvalue problem:
     a serial algorithm will be used


     Parallelization info
     --------------------
     sticks:   dense  smooth     PW     G-vecs:    dense   smooth      PW
     Min         130      64     20                 5518     1944     332
     Max         131      66     21                 5522     1946     337
     Sum        1045     517    163                44163    15561    2671

     Using Slab Decomposition



     bravais-lattice index     =            0
     lattice parameter (alat)  =       6.1788  a.u.
     unit-cell volume          =     326.8643 (a.u.)^3
     number of atoms/cell      =            4
     number of atomic types    =            2
     number of electrons       =        36.00
     number of Kohn-Sham states=           18
     kinetic-energy cutoff     =      50.0000  Ry
     charge density cutoff     =     400.0000  Ry
     scf convergence threshold =      1.0E-08
     mixing beta               =       0.3000
     number of iterations used =            8  plain     mixing
     Exchange-correlation= PBE
                           (   1   4   3   4   0   0   0)

     celldm(1)=   6.178821  celldm(2)=   0.000000  celldm(3)=   0.000000
     celldm(4)=   0.000000  celldm(5)=   0.000000  celldm(6)=   0.000000

     crystal axes: (cart. coord. in units of alat)
               a(1) = (   1.000000   0.000000   0.000000 )  
               a(2) = (  -0.500000   0.866025   0.000000 )  
               a(3) = (   0.000000   0.000000   1.600000 )  

     reciprocal axes: (cart. coord. in units 2 pi/alat)
               b(1) = (  1.000000  0.577350 -0.000000 )  
               b(2) = (  0.000000  1.154701  0.000000 )  
               b(3) = (  0.000000 -0.000000  0.625000 )  


     PseudoPot. # 1 for Zn read from file:
     ./pseudos/Zn.upf
     MD5 check sum: 7f56cabf9682ed8c977c2f7d0c5985c5
     Pseudo is Ultrasoft + core correction, Zval = 12.0
     Generated using &quot;atomic&quot; code by A. Dal Corso  v.6.2.2
     Using radial grid of 1201 points,  6 beta functions with: 
                l(1) =   0
                l(2) =   0
                l(3) =   1
                l(4) =   1
                l(5) =   2
                l(6) =   2
     Q(r) pseudized with 0 coefficients 


     PseudoPot. # 2 for O  read from file:
     ./pseudos/O.upf
     MD5 check sum: 91400c9766925bcf19f520983a725ff0
     Pseudo is Ultrasoft + core correction, Zval =  6.0
     Generated using &quot;atomic&quot; code by A. Dal Corso  v.6.3MaX
     Using radial grid of 1095 points,  4 beta functions with: 
                l(1) =   0
                l(2) =   0
                l(3) =   1
                l(4) =   1
     Q(r) pseudized with 0 coefficients 


     atomic species   valence    mass     pseudopotential
        Zn            12.00    63.38000     Zn( 1.00)
        O              6.00    15.99900     O ( 1.00)

     No symmetry found



   Cartesian axes

     site n.     atom                  positions (alat units)
         1           Zn  tau(   1) = (   0.2925916   0.4422964   0.4720568  )
         2           Zn  tau(   2) = (   0.0616350   0.6104189  -0.2385363  )
         3           O   tau(   3) = (   0.5983831   0.0765607   1.6860080  )
         4           O   tau(   4) = (   0.2191014   0.6145673   0.4120113  )

     number of k points=   112

     Number of k-points >= 100: set verbosity='high' to print them.

     Dense  grid:    44163 G-vectors     FFT dimensions: (  40,  40,  64)

     Smooth grid:    15561 G-vectors     FFT dimensions: (  27,  27,  45)

     Estimated max dynamical RAM per process >      30.35 MB

     Estimated total dynamical RAM >     242.82 MB

     Check: negative core charge=   -0.000002

     Initial potential from superposition of free atoms

     starting charge      35.9925, renormalised to      36.0000
     Starting wfcs are   26 randomized atomic wfcs

     total cpu time spent up to now is        4.1 secs

     Self-consistent Calculation

     iteration #  1     ecut=    50.00 Ry     beta= 0.30
     Davidson diagonalization with overlap
     ethr =  1.00E-02,  avg # of iterations =  6.5

     total cpu time spent up to now is       13.1 secs

     total energy              =    -343.88506780 Ry
     estimated scf accuracy    <       1.55551026 Ry

     iteration #  2     ecut=    50.00 Ry     beta= 0.30
     Davidson diagonalization with overlap
     ethr =  4.32E-03,  avg # of iterations =  3.0

     total cpu time spent up to now is       18.6 secs

     total energy              =    -343.83975699 Ry
     estimated scf accuracy    <       0.32969867 Ry

     iteration #  3     ecut=    50.00 Ry     beta= 0.30
     Davidson diagonalization with overlap
     c_bands:  1 eigenvalues not converged
     c_bands:  1 eigenvalues not converged
     c_bands:  1 eigenvalues not converged
     ethr =  9.16E-04,  avg # of iterations = 12.2

     total cpu time spent up to now is       30.0 secs

     total energy              =    -344.49192803 Ry
     estimated scf accuracy    <       1.92118850 Ry

     iteration #  4     ecut=    50.00 Ry     beta= 0.30
     Davidson diagonalization with overlap
     ethr =  9.16E-04,  avg # of iterations =  1.1

     total cpu time spent up to now is       34.5 secs

     total energy              =    -344.22127747 Ry
     estimated scf accuracy    <       2.03948398 Ry

     iteration #  5     ecut=    50.00 Ry     beta= 0.30
     Davidson diagonalization with overlap
     ethr =  9.16E-04,  avg # of iterations =  1.7

     total cpu time spent up to now is       39.3 secs

     total energy              =    -343.08266670 Ry
     estimated scf accuracy    <       1.56103746 Ry

     iteration #  6     ecut=    50.00 Ry     beta= 0.30
     Davidson diagonalization with overlap
     ethr =  9.16E-04,  avg # of iterations = 10.9

     total cpu time spent up to now is       55.2 secs

     total energy              =    -344.68090931 Ry
     estimated scf accuracy    <       4.47112102 Ry

     iteration #  7     ecut=    50.00 Ry     beta= 0.30
     Davidson diagonalization with overlap
     ethr =  9.16E-04,  avg # of iterations =  2.2

     total cpu time spent up to now is       60.8 secs

     total energy              =    -343.78924673 Ry
     estimated scf accuracy    <       3.08598917 Ry

     iteration #  8     ecut=    50.00 Ry     beta= 0.30
     Davidson diagonalization with overlap
     ethr =  9.16E-04,  avg # of iterations =  8.5

     total cpu time spent up to now is       71.0 secs

     total energy              =    -344.11581449 Ry
     estimated scf accuracy    <       0.24984623 Ry

     iteration #  9     ecut=    50.00 Ry     beta= 0.30
     Davidson diagonalization with overlap
     ethr =  6.94E-04,  avg # of iterations =  1.2

     total cpu time spent up to now is       75.5 secs

     total energy              =    -344.06912336 Ry
     estimated scf accuracy    <       0.21624089 Ry

     iteration # 10     ecut=    50.00 Ry     beta= 0.30
     Davidson diagonalization with overlap
     ethr =  6.01E-04,  avg # of iterations =  3.6

     total cpu time spent up to now is       81.0 secs

     total energy              =    -344.06817164 Ry
     estimated scf accuracy    <       0.04869604 Ry

     iteration # 11     ecut=    50.00 Ry     beta= 0.30
     Davidson diagonalization with overlap
     c_bands:  1 eigenvalues not converged
     ethr =  1.35E-04,  avg # of iterations =  9.7

     total cpu time spent up to now is       89.9 secs

     total energy              =    -344.12480121 Ry
     estimated scf accuracy    <       0.07384677 Ry

     iteration # 12     ecut=    50.00 Ry     beta= 0.30
     Davidson diagonalization with overlap
     ethr =  1.35E-04,  avg # of iterations =  1.6

     total cpu time spent up to now is       94.7 secs

     total energy              =    -344.11814399 Ry
     estimated scf accuracy    <       0.10026733 Ry

     iteration # 13     ecut=    50.00 Ry     beta= 0.30
     Davidson diagonalization with overlap
     ethr =  1.35E-04,  avg # of iterations =  1.0

     total cpu time spent up to now is       99.2 secs

     total energy              =    -344.11205876 Ry
     estimated scf accuracy    <       0.09028526 Ry

     iteration # 14     ecut=    50.00 Ry     beta= 0.30
     Davidson diagonalization with overlap
     ethr =  1.35E-04,  avg # of iterations =  1.1

     total cpu time spent up to now is      103.7 secs

     total energy              =    -344.11357160 Ry
     estimated scf accuracy    <       0.07958094 Ry

     iteration # 15     ecut=    50.00 Ry     beta= 0.30
     Davidson diagonalization with overlap
     ethr =  1.35E-04,  avg # of iterations =  1.0

     total cpu time spent up to now is      108.2 secs

     total energy              =    -344.11573723 Ry
     estimated scf accuracy    <       0.08025654 Ry

     iteration # 16     ecut=    50.00 Ry     beta= 0.30
     Davidson diagonalization with overlap
     ethr =  1.35E-04,  avg # of iterations =  1.0

     total cpu time spent up to now is      112.7 secs

     total energy              =    -344.14719046 Ry
     estimated scf accuracy    <       0.08490554 Ry

     iteration # 17     ecut=    50.00 Ry     beta= 0.30
     Davidson diagonalization with overlap
     ethr =  1.35E-04,  avg # of iterations =  7.0

     total cpu time spent up to now is      119.3 secs

     total energy              =    -344.13981000 Ry
     estimated scf accuracy    <       0.33977133 Ry

     iteration # 18     ecut=    50.00 Ry     beta= 0.30
     Davidson diagonalization with overlap
     ethr =  1.35E-04,  avg # of iterations =  1.1

     total cpu time spent up to now is      123.9 secs

     total energy              =    -344.08488988 Ry
     estimated scf accuracy    <       0.30472297 Ry

     iteration # 19     ecut=    50.00 Ry     beta= 0.30
     Davidson diagonalization with overlap
     ethr =  1.35E-04,  avg # of iterations =  6.8

     total cpu time spent up to now is      130.8 secs

     total energy              =    -344.09728067 Ry
     estimated scf accuracy    <       0.04716763 Ry

     iteration # 20     ecut=    50.00 Ry     beta= 0.30
     Davidson diagonalization with overlap
     ethr =  1.31E-04,  avg # of iterations =  1.7

     total cpu time spent up to now is      135.7 secs

     total energy              =    -344.09161110 Ry
     estimated scf accuracy    <       0.02850379 Ry

     iteration # 21     ecut=    50.00 Ry     beta= 0.30
     Davidson diagonalization with overlap
     ethr =  7.92E-05,  avg # of iterations =  8.2

     total cpu time spent up to now is      142.9 secs

     total energy              =    -344.10159552 Ry
     estimated scf accuracy    <       0.00583846 Ry

     iteration # 22     ecut=    50.00 Ry     beta= 0.30
     Davidson diagonalization with overlap
     ethr =  1.62E-05,  avg # of iterations =  2.2

     total cpu time spent up to now is      147.8 secs

     total energy              =    -344.10144129 Ry
     estimated scf accuracy    <       0.00523420 Ry

     iteration # 23     ecut=    50.00 Ry     beta= 0.30
     Davidson diagonalization with overlap
     ethr =  1.45E-05,  avg # of iterations =  1.6

     total cpu time spent up to now is      152.6 secs

     total energy              =    -344.09960554 Ry
     estimated scf accuracy    <       0.00353070 Ry

     iteration # 24     ecut=    50.00 Ry     beta= 0.30
     Davidson diagonalization with overlap
     c_bands:  1 eigenvalues not converged
     c_bands:  1 eigenvalues not converged
     c_bands:  1 eigenvalues not converged
     ethr =  9.81E-06,  avg # of iterations = 10.5

     total cpu time spent up to now is      161.8 secs

     total energy              =    -344.10082787 Ry
     estimated scf accuracy    <       0.00805697 Ry

     iteration # 25     ecut=    50.00 Ry     beta= 0.30
     Davidson diagonalization with overlap
     ethr =  9.81E-06,  avg # of iterations =  4.9

     total cpu time spent up to now is      167.4 secs

     total energy              =    -344.10081490 Ry
     estimated scf accuracy    <       0.00188553 Ry

     iteration # 26     ecut=    50.00 Ry     beta= 0.30
     Davidson diagonalization with overlap
     ethr =  5.24E-06,  avg # of iterations =  6.4

     total cpu time spent up to now is      174.3 secs

     total energy              =    -344.10150325 Ry
     estimated scf accuracy    <       0.00011538 Ry

     iteration # 27     ecut=    50.00 Ry     beta= 0.30
     Davidson diagonalization with overlap
     c_bands:  1 eigenvalues not converged
     c_bands:  1 eigenvalues not converged
     c_bands:  1 eigenvalues not converged
     c_bands:  1 eigenvalues not converged
     ethr =  3.21E-07,  avg # of iterations =  6.8

     total cpu time spent up to now is      181.5 secs

     total energy              =    -344.10155496 Ry
     estimated scf accuracy    <       0.00037019 Ry

     iteration # 28     ecut=    50.00 Ry     beta= 0.30
     Davidson diagonalization with overlap
     ethr =  3.21E-07,  avg # of iterations =  1.3

     total cpu time spent up to now is      186.0 secs

     total energy              =    -344.10146777 Ry
     estimated scf accuracy    <       0.00032580 Ry

     iteration # 29     ecut=    50.00 Ry     beta= 0.30
     Davidson diagonalization with overlap
     ethr =  3.21E-07,  avg # of iterations =  7.9

     total cpu time spent up to now is      193.2 secs

     total energy              =    -344.10151408 Ry
     estimated scf accuracy    <       0.00000328 Ry

     iteration # 30     ecut=    50.00 Ry     beta= 0.30
     Davidson diagonalization with overlap
     c_bands:  1 eigenvalues not converged
     c_bands:  1 eigenvalues not converged
     c_bands:  1 eigenvalues not converged
     c_bands:  1 eigenvalues not converged
     c_bands:  1 eigenvalues not converged
     c_bands:  1 eigenvalues not converged
     c_bands:  1 eigenvalues not converged
     ethr =  9.11E-09,  avg # of iterations = 14.2

     total cpu time spent up to now is      205.3 secs

     total energy              =    -344.10150291 Ry
     estimated scf accuracy    <       0.00006035 Ry

     iteration # 31     ecut=    50.00 Ry     beta= 0.30
     Davidson diagonalization with overlap
     c_bands:  1 eigenvalues not converged
     c_bands:  1 eigenvalues not converged
     c_bands:  1 eigenvalues not converged
     c_bands:  2 eigenvalues not converged
     c_bands:  1 eigenvalues not converged
     c_bands:  1 eigenvalues not converged
     c_bands:  1 eigenvalues not converged
     c_bands:  1 eigenvalues not converged
     c_bands:  1 eigenvalues not converged
     c_bands:  1 eigenvalues not converged
     c_bands:  1 eigenvalues not converged
     c_bands:  1 eigenvalues not converged
     c_bands:  1 eigenvalues not converged
     c_bands:  1 eigenvalues not converged
     ethr =  9.11E-09,  avg # of iterations = 15.4

     total cpu time spent up to now is      218.9 secs

     total energy              =    -344.10151277 Ry
     estimated scf accuracy    <       0.00000167 Ry

     iteration # 32     ecut=    50.00 Ry     beta= 0.30
     Davidson diagonalization with overlap
     ethr =  4.65E-09,  avg # of iterations =  6.7

     total cpu time spent up to now is      225.2 secs

     total energy              =    -344.10151309 Ry
     estimated scf accuracy    <       0.00000005 Ry

     iteration # 33     ecut=    50.00 Ry     beta= 0.30
     Davidson diagonalization with overlap
     c_bands:  1 eigenvalues not converged
     ethr =  1.40E-10,  avg # of iterations = 10.1

     total cpu time spent up to now is      236.7 secs

     total energy              =    -344.10151310 Ry
     estimated scf accuracy    <       0.00000022 Ry

     iteration # 34     ecut=    50.00 Ry     beta= 0.30
     Davidson diagonalization with overlap
     c_bands:  1 eigenvalues not converged
     c_bands:  1 eigenvalues not converged
     c_bands:  1 eigenvalues not converged
     c_bands:  1 eigenvalues not converged
     c_bands:  1 eigenvalues not converged
     c_bands:  1 eigenvalues not converged
     ethr =  1.40E-10,  avg # of iterations = 11.7

     total cpu time spent up to now is      247.3 secs

     total energy              =    -344.10151317 Ry
     estimated scf accuracy    <       0.00000008 Ry

     iteration # 35     ecut=    50.00 Ry     beta= 0.30
     Davidson diagonalization with overlap
     ethr =  1.40E-10,  avg # of iterations =  1.3

     total cpu time spent up to now is      251.9 secs

     total energy              =    -344.10151315 Ry
     estimated scf accuracy    <       0.00000007 Ry

     iteration # 36     ecut=    50.00 Ry     beta= 0.30
     Davidson diagonalization with overlap
     ethr =  1.40E-10,  avg # of iterations =  4.8

     total cpu time spent up to now is      257.5 secs

     total energy              =    -344.10151316 Ry
     estimated scf accuracy    <       0.00000001 Ry

     iteration # 37     ecut=    50.00 Ry     beta= 0.30
     Davidson diagonalization with overlap
     ethr =  2.99E-11,  avg # of iterations =  5.9

     total cpu time spent up to now is      264.5 secs

     End of self-consistent calculation

     Number of k-points >= 100: set verbosity='high' to print the bands.

     highest occupied level (ev):     9.7713

!    total energy              =    -344.10151316 Ry
     estimated scf accuracy    <          4.3E-10 Ry

     The total energy is the sum of the following terms:
     one-electron contribution =    -265.97990076 Ry
     hartree contribution      =     168.71307983 Ry
     xc contribution           =    -112.57952271 Ry
     ewald contribution        =    -134.25516952 Ry

     convergence has been achieved in  37 iterations

     Forces acting on atoms (cartesian axes, Ry/au):

     atom    1 type  1   force =    15.72524003  -36.88953921   13.10454242
     atom    2 type  1   force =    -0.06318388   -0.36591868   -0.46491383
     atom    3 type  2   force =    -0.03929713    0.65541494   -0.12743723
     atom    4 type  2   force =   -15.62275902   36.60004295  -12.51219136
     The non-local contrib.  to forces
     atom    1 type  1   force =    -6.94488607   16.16982629   -5.30897500
     atom    2 type  1   force =    -0.10363878   -0.70772970   -0.47354470
     atom    3 type  2   force =    -0.16666634   -0.20631677   -0.89202001
     atom    4 type  2   force =     1.72902233   -4.08021104    1.44931739
     The ionic contribution  to forces
     atom    1 type  1   force =    35.03730711  -82.13803296   47.56400692
     atom    2 type  1   force =    -2.67132434   -6.39240168  -27.27120892
     atom    3 type  2   force =     0.63876385    9.77551551   -3.12093638
     atom    4 type  2   force =   -33.00474662   78.75491912  -17.17186161
     The local contribution  to forces
     atom    1 type  1   force =   -11.89028326   27.95819506  -28.74253318
     atom    2 type  1   force =     2.70012250    6.66138202   27.20381205
     atom    3 type  2   force =    -0.51271768   -8.91175803    3.87701423
     atom    4 type  2   force =    15.61336598  -37.98101004    3.17706386
     The core correction contribution to forces
     atom    1 type  1   force =    -0.47686601    1.12040315   -0.40800393
     atom    2 type  1   force =     0.01164824    0.07284634    0.07611894
     atom    3 type  2   force =     0.00131159   -0.00200043    0.00850285
     atom    4 type  2   force =     0.03959893   -0.09364737    0.03324410
     The Hubbard contrib.    to forces
     atom    1 type  1   force =     0.00000000    0.00000000    0.00000000
     atom    2 type  1   force =     0.00000000    0.00000000    0.00000000
     atom    3 type  2   force =     0.00000000    0.00000000    0.00000000
     atom    4 type  2   force =     0.00000000    0.00000000    0.00000000
     The SCF correction term to forces
     atom    1 type  1   force =    -0.00004017    0.00008723    0.00003739
     atom    2 type  1   force =     0.00000007    0.00000233   -0.00010142
     atom    3 type  2   force =     0.00000303   -0.00000735   -0.00000814
     atom    4 type  2   force =    -0.00000806    0.00001027    0.00003469

     Total force =    59.336670     Total SCF correction =     0.000150

     Writing all to output data dir ./ZnO_ANN.save/

     init_run     :      3.51s CPU      3.62s WALL (       1 calls)
     electrons    :    256.07s CPU    260.40s WALL (       1 calls)
     forces       :      1.14s CPU      1.15s WALL (       1 calls)

     Called by init_run:
     wfcinit      :      2.54s CPU      2.60s WALL (       1 calls)
     potinit      :      0.27s CPU      0.27s WALL (       1 calls)
     hinit0       :      0.63s CPU      0.65s WALL (       1 calls)

     Called by electrons:
     c_bands      :    226.97s CPU    230.69s WALL (      37 calls)
     sum_band     :     26.34s CPU     26.88s WALL (      37 calls)
     v_of_rho     :      0.53s CPU      0.57s WALL (      38 calls)
     newd         :      2.14s CPU      2.17s WALL (      38 calls)
     mix_rho      :      0.09s CPU      0.10s WALL (      37 calls)

     Called by c_bands:
     init_us_2    :      1.65s CPU      1.67s WALL (    8512 calls)
     init_us_2:cp :      1.62s CPU      1.65s WALL (    8512 calls)
     cegterg      :    220.94s CPU    224.60s WALL (    4144 calls)

     Called by *egterg:
     cdiaghg      :     26.46s CPU     26.70s WALL (   26815 calls)
     h_psi        :    126.84s CPU    129.43s WALL (   26927 calls)
     s_psi        :     12.16s CPU     12.30s WALL (   26927 calls)
     g_psi        :      0.42s CPU      0.43s WALL (   22671 calls)

     Called by h_psi:
     h_psi:calbec :     17.61s CPU     18.11s WALL (   26927 calls)
     vloc_psi     :     96.62s CPU     98.60s WALL (   26927 calls)
     add_vuspsi   :     12.21s CPU     12.33s WALL (   26927 calls)

     General routines
     calbec       :     23.97s CPU     24.61s WALL (   31519 calls)
     fft          :      0.84s CPU      0.89s WALL (     503 calls)
     ffts         :      0.09s CPU      0.09s WALL (      75 calls)
     fftw         :    103.25s CPU    105.39s WALL (  516514 calls)
     interpolate  :      0.10s CPU      0.10s WALL (      38 calls)

     Parallel routines

     PWSCF        :   4m21.43s CPU   4m26.03s WALL


   This run was terminated on:  17:16:26  24Jun2025            

=------------------------------------------------------------------------------=
   JOB DONE.
=------------------------------------------------------------------------------=
Note: The following floating-point exceptions are signalling: IEEE_INVALID_FLAG
