
     Program PWSCF v.7.2 starts on 24Jun2025 at 18: 8:42 

     This program is part of the open-source Quantum ESPRESSO suite
     for quantum simulation of materials; please cite
         "P. Giannozzi et al., J. Phys.:Condens. Matter 21 395502 (2009);
         "P. Giannozzi et al., J. Phys.:Condens. Matter 29 465901 (2017);
         "P. Giannozzi et al., J. Chem. Phys. 152 154105 (2020);
          URL http://www.quantum-espresso.org", 
     in publications or presentations arising from this work. More details at
     http://www.quantum-espresso.org/quote

     Parallel version (MPI), running on     8 processors

     MPI processes distributed on     1 nodes
     90842 MiB available memory on the printing compute node when the environment starts

     Reading input from /home/jvc/QEspresso7.2/ZnO_DataBase/scf_025_NOSYM.in/scf-6.43-1.49-0.25-2.in

     Current dimensions of program PWSCF are:
     Max number of different atomic species (ntypx) = 10
     Max number of k-points (npk) =  40000
     Max angular momentum in pseudopotentials (lmaxx) =  4
     file Zn.upf: wavefunction(s)  3D renormalized

     R & G space division:  proc/nbgrp/npool/nimage =       8
     Subspace diagonalization in iterative solution of the eigenvalue problem:
     a serial algorithm will be used


     Parallelization info
     --------------------
     sticks:   dense  smooth     PW     G-vecs:    dense   smooth      PW
     Min         143      71     20                 6229     2189     360
     Max         145      73     21                 6232     2190     367
     Sum        1147     571    163                49835    17513    2899

     Using Slab Decomposition



     bravais-lattice index     =            0
     lattice parameter (alat)  =       6.4260  a.u.
     unit-cell volume          =     367.6779 (a.u.)^3
     number of atoms/cell      =            4
     number of atomic types    =            2
     number of electrons       =        36.00
     number of Kohn-Sham states=           18
     kinetic-energy cutoff     =      50.0000  Ry
     charge density cutoff     =     400.0000  Ry
     scf convergence threshold =      1.0E-08
     mixing beta               =       0.3000
     number of iterations used =            8  plain     mixing
     Exchange-correlation= PBE
                           (   1   4   3   4   0   0   0)

     celldm(1)=   6.425974  celldm(2)=   0.000000  celldm(3)=   0.000000
     celldm(4)=   0.000000  celldm(5)=   0.000000  celldm(6)=   0.000000

     crystal axes: (cart. coord. in units of alat)
               a(1) = (   1.000000   0.000000   0.000000 )  
               a(2) = (  -0.500000   0.866025   0.000000 )  
               a(3) = (   0.000000   0.000000   1.600000 )  

     reciprocal axes: (cart. coord. in units 2 pi/alat)
               b(1) = (  1.000000  0.577350 -0.000000 )  
               b(2) = (  0.000000  1.154701  0.000000 )  
               b(3) = (  0.000000 -0.000000  0.625000 )  


     PseudoPot. # 1 for Zn read from file:
     ./pseudos/Zn.upf
     MD5 check sum: 7f56cabf9682ed8c977c2f7d0c5985c5
     Pseudo is Ultrasoft + core correction, Zval = 12.0
     Generated using &quot;atomic&quot; code by A. Dal Corso  v.6.2.2
     Using radial grid of 1201 points,  6 beta functions with: 
                l(1) =   0
                l(2) =   0
                l(3) =   1
                l(4) =   1
                l(5) =   2
                l(6) =   2
     Q(r) pseudized with 0 coefficients 


     PseudoPot. # 2 for O  read from file:
     ./pseudos/O.upf
     MD5 check sum: 91400c9766925bcf19f520983a725ff0
     Pseudo is Ultrasoft + core correction, Zval =  6.0
     Generated using &quot;atomic&quot; code by A. Dal Corso  v.6.3MaX
     Using radial grid of 1095 points,  4 beta functions with: 
                l(1) =   0
                l(2) =   0
                l(3) =   1
                l(4) =   1
     Q(r) pseudized with 0 coefficients 


     atomic species   valence    mass     pseudopotential
        Zn            12.00    63.38000     Zn( 1.00)
        O              6.00    15.99900     O ( 1.00)

     No symmetry found



   Cartesian axes

     site n.     atom                  positions (alat units)
         1           Zn  tau(   1) = (   0.6656998   0.1435887   0.4040771  )
         2           Zn  tau(   2) = (  -0.1892137   0.5558689   0.2864953  )
         3           O   tau(   3) = (   0.3866720   0.3258721   1.7723061  )
         4           O   tau(   4) = (   0.1983809   0.4902904   0.2846504  )

     number of k points=   112

     Number of k-points >= 100: set verbosity='high' to print them.

     Dense  grid:    49835 G-vectors     FFT dimensions: (  45,  45,  72)

     Smooth grid:    17513 G-vectors     FFT dimensions: (  30,  30,  48)

     Estimated max dynamical RAM per process >      34.06 MB

     Estimated total dynamical RAM >     272.46 MB

     Check: negative core charge=   -0.000003

     Initial potential from superposition of free atoms

     starting charge      35.9925, renormalised to      36.0000
     Starting wfcs are   26 randomized atomic wfcs

     total cpu time spent up to now is        4.4 secs

     Self-consistent Calculation

     iteration #  1     ecut=    50.00 Ry     beta= 0.30
     Davidson diagonalization with overlap
     ethr =  1.00E-02,  avg # of iterations =  4.0

     total cpu time spent up to now is       12.2 secs

     total energy              =    -358.04992747 Ry
     estimated scf accuracy    <       0.92809716 Ry

     iteration #  2     ecut=    50.00 Ry     beta= 0.30
     Davidson diagonalization with overlap
     ethr =  2.58E-03,  avg # of iterations =  4.0

     total cpu time spent up to now is       18.8 secs

     total energy              =    -358.09818194 Ry
     estimated scf accuracy    <       0.19215489 Ry

     iteration #  3     ecut=    50.00 Ry     beta= 0.30
     Davidson diagonalization with overlap
     ethr =  5.34E-04,  avg # of iterations =  7.2

     total cpu time spent up to now is       29.3 secs

     total energy              =    -358.20852603 Ry
     estimated scf accuracy    <       0.14961721 Ry

     iteration #  4     ecut=    50.00 Ry     beta= 0.30
     Davidson diagonalization with overlap
     ethr =  4.16E-04,  avg # of iterations =  1.8

     total cpu time spent up to now is       34.6 secs

     total energy              =    -358.16734981 Ry
     estimated scf accuracy    <       0.06630443 Ry

     iteration #  5     ecut=    50.00 Ry     beta= 0.30
     Davidson diagonalization with overlap
     ethr =  1.84E-04,  avg # of iterations =  9.6

     total cpu time spent up to now is       50.5 secs

     total energy              =    -358.21320176 Ry
     estimated scf accuracy    <       0.63710104 Ry

     iteration #  6     ecut=    50.00 Ry     beta= 0.30
     Davidson diagonalization with overlap
     ethr =  1.84E-04,  avg # of iterations =  5.3

     total cpu time spent up to now is       59.5 secs

     total energy              =    -358.18162586 Ry
     estimated scf accuracy    <       0.14466936 Ry

     iteration #  7     ecut=    50.00 Ry     beta= 0.30
     Davidson diagonalization with overlap
     ethr =  1.84E-04,  avg # of iterations =  5.8

     total cpu time spent up to now is       68.2 secs

     total energy              =    -358.21745244 Ry
     estimated scf accuracy    <       0.00079234 Ry

     iteration #  8     ecut=    50.00 Ry     beta= 0.30
     Davidson diagonalization with overlap
     ethr =  2.20E-06,  avg # of iterations =  8.8

     total cpu time spent up to now is       81.5 secs

     total energy              =    -358.21952951 Ry
     estimated scf accuracy    <       0.00031063 Ry

     iteration #  9     ecut=    50.00 Ry     beta= 0.30
     Davidson diagonalization with overlap
     ethr =  8.63E-07,  avg # of iterations =  6.2

     total cpu time spent up to now is       90.0 secs

     total energy              =    -358.21919235 Ry
     estimated scf accuracy    <       0.00143475 Ry

     iteration # 10     ecut=    50.00 Ry     beta= 0.30
     Davidson diagonalization with overlap
     ethr =  8.63E-07,  avg # of iterations =  6.1

     total cpu time spent up to now is       97.6 secs

     total energy              =    -358.21917722 Ry
     estimated scf accuracy    <       0.00020173 Ry

     iteration # 11     ecut=    50.00 Ry     beta= 0.30
     Davidson diagonalization with overlap
     ethr =  5.60E-07,  avg # of iterations =  5.6

     total cpu time spent up to now is      106.4 secs

     total energy              =    -358.21926103 Ry
     estimated scf accuracy    <       0.00005785 Ry

     iteration # 12     ecut=    50.00 Ry     beta= 0.30
     Davidson diagonalization with overlap
     ethr =  1.61E-07,  avg # of iterations =  3.4

     total cpu time spent up to now is      112.5 secs

     total energy              =    -358.21926625 Ry
     estimated scf accuracy    <       0.00000769 Ry

     iteration # 13     ecut=    50.00 Ry     beta= 0.30
     Davidson diagonalization with overlap
     ethr =  2.14E-08,  avg # of iterations =  6.7

     total cpu time spent up to now is      122.6 secs

     total energy              =    -358.21927188 Ry
     estimated scf accuracy    <       0.00000148 Ry

     iteration # 14     ecut=    50.00 Ry     beta= 0.30
     Davidson diagonalization with overlap
     ethr =  4.12E-09,  avg # of iterations =  7.4

     total cpu time spent up to now is      132.9 secs

     total energy              =    -358.21927182 Ry
     estimated scf accuracy    <       0.00000188 Ry

     iteration # 15     ecut=    50.00 Ry     beta= 0.30
     Davidson diagonalization with overlap
     ethr =  4.12E-09,  avg # of iterations =  6.3

     total cpu time spent up to now is      141.9 secs

     total energy              =    -358.21927251 Ry
     estimated scf accuracy    <       0.00000083 Ry

     iteration # 16     ecut=    50.00 Ry     beta= 0.30
     Davidson diagonalization with overlap
     ethr =  2.30E-09,  avg # of iterations =  2.1

     total cpu time spent up to now is      147.5 secs

     total energy              =    -358.21927244 Ry
     estimated scf accuracy    <       0.00000025 Ry

     iteration # 17     ecut=    50.00 Ry     beta= 0.30
     Davidson diagonalization with overlap
     ethr =  7.06E-10,  avg # of iterations =  6.2

     total cpu time spent up to now is      156.3 secs

     total energy              =    -358.21927260 Ry
     estimated scf accuracy    <       0.00000006 Ry

     iteration # 18     ecut=    50.00 Ry     beta= 0.30
     Davidson diagonalization with overlap
     ethr =  1.64E-10,  avg # of iterations =  2.1

     total cpu time spent up to now is      161.9 secs

     total energy              =    -358.21927259 Ry
     estimated scf accuracy    <       0.00000004 Ry

     iteration # 19     ecut=    50.00 Ry     beta= 0.30
     Davidson diagonalization with overlap
     ethr =  1.24E-10,  avg # of iterations =  2.5

     total cpu time spent up to now is      167.6 secs

     total energy              =    -358.21927258 Ry
     estimated scf accuracy    <       0.00000002 Ry

     iteration # 20     ecut=    50.00 Ry     beta= 0.30
     Davidson diagonalization with overlap
     ethr =  4.25E-11,  avg # of iterations =  5.8

     total cpu time spent up to now is      175.4 secs

     End of self-consistent calculation

     Number of k-points >= 100: set verbosity='high' to print the bands.

     highest occupied level (ev):     8.8159

!    total energy              =    -358.21927259 Ry
     estimated scf accuracy    <          4.2E-10 Ry

     The total energy is the sum of the following terms:
     one-electron contribution =    -465.01472326 Ry
     hartree contribution      =     267.66187596 Ry
     xc contribution           =    -111.78746699 Ry
     ewald contribution        =     -49.07895829 Ry

     convergence has been achieved in  20 iterations

     Forces acting on atoms (cartesian axes, Ry/au):

     atom    1 type  1   force =     0.52705719   -1.73436638    1.26154141
     atom    2 type  1   force =    -0.79849009    1.55505739   -0.29151254
     atom    3 type  2   force =     1.24868474   -1.37248093   -2.00753946
     atom    4 type  2   force =    -0.97725184    1.55178991    1.03751059
     The non-local contrib.  to forces
     atom    1 type  1   force =     0.23000793    0.49385219   -0.40424499
     atom    2 type  1   force =    -0.57944451   -0.63457905   -0.02234705
     atom    3 type  2   force =    -1.02096741    1.79599450    1.81905029
     atom    4 type  2   force =     1.22857304   -1.45502520   -1.51852048
     The ionic contribution  to forces
     atom    1 type  1   force =     7.41091488  -17.41595603   33.60093937
     atom    2 type  1   force =    -6.34369359   18.67903935   -7.63214518
     atom    3 type  2   force =     0.22103597   -8.42697583  -30.27460072
     atom    4 type  2   force =    -1.28825726    7.16389251    4.30580653
     The local contribution  to forces
     atom    1 type  1   force =    -7.03685686   15.08181519  -31.82207973
     atom    2 type  1   force =     6.00015435  -16.37827167    7.34285059
     atom    3 type  2   force =     2.04838005    5.26381596   26.45134961
     atom    4 type  2   force =    -0.91448623   -4.15971887   -1.75524059
     The core correction contribution to forces
     atom    1 type  1   force =    -0.07699767    0.10591164   -0.11314634
     atom    2 type  1   force =     0.12447853   -0.11111570    0.02004877
     atom    3 type  2   force =     0.00024872   -0.00532246   -0.00335259
     atom    4 type  2   force =    -0.00308739    0.00265143    0.00544719
     The Hubbard contrib.    to forces
     atom    1 type  1   force =     0.00000000    0.00000000    0.00000000
     atom    2 type  1   force =     0.00000000    0.00000000    0.00000000
     atom    3 type  2   force =     0.00000000    0.00000000    0.00000000
     atom    4 type  2   force =     0.00000000    0.00000000    0.00000000
     The SCF correction term to forces
     atom    1 type  1   force =    -0.00001159    0.00001002    0.00010865
     atom    2 type  1   force =     0.00001463   -0.00001615    0.00011588
     atom    3 type  2   force =    -0.00001310    0.00000628    0.00004949
     atom    4 type  2   force =     0.00000549   -0.00001057    0.00005348

     Total force =     4.464382     Total SCF correction =     0.000178

     Writing all to output data dir ./ZnO_ANN.save/

     init_run     :      3.86s CPU      3.96s WALL (       1 calls)
     electrons    :    168.29s CPU    170.95s WALL (       1 calls)
     forces       :      1.27s CPU      1.28s WALL (       1 calls)

     Called by init_run:
     wfcinit      :      2.74s CPU      2.82s WALL (       1 calls)
     potinit      :      0.38s CPU      0.38s WALL (       1 calls)
     hinit0       :      0.62s CPU      0.63s WALL (       1 calls)

     Called by electrons:
     c_bands      :    150.99s CPU    153.30s WALL (      20 calls)
     sum_band     :     15.59s CPU     15.88s WALL (      20 calls)
     v_of_rho     :      0.40s CPU      0.43s WALL (      21 calls)
     newd         :      1.33s CPU      1.35s WALL (      21 calls)
     mix_rho      :      0.06s CPU      0.06s WALL (      20 calls)

     Called by c_bands:
     init_us_2    :      1.09s CPU      1.11s WALL (    4704 calls)
     init_us_2:cp :      1.08s CPU      1.10s WALL (    4704 calls)
     cegterg      :    147.36s CPU    149.62s WALL (    2240 calls)

     Called by *egterg:
     cdiaghg      :     15.06s CPU     15.16s WALL (   14209 calls)
     h_psi        :     85.76s CPU     87.49s WALL (   14321 calls)
     s_psi        :      9.23s CPU      9.31s WALL (   14321 calls)
     g_psi        :      0.30s CPU      0.30s WALL (   11969 calls)

     Called by h_psi:
     h_psi:calbec :     11.92s CPU     12.28s WALL (   14321 calls)
     vloc_psi     :     64.31s CPU     65.61s WALL (   14321 calls)
     add_vuspsi   :      9.27s CPU      9.35s WALL (   14321 calls)

     General routines
     calbec       :     16.07s CPU     16.52s WALL (   17009 calls)
     fft          :      0.59s CPU      0.62s WALL (     282 calls)
     ffts         :      0.15s CPU      0.15s WALL (      41 calls)
     fftw         :     65.67s CPU     66.98s WALL (  311808 calls)
     interpolate  :      0.17s CPU      0.17s WALL (      21 calls)

     Parallel routines

     PWSCF        :   2m54.12s CPU   2m57.14s WALL


   This run was terminated on:  18:11:39  24Jun2025            

=------------------------------------------------------------------------------=
   JOB DONE.
=------------------------------------------------------------------------------=
Note: The following floating-point exceptions are signalling: IEEE_INVALID_FLAG
