
     Program PWSCF v.7.2 starts on 24Jun2025 at 15: 8:37 

     This program is part of the open-source Quantum ESPRESSO suite
     for quantum simulation of materials; please cite
         "P. Giannozzi et al., J. Phys.:Condens. Matter 21 395502 (2009);
         "P. Giannozzi et al., J. Phys.:Condens. Matter 29 465901 (2017);
         "P. Giannozzi et al., J. Chem. Phys. 152 154105 (2020);
          URL http://www.quantum-espresso.org", 
     in publications or presentations arising from this work. More details at
     http://www.quantum-espresso.org/quote

     Parallel version (MPI), running on     8 processors

     MPI processes distributed on     1 nodes
     91291 MiB available memory on the printing compute node when the environment starts

     Reading input from /home/jvc/QEspresso7.2/ZnO_DataBase/scf_025_NOSYM.in/scf-5.68-1.78-0.25-3.in

     Current dimensions of program PWSCF are:
     Max number of different atomic species (ntypx) = 10
     Max number of k-points (npk) =  40000
     Max angular momentum in pseudopotentials (lmaxx) =  4
     file Zn.upf: wavefunction(s)  3D renormalized

     R & G space division:  proc/nbgrp/npool/nimage =       8
     Subspace diagonalization in iterative solution of the eigenvalue problem:
     a serial algorithm will be used


     Parallelization info
     --------------------
     sticks:   dense  smooth     PW     G-vecs:    dense   smooth      PW
     Min         111      54     16                 4279     1514     257
     Max         112      55     18                 4284     1519     260
     Sum         889     439    139                34245    12143    2069

     Using Slab Decomposition



     bravais-lattice index     =            0
     lattice parameter (alat)  =       5.6845  a.u.
     unit-cell volume          =     254.5253 (a.u.)^3
     number of atoms/cell      =            4
     number of atomic types    =            2
     number of electrons       =        36.00
     number of Kohn-Sham states=           18
     kinetic-energy cutoff     =      50.0000  Ry
     charge density cutoff     =     400.0000  Ry
     scf convergence threshold =      1.0E-08
     mixing beta               =       0.3000
     number of iterations used =            8  plain     mixing
     Exchange-correlation= PBE
                           (   1   4   3   4   0   0   0)

     celldm(1)=   5.684516  celldm(2)=   0.000000  celldm(3)=   0.000000
     celldm(4)=   0.000000  celldm(5)=   0.000000  celldm(6)=   0.000000

     crystal axes: (cart. coord. in units of alat)
               a(1) = (   1.000000   0.000000   0.000000 )  
               a(2) = (  -0.500000   0.866025   0.000000 )  
               a(3) = (   0.000000   0.000000   1.600000 )  

     reciprocal axes: (cart. coord. in units 2 pi/alat)
               b(1) = (  1.000000  0.577350 -0.000000 )  
               b(2) = (  0.000000  1.154701  0.000000 )  
               b(3) = (  0.000000 -0.000000  0.625000 )  


     PseudoPot. # 1 for Zn read from file:
     ./pseudos/Zn.upf
     MD5 check sum: 7f56cabf9682ed8c977c2f7d0c5985c5
     Pseudo is Ultrasoft + core correction, Zval = 12.0
     Generated using &quot;atomic&quot; code by A. Dal Corso  v.6.2.2
     Using radial grid of 1201 points,  6 beta functions with: 
                l(1) =   0
                l(2) =   0
                l(3) =   1
                l(4) =   1
                l(5) =   2
                l(6) =   2
     Q(r) pseudized with 0 coefficients 


     PseudoPot. # 2 for O  read from file:
     ./pseudos/O.upf
     MD5 check sum: 91400c9766925bcf19f520983a725ff0
     Pseudo is Ultrasoft + core correction, Zval =  6.0
     Generated using &quot;atomic&quot; code by A. Dal Corso  v.6.3MaX
     Using radial grid of 1095 points,  4 beta functions with: 
                l(1) =   0
                l(2) =   0
                l(3) =   1
                l(4) =   1
     Q(r) pseudized with 0 coefficients 


     atomic species   valence    mass     pseudopotential
        Zn            12.00    63.38000     Zn( 1.00)
        O              6.00    15.99900     O ( 1.00)

     No symmetry found



   Cartesian axes

     site n.     atom                  positions (alat units)
         1           Zn  tau(   1) = (   0.3259100   0.2497905   1.0123412  )
         2           Zn  tau(   2) = (  -0.2883224   0.6803641  -0.1854542  )
         3           O   tau(   3) = (   0.6656161   0.2861924   1.7089705  )
         4           O   tau(   4) = (   0.0715048   0.6904812   0.8090555  )

     number of k points=   112

     Number of k-points >= 100: set verbosity='high' to print them.

     Dense  grid:    34245 G-vectors     FFT dimensions: (  40,  40,  60)

     Smooth grid:    12143 G-vectors     FFT dimensions: (  25,  25,  45)

     Estimated max dynamical RAM per process >      24.48 MB

     Estimated total dynamical RAM >     195.83 MB

     Check: negative core charge=   -0.000002

     Initial potential from superposition of free atoms

     starting charge      35.9925, renormalised to      36.0000
     Starting wfcs are   26 randomized atomic wfcs

     total cpu time spent up to now is        3.3 secs

     Self-consistent Calculation

     iteration #  1     ecut=    50.00 Ry     beta= 0.30
     Davidson diagonalization with overlap
     ethr =  1.00E-02,  avg # of iterations =  2.0

     total cpu time spent up to now is        7.5 secs

     total energy              =    -360.58031965 Ry
     estimated scf accuracy    <       0.86954415 Ry

     iteration #  2     ecut=    50.00 Ry     beta= 0.30
     Davidson diagonalization with overlap
     ethr =  2.42E-03,  avg # of iterations =  3.3

     total cpu time spent up to now is       12.3 secs

     total energy              =    -360.74427225 Ry
     estimated scf accuracy    <       0.09218201 Ry

     iteration #  3     ecut=    50.00 Ry     beta= 0.30
     Davidson diagonalization with overlap
     ethr =  2.56E-04,  avg # of iterations =  7.8

     total cpu time spent up to now is       21.9 secs

     total energy              =    -360.79762886 Ry
     estimated scf accuracy    <       0.15230382 Ry

     iteration #  4     ecut=    50.00 Ry     beta= 0.30
     Davidson diagonalization with overlap
     ethr =  2.56E-04,  avg # of iterations =  5.5

     total cpu time spent up to now is       28.8 secs

     total energy              =    -360.84054551 Ry
     estimated scf accuracy    <       0.02453453 Ry

     iteration #  5     ecut=    50.00 Ry     beta= 0.30
     Davidson diagonalization with overlap
     ethr =  6.82E-05,  avg # of iterations =  2.9

     total cpu time spent up to now is       33.3 secs

     total energy              =    -360.83727375 Ry
     estimated scf accuracy    <       0.01622501 Ry

     iteration #  6     ecut=    50.00 Ry     beta= 0.30
     Davidson diagonalization with overlap
     ethr =  4.51E-05,  avg # of iterations =  2.8

     total cpu time spent up to now is       37.9 secs

     total energy              =    -360.83932475 Ry
     estimated scf accuracy    <       0.00152347 Ry

     iteration #  7     ecut=    50.00 Ry     beta= 0.30
     Davidson diagonalization with overlap
     ethr =  4.23E-06,  avg # of iterations =  8.1

     total cpu time spent up to now is       48.2 secs

     total energy              =    -360.84100192 Ry
     estimated scf accuracy    <       0.00417426 Ry

     iteration #  8     ecut=    50.00 Ry     beta= 0.30
     Davidson diagonalization with overlap
     ethr =  4.23E-06,  avg # of iterations =  2.2

     total cpu time spent up to now is       52.6 secs

     total energy              =    -360.84097205 Ry
     estimated scf accuracy    <       0.00152025 Ry

     iteration #  9     ecut=    50.00 Ry     beta= 0.30
     Davidson diagonalization with overlap
     ethr =  4.22E-06,  avg # of iterations =  2.0

     total cpu time spent up to now is       56.5 secs

     total energy              =    -360.84105493 Ry
     estimated scf accuracy    <       0.00087461 Ry

     iteration # 10     ecut=    50.00 Ry     beta= 0.30
     Davidson diagonalization with overlap
     ethr =  2.43E-06,  avg # of iterations =  3.0

     total cpu time spent up to now is       61.1 secs

     total energy              =    -360.84112715 Ry
     estimated scf accuracy    <       0.00041911 Ry

     iteration # 11     ecut=    50.00 Ry     beta= 0.30
     Davidson diagonalization with overlap
     ethr =  1.16E-06,  avg # of iterations =  4.8

     total cpu time spent up to now is       66.6 secs

     total energy              =    -360.84122737 Ry
     estimated scf accuracy    <       0.00005552 Ry

     iteration # 12     ecut=    50.00 Ry     beta= 0.30
     Davidson diagonalization with overlap
     ethr =  1.54E-07,  avg # of iterations =  5.5

     total cpu time spent up to now is       73.1 secs

     total energy              =    -360.84127188 Ry
     estimated scf accuracy    <       0.00000558 Ry

     iteration # 13     ecut=    50.00 Ry     beta= 0.30
     Davidson diagonalization with overlap
     ethr =  1.55E-08,  avg # of iterations =  9.3

     total cpu time spent up to now is       86.2 secs

     total energy              =    -360.84130698 Ry
     estimated scf accuracy    <       0.00014378 Ry

     iteration # 14     ecut=    50.00 Ry     beta= 0.30
     Davidson diagonalization with overlap
     ethr =  1.55E-08,  avg # of iterations =  4.1

     total cpu time spent up to now is       91.2 secs

     total energy              =    -360.84133676 Ry
     estimated scf accuracy    <       0.00018866 Ry

     iteration # 15     ecut=    50.00 Ry     beta= 0.30
     Davidson diagonalization with overlap
     ethr =  1.55E-08,  avg # of iterations =  6.8

     total cpu time spent up to now is       99.6 secs

     total energy              =    -360.84134045 Ry
     estimated scf accuracy    <       0.00034191 Ry

     iteration # 16     ecut=    50.00 Ry     beta= 0.30
     Davidson diagonalization with overlap
     ethr =  1.55E-08,  avg # of iterations =  1.0

     total cpu time spent up to now is      103.2 secs

     total energy              =    -360.84134954 Ry
     estimated scf accuracy    <       0.00034161 Ry

     iteration # 17     ecut=    50.00 Ry     beta= 0.30
     Davidson diagonalization with overlap
     ethr =  1.55E-08,  avg # of iterations =  1.6

     total cpu time spent up to now is      107.1 secs

     total energy              =    -360.84136663 Ry
     estimated scf accuracy    <       0.00036633 Ry

     iteration # 18     ecut=    50.00 Ry     beta= 0.30
     Davidson diagonalization with overlap
     ethr =  1.55E-08,  avg # of iterations =  5.2

     total cpu time spent up to now is      112.9 secs

     total energy              =    -360.84117987 Ry
     estimated scf accuracy    <       0.00045237 Ry

     iteration # 19     ecut=    50.00 Ry     beta= 0.30
     Davidson diagonalization with overlap
     ethr =  1.55E-08,  avg # of iterations = 11.2

     total cpu time spent up to now is      129.0 secs

     total energy              =    -360.84125943 Ry
     estimated scf accuracy    <       0.00000047 Ry

     iteration # 20     ecut=    50.00 Ry     beta= 0.30
     Davidson diagonalization with overlap
     ethr =  1.31E-09,  avg # of iterations =  9.8

     total cpu time spent up to now is      140.1 secs

     total energy              =    -360.84126146 Ry
     estimated scf accuracy    <       0.00000600 Ry

     iteration # 21     ecut=    50.00 Ry     beta= 0.30
     Davidson diagonalization with overlap
     ethr =  1.31E-09,  avg # of iterations =  4.1

     total cpu time spent up to now is      145.1 secs

     total energy              =    -360.84125984 Ry
     estimated scf accuracy    <       0.00000872 Ry

     iteration # 22     ecut=    50.00 Ry     beta= 0.30
     Davidson diagonalization with overlap
     ethr =  1.31E-09,  avg # of iterations =  6.3

     total cpu time spent up to now is      151.4 secs

     total energy              =    -360.84125874 Ry
     estimated scf accuracy    <       0.00000354 Ry

     iteration # 23     ecut=    50.00 Ry     beta= 0.30
     Davidson diagonalization with overlap
     ethr =  1.31E-09,  avg # of iterations =  7.2

     total cpu time spent up to now is      160.6 secs

     total energy              =    -360.84125931 Ry
     estimated scf accuracy    <       0.00000006 Ry

     iteration # 24     ecut=    50.00 Ry     beta= 0.30
     Davidson diagonalization with overlap
     ethr =  1.55E-10,  avg # of iterations =  5.4

     total cpu time spent up to now is      165.9 secs

     total energy              =    -360.84125933 Ry
     estimated scf accuracy    <       0.00000003 Ry

     iteration # 25     ecut=    50.00 Ry     beta= 0.30
     Davidson diagonalization with overlap
     ethr =  7.10E-11,  avg # of iterations =  2.2

     total cpu time spent up to now is      169.9 secs

     total energy              =    -360.84125932 Ry
     estimated scf accuracy    <       0.00000002 Ry

     iteration # 26     ecut=    50.00 Ry     beta= 0.30
     Davidson diagonalization with overlap
     ethr =  4.18E-11,  avg # of iterations =  6.0

     total cpu time spent up to now is      175.8 secs

     End of self-consistent calculation

     Number of k-points >= 100: set verbosity='high' to print the bands.

     highest occupied level (ev):    10.8530

!    total energy              =    -360.84125933 Ry
     estimated scf accuracy    <          1.1E-09 Ry

     The total energy is the sum of the following terms:
     one-electron contribution =    -165.76321572 Ry
     hartree contribution      =     126.65706690 Ry
     xc contribution           =    -110.15267645 Ry
     ewald contribution        =    -211.58243406 Ry

     convergence has been achieved in  26 iterations

     Forces acting on atoms (cartesian axes, Ry/au):

     atom    1 type  1   force =    -0.00371232    0.31893855   -0.27875502
     atom    2 type  1   force =     0.03445314    0.27987759    0.13148688
     atom    3 type  2   force =    -0.06876192   -0.53030565    0.29866237
     atom    4 type  2   force =     0.03802110   -0.06851049   -0.15139424
     The non-local contrib.  to forces
     atom    1 type  1   force =    -0.09213336   -0.13481717    0.77085203
     atom    2 type  1   force =     0.02423055    0.96681886   -1.13352617
     atom    3 type  2   force =    -0.06783448    0.43535628   -1.31958313
     atom    4 type  2   force =    -0.14025692    0.00214624    1.42891129
     The ionic contribution  to forces
     atom    1 type  1   force =    -0.96006148    4.78957735  -17.79897652
     atom    2 type  1   force =    -0.73553999    2.72635828   18.11044062
     atom    3 type  2   force =     0.15247210   -6.69110058   17.29808328
     atom    4 type  2   force =     1.54312936   -0.82483505  -17.60954739
     The local contribution  to forces
     atom    1 type  1   force =     1.03947448   -4.31800306   16.78111188
     atom    2 type  1   force =     0.74255727   -3.33075796  -16.89356819
     atom    3 type  2   force =    -0.15436658    5.72636311  -15.68943051
     atom    4 type  2   force =    -1.36592869    0.75383925   16.04033733
     The core correction contribution to forces
     atom    1 type  1   force =     0.00900770   -0.01781513   -0.03180149
     atom    2 type  1   force =     0.00320052   -0.08255662    0.04823338
     atom    3 type  2   force =     0.00096987   -0.00093466    0.00964575
     atom    4 type  2   force =     0.00108368    0.00034018   -0.01114360
     The Hubbard contrib.    to forces
     atom    1 type  1   force =     0.00000000    0.00000000    0.00000000
     atom    2 type  1   force =     0.00000000    0.00000000    0.00000000
     atom    3 type  2   force =     0.00000000    0.00000000    0.00000000
     atom    4 type  2   force =     0.00000000    0.00000000    0.00000000
     The SCF correction term to forces
     atom    1 type  1   force =     0.00000060   -0.00000174    0.00005779
     atom    2 type  1   force =     0.00000506    0.00001672   -0.00009406
     atom    3 type  2   force =    -0.00000256    0.00001190   -0.00005431
     atom    4 type  2   force =    -0.00000605    0.00000060    0.00004684

     Total force =     0.824899     Total SCF correction =     0.000134

     Writing all to output data dir ./ZnO_ANN.save/

     init_run     :      2.72s CPU      2.80s WALL (       1 calls)
     electrons    :    168.47s CPU    172.56s WALL (       1 calls)
     forces       :      0.93s CPU      0.94s WALL (       1 calls)

     Called by init_run:
     wfcinit      :      1.93s CPU      1.98s WALL (       1 calls)
     potinit      :      0.20s CPU      0.21s WALL (       1 calls)
     hinit0       :      0.53s CPU      0.54s WALL (       1 calls)

     Called by electrons:
     c_bands      :    153.09s CPU    156.69s WALL (      26 calls)
     sum_band     :     13.81s CPU     14.24s WALL (      26 calls)
     v_of_rho     :      0.39s CPU      0.42s WALL (      27 calls)
     newd         :      1.14s CPU      1.17s WALL (      27 calls)
     mix_rho      :      0.06s CPU      0.06s WALL (      26 calls)

     Called by c_bands:
     init_us_2    :      1.10s CPU      1.12s WALL (    6048 calls)
     init_us_2:cp :      1.08s CPU      1.10s WALL (    6048 calls)
     cegterg      :    149.78s CPU    153.32s WALL (    2912 calls)

     Called by *egterg:
     cdiaghg      :     20.47s CPU     20.66s WALL (   17466 calls)
     h_psi        :     82.97s CPU     85.65s WALL (   17578 calls)
     s_psi        :     11.63s CPU     11.74s WALL (   17578 calls)
     g_psi        :      0.32s CPU      0.32s WALL (   14554 calls)

     Called by h_psi:
     h_psi:calbec :     11.82s CPU     12.34s WALL (   17578 calls)
     vloc_psi     :     59.23s CPU     61.23s WALL (   17578 calls)
     add_vuspsi   :     11.60s CPU     11.76s WALL (   17578 calls)

     General routines
     calbec       :     15.43s CPU     16.08s WALL (   20938 calls)
     fft          :      0.52s CPU      0.56s WALL (     360 calls)
     ffts         :      0.06s CPU      0.06s WALL (      53 calls)
     fftw         :     57.90s CPU     59.84s WALL (  430190 calls)
     interpolate  :      0.07s CPU      0.07s WALL (      27 calls)

     Parallel routines

     PWSCF        :   2m52.85s CPU   2m57.17s WALL


   This run was terminated on:  15:11:35  24Jun2025            

=------------------------------------------------------------------------------=
   JOB DONE.
=------------------------------------------------------------------------------=
Note: The following floating-point exceptions are signalling: IEEE_INVALID_FLAG
