
     Program PWSCF v.7.2 starts on 24Jun2025 at 21: 1:29 

     This program is part of the open-source Quantum ESPRESSO suite
     for quantum simulation of materials; please cite
         "P. Giannozzi et al., J. Phys.:Condens. Matter 21 395502 (2009);
         "P. Giannozzi et al., J. Phys.:Condens. Matter 29 465901 (2017);
         "P. Giannozzi et al., J. Chem. Phys. 152 154105 (2020);
          URL http://www.quantum-espresso.org", 
     in publications or presentations arising from this work. More details at
     http://www.quantum-espresso.org/quote

     Parallel version (MPI), running on     8 processors

     MPI processes distributed on     1 nodes
     90599 MiB available memory on the printing compute node when the environment starts

     Reading input from /home/jvc/QEspresso7.2/ZnO_DataBase/scf_025_NOSYM.in/scf-6.80-1.65-0.25-2.in

     Current dimensions of program PWSCF are:
     Max number of different atomic species (ntypx) = 10
     Max number of k-points (npk) =  40000
     Max angular momentum in pseudopotentials (lmaxx) =  4
     file Zn.upf: wavefunction(s)  3D renormalized

     R & G space division:  proc/nbgrp/npool/nimage =       8
     Subspace diagonalization in iterative solution of the eigenvalue problem:
     a serial algorithm will be used


     Parallelization info
     --------------------
     sticks:   dense  smooth     PW     G-vecs:    dense   smooth      PW
     Min         160      81     24                 7354     2595     429
     Max         162      82     26                 7355     2598     432
     Sum        1285     649    199                58833    20773    3441

     Using Slab Decomposition



     bravais-lattice index     =            0
     lattice parameter (alat)  =       6.7967  a.u.
     unit-cell volume          =     435.0564 (a.u.)^3
     number of atoms/cell      =            4
     number of atomic types    =            2
     number of electrons       =        36.00
     number of Kohn-Sham states=           18
     kinetic-energy cutoff     =      50.0000  Ry
     charge density cutoff     =     400.0000  Ry
     scf convergence threshold =      1.0E-08
     mixing beta               =       0.3000
     number of iterations used =            8  plain     mixing
     Exchange-correlation= PBE
                           (   1   4   3   4   0   0   0)

     celldm(1)=   6.796704  celldm(2)=   0.000000  celldm(3)=   0.000000
     celldm(4)=   0.000000  celldm(5)=   0.000000  celldm(6)=   0.000000

     crystal axes: (cart. coord. in units of alat)
               a(1) = (   1.000000   0.000000   0.000000 )  
               a(2) = (  -0.500000   0.866025   0.000000 )  
               a(3) = (   0.000000   0.000000   1.600000 )  

     reciprocal axes: (cart. coord. in units 2 pi/alat)
               b(1) = (  1.000000  0.577350 -0.000000 )  
               b(2) = (  0.000000  1.154701  0.000000 )  
               b(3) = (  0.000000 -0.000000  0.625000 )  


     PseudoPot. # 1 for Zn read from file:
     ./pseudos/Zn.upf
     MD5 check sum: 7f56cabf9682ed8c977c2f7d0c5985c5
     Pseudo is Ultrasoft + core correction, Zval = 12.0
     Generated using &quot;atomic&quot; code by A. Dal Corso  v.6.2.2
     Using radial grid of 1201 points,  6 beta functions with: 
                l(1) =   0
                l(2) =   0
                l(3) =   1
                l(4) =   1
                l(5) =   2
                l(6) =   2
     Q(r) pseudized with 0 coefficients 


     PseudoPot. # 2 for O  read from file:
     ./pseudos/O.upf
     MD5 check sum: 91400c9766925bcf19f520983a725ff0
     Pseudo is Ultrasoft + core correction, Zval =  6.0
     Generated using &quot;atomic&quot; code by A. Dal Corso  v.6.3MaX
     Using radial grid of 1095 points,  4 beta functions with: 
                l(1) =   0
                l(2) =   0
                l(3) =   1
                l(4) =   1
     Q(r) pseudized with 0 coefficients 


     atomic species   valence    mass     pseudopotential
        Zn            12.00    63.38000     Zn( 1.00)
        O              6.00    15.99900     O ( 1.00)

     No symmetry found



   Cartesian axes

     site n.     atom                  positions (alat units)
         1           Zn  tau(   1) = (   0.6196659   0.2512110   0.6613483  )
         2           Zn  tau(   2) = (  -0.1154714   0.5148319  -0.3840720  )
         3           O   tau(   3) = (   0.6228416   0.1658692   1.7525734  )
         4           O   tau(   4) = (   0.0460903   0.4202488   1.0009585  )

     number of k points=   112

     Number of k-points >= 100: set verbosity='high' to print them.

     Dense  grid:    58833 G-vectors     FFT dimensions: (  45,  45,  72)

     Smooth grid:    20773 G-vectors     FFT dimensions: (  32,  32,  50)

     Estimated max dynamical RAM per process >      39.41 MB

     Estimated total dynamical RAM >     315.24 MB

     Check: negative core charge=   -0.000002

     Initial potential from superposition of free atoms

     starting charge      35.9925, renormalised to      36.0000
     Starting wfcs are   26 randomized atomic wfcs

     total cpu time spent up to now is        4.6 secs

     Self-consistent Calculation

     iteration #  1     ecut=    50.00 Ry     beta= 0.30
     Davidson diagonalization with overlap
     ethr =  1.00E-02,  avg # of iterations =  3.6

     total cpu time spent up to now is       11.5 secs

     total energy              =    -358.60435053 Ry
     estimated scf accuracy    <       1.58575663 Ry

     iteration #  2     ecut=    50.00 Ry     beta= 0.30
     Davidson diagonalization with overlap
     ethr =  4.40E-03,  avg # of iterations =  4.0

     total cpu time spent up to now is       19.0 secs

     total energy              =    -358.77641096 Ry
     estimated scf accuracy    <       0.20918979 Ry

     iteration #  3     ecut=    50.00 Ry     beta= 0.30
     Davidson diagonalization with overlap
     c_bands:  1 eigenvalues not converged
     ethr =  5.81E-04,  avg # of iterations =  6.9

     total cpu time spent up to now is       31.1 secs

     total energy              =    -358.88364028 Ry
     estimated scf accuracy    <       0.23304604 Ry

     iteration #  4     ecut=    50.00 Ry     beta= 0.30
     Davidson diagonalization with overlap
     ethr =  5.81E-04,  avg # of iterations =  5.9

     total cpu time spent up to now is       40.0 secs

     total energy              =    -358.93713245 Ry
     estimated scf accuracy    <       0.04588964 Ry

     iteration #  5     ecut=    50.00 Ry     beta= 0.30
     Davidson diagonalization with overlap
     ethr =  1.27E-04,  avg # of iterations =  4.8

     total cpu time spent up to now is       47.8 secs

     total energy              =    -358.94265021 Ry
     estimated scf accuracy    <       0.00892556 Ry

     iteration #  6     ecut=    50.00 Ry     beta= 0.30
     Davidson diagonalization with overlap
     c_bands:  2 eigenvalues not converged
     ethr =  2.48E-05,  avg # of iterations =  6.6

     total cpu time spent up to now is       56.6 secs

     total energy              =    -358.94565914 Ry
     estimated scf accuracy    <       0.00473328 Ry

     iteration #  7     ecut=    50.00 Ry     beta= 0.30
     Davidson diagonalization with overlap
     c_bands:  2 eigenvalues not converged
     ethr =  1.31E-05,  avg # of iterations =  6.3

     total cpu time spent up to now is       64.8 secs

     total energy              =    -358.94626485 Ry
     estimated scf accuracy    <       0.00191927 Ry

     iteration #  8     ecut=    50.00 Ry     beta= 0.30
     Davidson diagonalization with overlap
     ethr =  5.33E-06,  avg # of iterations =  4.4

     total cpu time spent up to now is       72.7 secs

     total energy              =    -358.94626991 Ry
     estimated scf accuracy    <       0.00111299 Ry

     iteration #  9     ecut=    50.00 Ry     beta= 0.30
     Davidson diagonalization with overlap
     ethr =  3.09E-06,  avg # of iterations =  6.6

     total cpu time spent up to now is       82.0 secs

     total energy              =    -358.94667077 Ry
     estimated scf accuracy    <       0.00057165 Ry

     iteration # 10     ecut=    50.00 Ry     beta= 0.30
     Davidson diagonalization with overlap
     ethr =  1.59E-06,  avg # of iterations =  2.7

     total cpu time spent up to now is       88.2 secs

     total energy              =    -358.94657208 Ry
     estimated scf accuracy    <       0.00053388 Ry

     iteration # 11     ecut=    50.00 Ry     beta= 0.30
     Davidson diagonalization with overlap
     ethr =  1.48E-06,  avg # of iterations =  2.0

     total cpu time spent up to now is       94.4 secs

     total energy              =    -358.94651588 Ry
     estimated scf accuracy    <       0.00024626 Ry

     iteration # 12     ecut=    50.00 Ry     beta= 0.30
     Davidson diagonalization with overlap
     c_bands:  1 eigenvalues not converged
     ethr =  6.84E-07,  avg # of iterations =  7.4

     total cpu time spent up to now is      103.9 secs

     total energy              =    -358.94661939 Ry
     estimated scf accuracy    <       0.00021808 Ry

     iteration # 13     ecut=    50.00 Ry     beta= 0.30
     Davidson diagonalization with overlap
     ethr =  6.06E-07,  avg # of iterations =  1.2

     total cpu time spent up to now is      109.2 secs

     total energy              =    -358.94658943 Ry
     estimated scf accuracy    <       0.00011275 Ry

     iteration # 14     ecut=    50.00 Ry     beta= 0.30
     Davidson diagonalization with overlap
     ethr =  3.13E-07,  avg # of iterations =  7.2

     total cpu time spent up to now is      117.6 secs

     total energy              =    -358.94664496 Ry
     estimated scf accuracy    <       0.00008276 Ry

     iteration # 15     ecut=    50.00 Ry     beta= 0.30
     Davidson diagonalization with overlap
     ethr =  2.30E-07,  avg # of iterations =  1.1

     total cpu time spent up to now is      122.8 secs

     total energy              =    -358.94662263 Ry
     estimated scf accuracy    <       0.00007606 Ry

     iteration # 16     ecut=    50.00 Ry     beta= 0.30
     Davidson diagonalization with overlap
     ethr =  2.11E-07,  avg # of iterations =  5.6

     total cpu time spent up to now is      129.9 secs

     total energy              =    -358.94663472 Ry
     estimated scf accuracy    <       0.00000248 Ry

     iteration # 17     ecut=    50.00 Ry     beta= 0.30
     Davidson diagonalization with overlap
     ethr =  6.88E-09,  avg # of iterations =  8.2

     total cpu time spent up to now is      139.9 secs

     total energy              =    -358.94663663 Ry
     estimated scf accuracy    <       0.00000105 Ry

     iteration # 18     ecut=    50.00 Ry     beta= 0.30
     Davidson diagonalization with overlap
     c_bands:  2 eigenvalues not converged
     ethr =  2.91E-09,  avg # of iterations =  7.0

     total cpu time spent up to now is      149.3 secs

     total energy              =    -358.94663672 Ry
     estimated scf accuracy    <       0.00000218 Ry

     iteration # 19     ecut=    50.00 Ry     beta= 0.30
     Davidson diagonalization with overlap
     ethr =  2.91E-09,  avg # of iterations =  5.6

     total cpu time spent up to now is      156.2 secs

     total energy              =    -358.94663687 Ry
     estimated scf accuracy    <       0.00000034 Ry

     iteration # 20     ecut=    50.00 Ry     beta= 0.30
     Davidson diagonalization with overlap
     ethr =  9.33E-10,  avg # of iterations =  6.3

     total cpu time spent up to now is      163.7 secs

     total energy              =    -358.94663694 Ry
     estimated scf accuracy    <       0.00000008 Ry

     iteration # 21     ecut=    50.00 Ry     beta= 0.30
     Davidson diagonalization with overlap
     ethr =  2.28E-10,  avg # of iterations =  3.8

     total cpu time spent up to now is      170.5 secs

     total energy              =    -358.94663695 Ry
     estimated scf accuracy    <       0.00000002 Ry

     iteration # 22     ecut=    50.00 Ry     beta= 0.30
     Davidson diagonalization with overlap
     c_bands:  1 eigenvalues not converged
     c_bands:  1 eigenvalues not converged
     c_bands:  1 eigenvalues not converged
     ethr =  4.68E-11,  avg # of iterations = 10.3

     total cpu time spent up to now is      185.4 secs

     total energy              =    -358.94663698 Ry
     estimated scf accuracy    <       0.00000015 Ry

     iteration # 23     ecut=    50.00 Ry     beta= 0.30
     Davidson diagonalization with overlap
     ethr =  4.68E-11,  avg # of iterations =  1.1

     total cpu time spent up to now is      190.9 secs

     total energy              =    -358.94663695 Ry
     estimated scf accuracy    <       0.00000014 Ry

     iteration # 24     ecut=    50.00 Ry     beta= 0.30
     Davidson diagonalization with overlap
     c_bands:  2 eigenvalues not converged
     c_bands:  2 eigenvalues not converged
     ethr =  4.68E-11,  avg # of iterations =  7.5

     total cpu time spent up to now is      200.2 secs

     total energy              =    -358.94663696 Ry
     estimated scf accuracy    <       0.00000002 Ry

     iteration # 25     ecut=    50.00 Ry     beta= 0.30
     Davidson diagonalization with overlap
     ethr =  4.68E-11,  avg # of iterations =  1.5

     total cpu time spent up to now is      205.8 secs

     total energy              =    -358.94663696 Ry
     estimated scf accuracy    <       0.00000002 Ry

     iteration # 26     ecut=    50.00 Ry     beta= 0.30
     Davidson diagonalization with overlap
     ethr =  4.28E-11,  avg # of iterations =  1.9

     total cpu time spent up to now is      211.8 secs

     End of self-consistent calculation

     Number of k-points >= 100: set verbosity='high' to print the bands.

     highest occupied level (ev):     5.0499

!    total energy              =    -358.94663695 Ry
     estimated scf accuracy    <          7.0E-09 Ry

     The total energy is the sum of the following terms:
     one-electron contribution =    -242.41608531 Ry
     hartree contribution      =     155.27047904 Ry
     xc contribution           =    -109.87380977 Ry
     ewald contribution        =    -161.92722091 Ry

     convergence has been achieved in  26 iterations

     Forces acting on atoms (cartesian axes, Ry/au):

     atom    1 type  1   force =    -0.02188450   -0.01368275   -0.13025363
     atom    2 type  1   force =    -3.85090572    2.24686475    5.28599941
     atom    3 type  2   force =    -0.00245694    0.01347385    0.00176740
     atom    4 type  2   force =     3.87524716   -2.24665585   -5.15751317
     The non-local contrib.  to forces
     atom    1 type  1   force =    -0.04434071    0.07418815    0.99022098
     atom    2 type  1   force =     0.01399972   -0.07550395   -0.56060599
     atom    3 type  2   force =    -0.02912953    0.34037437    0.73655040
     atom    4 type  2   force =    -0.87308461    0.26502197    0.41591185
     The ionic contribution  to forces
     atom    1 type  1   force =    -3.41882694   -1.32226776  -10.88916457
     atom    2 type  1   force =   -17.25855894   13.12187292   36.71330278
     atom    3 type  2   force =    -0.46672248   -1.65907553   -4.20729268
     atom    4 type  2   force =    21.14410836  -10.14052964  -21.61684553
     The local contribution  to forces
     atom    1 type  1   force =     3.42682830    1.23308524    9.80356066
     atom    2 type  1   force =    13.13748569  -10.64383094  -30.53283791
     atom    3 type  2   force =     0.49288046    1.33550125    3.47934177
     atom    4 type  2   force =   -16.39058935    7.62387062   16.03071786
     The core correction contribution to forces
     atom    1 type  1   force =     0.01443356    0.00134455   -0.03466992
     atom    2 type  1   force =     0.25630912   -0.15575348   -0.33416450
     atom    3 type  2   force =     0.00049314   -0.00331308   -0.00678965
     atom    4 type  2   force =    -0.00521799    0.00500247    0.01272923
     The Hubbard contrib.    to forces
     atom    1 type  1   force =     0.00000000    0.00000000    0.00000000
     atom    2 type  1   force =     0.00000000    0.00000000    0.00000000
     atom    3 type  2   force =     0.00000000    0.00000000    0.00000000
     atom    4 type  2   force =     0.00000000    0.00000000    0.00000000
     The SCF correction term to forces
     atom    1 type  1   force =    -0.00000085   -0.00001917   -0.00016819
     atom    2 type  1   force =    -0.00016345    0.00009397    0.00033763
     atom    3 type  2   force =    -0.00000068    0.00000061   -0.00000985
     atom    4 type  2   force =     0.00000861   -0.00000750    0.00000600

     Total force =     9.721236     Total SCF correction =     0.000422

     Writing all to output data dir ./ZnO_ANN.save/

     init_run     :      4.06s CPU      4.16s WALL (       1 calls)
     electrons    :    203.75s CPU    207.23s WALL (       1 calls)
     forces       :      1.53s CPU      1.54s WALL (       1 calls)

     Called by init_run:
     wfcinit      :      2.98s CPU      3.04s WALL (       1 calls)
     potinit      :      0.39s CPU      0.40s WALL (       1 calls)
     hinit0       :      0.59s CPU      0.60s WALL (       1 calls)

     Called by electrons:
     c_bands      :    179.42s CPU    182.38s WALL (      26 calls)
     sum_band     :     21.73s CPU     22.19s WALL (      26 calls)
     v_of_rho     :      0.54s CPU      0.58s WALL (      27 calls)
     newd         :      2.00s CPU      2.03s WALL (      27 calls)
     mix_rho      :      0.09s CPU      0.10s WALL (      26 calls)

     Called by c_bands:
     init_us_2    :      1.82s CPU      1.85s WALL (    6048 calls)
     init_us_2:cp :      1.80s CPU      1.83s WALL (    6048 calls)
     cegterg      :    173.81s CPU    176.69s WALL (    2912 calls)

     Called by *egterg:
     cdiaghg      :     19.13s CPU     19.29s WALL (   17427 calls)
     h_psi        :     99.42s CPU    101.55s WALL (   17539 calls)
     s_psi        :     14.60s CPU     14.71s WALL (   17539 calls)
     g_psi        :      0.37s CPU      0.37s WALL (   14515 calls)

     Called by h_psi:
     h_psi:calbec :     15.35s CPU     15.79s WALL (   17539 calls)
     vloc_psi     :     69.07s CPU     70.65s WALL (   17539 calls)
     add_vuspsi   :     14.62s CPU     14.73s WALL (   17539 calls)

     General routines
     calbec       :     21.30s CPU     21.87s WALL (   20899 calls)
     fft          :      0.67s CPU      0.73s WALL (     360 calls)
     ffts         :      0.13s CPU      0.13s WALL (      53 calls)
     fftw         :     68.93s CPU     70.50s WALL (  353382 calls)
     interpolate  :      0.15s CPU      0.15s WALL (      27 calls)

     Parallel routines

     PWSCF        :   3m30.14s CPU   3m34.03s WALL


   This run was terminated on:  21: 5: 3  24Jun2025            

=------------------------------------------------------------------------------=
   JOB DONE.
=------------------------------------------------------------------------------=
Note: The following floating-point exceptions are signalling: IEEE_INVALID_FLAG
