
     Program PWSCF v.7.2 starts on 24Jun2025 at 14:52:32 

     This program is part of the open-source Quantum ESPRESSO suite
     for quantum simulation of materials; please cite
         "P. Giannozzi et al., J. Phys.:Condens. Matter 21 395502 (2009);
         "P. Giannozzi et al., J. Phys.:Condens. Matter 29 465901 (2017);
         "P. Giannozzi et al., J. Chem. Phys. 152 154105 (2020);
          URL http://www.quantum-espresso.org", 
     in publications or presentations arising from this work. More details at
     http://www.quantum-espresso.org/quote

     Parallel version (MPI), running on     8 processors

     MPI processes distributed on     1 nodes
     91264 MiB available memory on the printing compute node when the environment starts

     Reading input from /home/jvc/QEspresso7.2/ZnO_DataBase/scf_025_NOSYM.in/scf-5.68-1.52-0.25-5.in

     Current dimensions of program PWSCF are:
     Max number of different atomic species (ntypx) = 10
     Max number of k-points (npk) =  40000
     Max angular momentum in pseudopotentials (lmaxx) =  4
     file Zn.upf: wavefunction(s)  3D renormalized

     R & G space division:  proc/nbgrp/npool/nimage =       8
     Subspace diagonalization in iterative solution of the eigenvalue problem:
     a serial algorithm will be used


     Parallelization info
     --------------------
     sticks:   dense  smooth     PW     G-vecs:    dense   smooth      PW
     Min         111      54     16                 4279     1514     257
     Max         112      55     18                 4284     1519     260
     Sum         889     439    139                34245    12143    2069

     Using Slab Decomposition



     bravais-lattice index     =            0
     lattice parameter (alat)  =       5.6845  a.u.
     unit-cell volume          =     254.5253 (a.u.)^3
     number of atoms/cell      =            4
     number of atomic types    =            2
     number of electrons       =        36.00
     number of Kohn-Sham states=           18
     kinetic-energy cutoff     =      50.0000  Ry
     charge density cutoff     =     400.0000  Ry
     scf convergence threshold =      1.0E-08
     mixing beta               =       0.3000
     number of iterations used =            8  plain     mixing
     Exchange-correlation= PBE
                           (   1   4   3   4   0   0   0)

     celldm(1)=   5.684516  celldm(2)=   0.000000  celldm(3)=   0.000000
     celldm(4)=   0.000000  celldm(5)=   0.000000  celldm(6)=   0.000000

     crystal axes: (cart. coord. in units of alat)
               a(1) = (   1.000000   0.000000   0.000000 )  
               a(2) = (  -0.500000   0.866025   0.000000 )  
               a(3) = (   0.000000   0.000000   1.600000 )  

     reciprocal axes: (cart. coord. in units 2 pi/alat)
               b(1) = (  1.000000  0.577350 -0.000000 )  
               b(2) = (  0.000000  1.154701  0.000000 )  
               b(3) = (  0.000000 -0.000000  0.625000 )  


     PseudoPot. # 1 for Zn read from file:
     ./pseudos/Zn.upf
     MD5 check sum: 7f56cabf9682ed8c977c2f7d0c5985c5
     Pseudo is Ultrasoft + core correction, Zval = 12.0
     Generated using &quot;atomic&quot; code by A. Dal Corso  v.6.2.2
     Using radial grid of 1201 points,  6 beta functions with: 
                l(1) =   0
                l(2) =   0
                l(3) =   1
                l(4) =   1
                l(5) =   2
                l(6) =   2
     Q(r) pseudized with 0 coefficients 


     PseudoPot. # 2 for O  read from file:
     ./pseudos/O.upf
     MD5 check sum: 91400c9766925bcf19f520983a725ff0
     Pseudo is Ultrasoft + core correction, Zval =  6.0
     Generated using &quot;atomic&quot; code by A. Dal Corso  v.6.3MaX
     Using radial grid of 1095 points,  4 beta functions with: 
                l(1) =   0
                l(2) =   0
                l(3) =   1
                l(4) =   1
     Q(r) pseudized with 0 coefficients 


     atomic species   valence    mass     pseudopotential
        Zn            12.00    63.38000     Zn( 1.00)
        O              6.00    15.99900     O ( 1.00)

     No symmetry found



   Cartesian axes

     site n.     atom                  positions (alat units)
         1           Zn  tau(   1) = (   0.6673810   0.2482851   0.4739846  )
         2           Zn  tau(   2) = (  -0.0669166   0.6392033  -0.3372499  )
         3           O   tau(   3) = (   0.4455725   0.2064730   1.6494703  )
         4           O   tau(   4) = (  -0.1822135   0.5025888   0.8240632  )

     number of k points=   112

     Number of k-points >= 100: set verbosity='high' to print them.

     Dense  grid:    34245 G-vectors     FFT dimensions: (  40,  40,  60)

     Smooth grid:    12143 G-vectors     FFT dimensions: (  25,  25,  45)

     Estimated max dynamical RAM per process >      24.48 MB

     Estimated total dynamical RAM >     195.83 MB

     Check: negative core charge=   -0.000002

     Initial potential from superposition of free atoms

     starting charge      35.9925, renormalised to      36.0000
     Starting wfcs are   26 randomized atomic wfcs

     total cpu time spent up to now is        3.3 secs

     Self-consistent Calculation

     iteration #  1     ecut=    50.00 Ry     beta= 0.30
     Davidson diagonalization with overlap
     ethr =  1.00E-02,  avg # of iterations =  2.1

     total cpu time spent up to now is        7.5 secs

     total energy              =    -360.57196814 Ry
     estimated scf accuracy    <       0.97874690 Ry

     iteration #  2     ecut=    50.00 Ry     beta= 0.30
     Davidson diagonalization with overlap
     ethr =  2.72E-03,  avg # of iterations =  2.1

     total cpu time spent up to now is       12.3 secs

     total energy              =    -360.62277076 Ry
     estimated scf accuracy    <       0.18480914 Ry

     iteration #  3     ecut=    50.00 Ry     beta= 0.30
     Davidson diagonalization with overlap
     ethr =  5.13E-04,  avg # of iterations =  5.9

     total cpu time spent up to now is       20.5 secs

     total energy              =    -360.72554795 Ry
     estimated scf accuracy    <       0.08650554 Ry

     iteration #  4     ecut=    50.00 Ry     beta= 0.30
     Davidson diagonalization with overlap
     ethr =  2.40E-04,  avg # of iterations =  2.4

     total cpu time spent up to now is       25.1 secs

     total energy              =    -360.73644733 Ry
     estimated scf accuracy    <       0.01163988 Ry

     iteration #  5     ecut=    50.00 Ry     beta= 0.30
     Davidson diagonalization with overlap
     ethr =  3.23E-05,  avg # of iterations =  9.1

     total cpu time spent up to now is       38.5 secs

     total energy              =    -360.68437225 Ry
     estimated scf accuracy    <       0.23324169 Ry

     iteration #  6     ecut=    50.00 Ry     beta= 0.30
     Davidson diagonalization with overlap
     ethr =  3.23E-05,  avg # of iterations =  8.5

     total cpu time spent up to now is       51.0 secs

     total energy              =    -360.74394037 Ry
     estimated scf accuracy    <       0.00682979 Ry

     iteration #  7     ecut=    50.00 Ry     beta= 0.30
     Davidson diagonalization with overlap
     ethr =  1.90E-05,  avg # of iterations =  1.3

     total cpu time spent up to now is       54.7 secs

     total energy              =    -360.74248536 Ry
     estimated scf accuracy    <       0.00312064 Ry

     iteration #  8     ecut=    50.00 Ry     beta= 0.30
     Davidson diagonalization with overlap
     ethr =  8.67E-06,  avg # of iterations =  4.8

     total cpu time spent up to now is       61.7 secs

     total energy              =    -360.74395952 Ry
     estimated scf accuracy    <       0.00030051 Ry

     iteration #  9     ecut=    50.00 Ry     beta= 0.30
     Davidson diagonalization with overlap
     ethr =  8.35E-07,  avg # of iterations =  3.3

     total cpu time spent up to now is       66.9 secs

     total energy              =    -360.74397907 Ry
     estimated scf accuracy    <       0.00018749 Ry

     iteration # 10     ecut=    50.00 Ry     beta= 0.30
     Davidson diagonalization with overlap
     ethr =  5.21E-07,  avg # of iterations =  1.7

     total cpu time spent up to now is       70.9 secs

     total energy              =    -360.74396873 Ry
     estimated scf accuracy    <       0.00007053 Ry

     iteration # 11     ecut=    50.00 Ry     beta= 0.30
     Davidson diagonalization with overlap
     ethr =  1.96E-07,  avg # of iterations =  3.8

     total cpu time spent up to now is       76.3 secs

     total energy              =    -360.74399022 Ry
     estimated scf accuracy    <       0.00000246 Ry

     iteration # 12     ecut=    50.00 Ry     beta= 0.30
     Davidson diagonalization with overlap
     ethr =  6.84E-09,  avg # of iterations =  8.0

     total cpu time spent up to now is       86.8 secs

     total energy              =    -360.74399379 Ry
     estimated scf accuracy    <       0.00000901 Ry

     iteration # 13     ecut=    50.00 Ry     beta= 0.30
     Davidson diagonalization with overlap
     ethr =  6.84E-09,  avg # of iterations =  4.2

     total cpu time spent up to now is       92.5 secs

     total energy              =    -360.74399386 Ry
     estimated scf accuracy    <       0.00000130 Ry

     iteration # 14     ecut=    50.00 Ry     beta= 0.30
     Davidson diagonalization with overlap
     ethr =  3.62E-09,  avg # of iterations =  4.8

     total cpu time spent up to now is       98.9 secs

     total energy              =    -360.74399459 Ry
     estimated scf accuracy    <       0.00000022 Ry

     iteration # 15     ecut=    50.00 Ry     beta= 0.30
     Davidson diagonalization with overlap
     ethr =  6.12E-10,  avg # of iterations =  2.8

     total cpu time spent up to now is      103.3 secs

     total energy              =    -360.74399455 Ry
     estimated scf accuracy    <       0.00000014 Ry

     iteration # 16     ecut=    50.00 Ry     beta= 0.30
     Davidson diagonalization with overlap
     ethr =  3.79E-10,  avg # of iterations =  3.6

     total cpu time spent up to now is      108.5 secs

     End of self-consistent calculation

     Number of k-points >= 100: set verbosity='high' to print the bands.

     highest occupied level (ev):    11.1085

!    total energy              =    -360.74399458 Ry
     estimated scf accuracy    <          6.6E-10 Ry

     The total energy is the sum of the following terms:
     one-electron contribution =    -139.70223660 Ry
     hartree contribution      =     114.62059321 Ry
     xc contribution           =    -110.46766430 Ry
     ewald contribution        =    -225.19468689 Ry

     convergence has been achieved in  16 iterations

     Forces acting on atoms (cartesian axes, Ry/au):

     atom    1 type  1   force =    -0.03270946   -0.46587708   -0.18769520
     atom    2 type  1   force =     0.18955183    0.19978867    0.72411321
     atom    3 type  2   force =    -0.33720602   -0.04798249   -0.62232336
     atom    4 type  2   force =     0.18036365    0.31407090    0.08590535
     The non-local contrib.  to forces
     atom    1 type  1   force =     0.10984447   -0.47626196    0.04368344
     atom    2 type  1   force =     0.29378705   -0.03683332    0.62599247
     atom    3 type  2   force =     0.43281810   -0.49840570    0.13936878
     atom    4 type  2   force =     0.05997525   -0.34187169    0.23475976
     The ionic contribution  to forces
     atom    1 type  1   force =     1.02887450   -6.27326002   -1.22418903
     atom    2 type  1   force =     3.28476970    0.72948649    7.30054276
     atom    3 type  2   force =    -5.55823043    2.01789345   -6.01368143
     atom    4 type  2   force =     1.24458623    3.52588008   -0.06267230
     The local contribution  to forces
     atom    1 type  1   force =    -1.15839515    6.19015041    0.98686645
     atom    2 type  1   force =    -3.34839318   -0.48965854   -7.10352287
     atom    3 type  2   force =     4.79002419   -1.57190267    5.25005231
     atom    4 type  2   force =    -1.12279150   -2.87134498   -0.08380255
     The core correction contribution to forces
     atom    1 type  1   force =    -0.01302911    0.09354067    0.00601612
     atom    2 type  1   force =    -0.04062652   -0.00320730   -0.09898174
     atom    3 type  2   force =    -0.00182537    0.00443254    0.00193147
     atom    4 type  2   force =    -0.00140961    0.00140481   -0.00238377
     The Hubbard contrib.    to forces
     atom    1 type  1   force =     0.00000000    0.00000000    0.00000000
     atom    2 type  1   force =     0.00000000    0.00000000    0.00000000
     atom    3 type  2   force =     0.00000000    0.00000000    0.00000000
     atom    4 type  2   force =     0.00000000    0.00000000    0.00000000
     The SCF correction term to forces
     atom    1 type  1   force =    -0.00000892   -0.00004375   -0.00007334
     atom    2 type  1   force =     0.00001004    0.00000377    0.00008142
     atom    3 type  2   force =     0.00000274    0.00000231    0.00000435
     atom    4 type  2   force =    -0.00000148    0.00000510    0.00000304

     Total force =     1.222855     Total SCF correction =     0.000119

     Writing all to output data dir ./ZnO_ANN.save/

     init_run     :      2.78s CPU      2.86s WALL (       1 calls)
     electrons    :    102.77s CPU    105.21s WALL (       1 calls)
     forces       :      0.86s CPU      0.88s WALL (       1 calls)

     Called by init_run:
     wfcinit      :      1.99s CPU      2.03s WALL (       1 calls)
     potinit      :      0.20s CPU      0.21s WALL (       1 calls)
     hinit0       :      0.53s CPU      0.54s WALL (       1 calls)

     Called by electrons:
     c_bands      :     93.29s CPU     95.43s WALL (      16 calls)
     sum_band     :      8.53s CPU      8.79s WALL (      16 calls)
     v_of_rho     :      0.24s CPU      0.25s WALL (      17 calls)
     newd         :      0.72s CPU      0.74s WALL (      17 calls)
     mix_rho      :      0.03s CPU      0.04s WALL (      16 calls)

     Called by c_bands:
     init_us_2    :      0.65s CPU      0.66s WALL (    3808 calls)
     init_us_2:cp :      0.64s CPU      0.65s WALL (    3808 calls)
     cegterg      :     91.27s CPU     93.37s WALL (    1792 calls)

     Called by *egterg:
     cdiaghg      :     10.66s CPU     10.75s WALL (    9482 calls)
     h_psi        :     51.53s CPU     53.08s WALL (    9594 calls)
     s_psi        :      6.49s CPU      6.56s WALL (    9594 calls)
     g_psi        :      0.20s CPU      0.20s WALL (    7690 calls)

     Called by h_psi:
     h_psi:calbec :      7.40s CPU      7.73s WALL (    9594 calls)
     vloc_psi     :     37.48s CPU     38.62s WALL (    9594 calls)
     add_vuspsi   :      6.49s CPU      6.56s WALL (    9594 calls)

     General routines
     calbec       :      9.81s CPU     10.23s WALL (   11834 calls)
     fft          :      0.43s CPU      0.45s WALL (     230 calls)
     ffts         :      0.05s CPU      0.05s WALL (      33 calls)
     fftw         :     37.08s CPU     38.21s WALL (  272326 calls)
     interpolate  :      0.06s CPU      0.06s WALL (      17 calls)

     Parallel routines

     PWSCF        :   1m47.10s CPU   1m49.76s WALL


   This run was terminated on:  14:54:21  24Jun2025            

=------------------------------------------------------------------------------=
   JOB DONE.
=------------------------------------------------------------------------------=
Note: The following floating-point exceptions are signalling: IEEE_INVALID_FLAG
