
     Program PWSCF v.7.2 starts on 24Jun2025 at 17:16: 2 

     This program is part of the open-source Quantum ESPRESSO suite
     for quantum simulation of materials; please cite
         "P. Giannozzi et al., J. Phys.:Condens. Matter 21 395502 (2009);
         "P. Giannozzi et al., J. Phys.:Condens. Matter 29 465901 (2017);
         "P. Giannozzi et al., J. Chem. Phys. 152 154105 (2020);
          URL http://www.quantum-espresso.org", 
     in publications or presentations arising from this work. More details at
     http://www.quantum-espresso.org/quote

     Parallel version (MPI), running on     8 processors

     MPI processes distributed on     1 nodes
     91000 MiB available memory on the printing compute node when the environment starts

     Reading input from /home/jvc/QEspresso7.2/ZnO_DataBase/scf_025_NOSYM.in/scf-6.18-1.71-0.25-3.in

     Current dimensions of program PWSCF are:
     Max number of different atomic species (ntypx) = 10
     Max number of k-points (npk) =  40000
     Max angular momentum in pseudopotentials (lmaxx) =  4
     file Zn.upf: wavefunction(s)  3D renormalized

     R & G space division:  proc/nbgrp/npool/nimage =       8
     Subspace diagonalization in iterative solution of the eigenvalue problem:
     a serial algorithm will be used


     Parallelization info
     --------------------
     sticks:   dense  smooth     PW     G-vecs:    dense   smooth      PW
     Min         130      64     20                 5518     1944     332
     Max         131      66     21                 5522     1946     337
     Sum        1045     517    163                44163    15561    2671

     Using Slab Decomposition



     bravais-lattice index     =            0
     lattice parameter (alat)  =       6.1788  a.u.
     unit-cell volume          =     326.8643 (a.u.)^3
     number of atoms/cell      =            4
     number of atomic types    =            2
     number of electrons       =        36.00
     number of Kohn-Sham states=           18
     kinetic-energy cutoff     =      50.0000  Ry
     charge density cutoff     =     400.0000  Ry
     scf convergence threshold =      1.0E-08
     mixing beta               =       0.3000
     number of iterations used =            8  plain     mixing
     Exchange-correlation= PBE
                           (   1   4   3   4   0   0   0)

     celldm(1)=   6.178821  celldm(2)=   0.000000  celldm(3)=   0.000000
     celldm(4)=   0.000000  celldm(5)=   0.000000  celldm(6)=   0.000000

     crystal axes: (cart. coord. in units of alat)
               a(1) = (   1.000000   0.000000   0.000000 )  
               a(2) = (  -0.500000   0.866025   0.000000 )  
               a(3) = (   0.000000   0.000000   1.600000 )  

     reciprocal axes: (cart. coord. in units 2 pi/alat)
               b(1) = (  1.000000  0.577350 -0.000000 )  
               b(2) = (  0.000000  1.154701  0.000000 )  
               b(3) = (  0.000000 -0.000000  0.625000 )  


     PseudoPot. # 1 for Zn read from file:
     ./pseudos/Zn.upf
     MD5 check sum: 7f56cabf9682ed8c977c2f7d0c5985c5
     Pseudo is Ultrasoft + core correction, Zval = 12.0
     Generated using &quot;atomic&quot; code by A. Dal Corso  v.6.2.2
     Using radial grid of 1201 points,  6 beta functions with: 
                l(1) =   0
                l(2) =   0
                l(3) =   1
                l(4) =   1
                l(5) =   2
                l(6) =   2
     Q(r) pseudized with 0 coefficients 


     PseudoPot. # 2 for O  read from file:
     ./pseudos/O.upf
     MD5 check sum: 91400c9766925bcf19f520983a725ff0
     Pseudo is Ultrasoft + core correction, Zval =  6.0
     Generated using &quot;atomic&quot; code by A. Dal Corso  v.6.3MaX
     Using radial grid of 1095 points,  4 beta functions with: 
                l(1) =   0
                l(2) =   0
                l(3) =   1
                l(4) =   1
     Q(r) pseudized with 0 coefficients 


     atomic species   valence    mass     pseudopotential
        Zn            12.00    63.38000     Zn( 1.00)
        O              6.00    15.99900     O ( 1.00)

     No symmetry found



   Cartesian axes

     site n.     atom                  positions (alat units)
         1           Zn  tau(   1) = (   0.4893395   0.3242613   0.9621337  )
         2           Zn  tau(   2) = (  -0.2345938   0.6578708   0.3656718  )
         3           O   tau(   3) = (   0.2900866   0.2199442   1.1655015  )
         4           O   tau(   4) = (  -0.0326549   0.5695973   0.5999691  )

     number of k points=   112

     Number of k-points >= 100: set verbosity='high' to print them.

     Dense  grid:    44163 G-vectors     FFT dimensions: (  40,  40,  64)

     Smooth grid:    15561 G-vectors     FFT dimensions: (  27,  27,  45)

     Estimated max dynamical RAM per process >      30.35 MB

     Estimated total dynamical RAM >     242.82 MB

     Check: negative core charge=   -0.000002

     Initial potential from superposition of free atoms

     starting charge      35.9925, renormalised to      36.0000
     Starting wfcs are   26 randomized atomic wfcs

     total cpu time spent up to now is        4.0 secs

     Self-consistent Calculation

     iteration #  1     ecut=    50.00 Ry     beta= 0.30
     Davidson diagonalization with overlap
     ethr =  1.00E-02,  avg # of iterations =  3.0

     total cpu time spent up to now is       10.8 secs

     total energy              =    -356.08744065 Ry
     estimated scf accuracy    <       1.84116153 Ry

     iteration #  2     ecut=    50.00 Ry     beta= 0.30
     Davidson diagonalization with overlap
     ethr =  5.11E-03,  avg # of iterations =  2.0

     total cpu time spent up to now is       16.7 secs

     total energy              =    -356.12680417 Ry
     estimated scf accuracy    <       0.31116670 Ry

     iteration #  3     ecut=    50.00 Ry     beta= 0.30
     Davidson diagonalization with overlap
     ethr =  8.64E-04,  avg # of iterations =  8.0

     total cpu time spent up to now is       28.1 secs

     total energy              =    -356.43691639 Ry
     estimated scf accuracy    <       0.57139341 Ry

     iteration #  4     ecut=    50.00 Ry     beta= 0.30
     Davidson diagonalization with overlap
     ethr =  8.64E-04,  avg # of iterations =  1.3

     total cpu time spent up to now is       32.7 secs

     total energy              =    -356.22263596 Ry
     estimated scf accuracy    <       0.35711455 Ry

     iteration #  5     ecut=    50.00 Ry     beta= 0.30
     Davidson diagonalization with overlap
     ethr =  8.64E-04,  avg # of iterations =  7.7

     total cpu time spent up to now is       43.0 secs

     total energy              =    -356.40209910 Ry
     estimated scf accuracy    <       0.26963972 Ry

     iteration #  6     ecut=    50.00 Ry     beta= 0.30
     Davidson diagonalization with overlap
     ethr =  7.49E-04,  avg # of iterations =  1.3

     total cpu time spent up to now is       47.8 secs

     total energy              =    -356.36525499 Ry
     estimated scf accuracy    <       0.13511691 Ry

     iteration #  7     ecut=    50.00 Ry     beta= 0.30
     Davidson diagonalization with overlap
     ethr =  3.75E-04,  avg # of iterations =  4.6

     total cpu time spent up to now is       54.4 secs

     total energy              =    -356.39681435 Ry
     estimated scf accuracy    <       0.00663450 Ry

     iteration #  8     ecut=    50.00 Ry     beta= 0.30
     Davidson diagonalization with overlap
     ethr =  1.84E-05,  avg # of iterations =  6.9

     total cpu time spent up to now is       63.8 secs

     total energy              =    -356.40055958 Ry
     estimated scf accuracy    <       0.00513156 Ry

     iteration #  9     ecut=    50.00 Ry     beta= 0.30
     Davidson diagonalization with overlap
     ethr =  1.43E-05,  avg # of iterations =  6.3

     total cpu time spent up to now is       71.1 secs

     total energy              =    -356.40187063 Ry
     estimated scf accuracy    <       0.00448927 Ry

     iteration # 10     ecut=    50.00 Ry     beta= 0.30
     Davidson diagonalization with overlap
     ethr =  1.25E-05,  avg # of iterations =  1.6

     total cpu time spent up to now is       76.0 secs

     total energy              =    -356.40115203 Ry
     estimated scf accuracy    <       0.00429038 Ry

     iteration # 11     ecut=    50.00 Ry     beta= 0.30
     Davidson diagonalization with overlap
     ethr =  1.19E-05,  avg # of iterations =  1.8

     total cpu time spent up to now is       81.0 secs

     total energy              =    -356.40104220 Ry
     estimated scf accuracy    <       0.00243518 Ry

     iteration # 12     ecut=    50.00 Ry     beta= 0.30
     Davidson diagonalization with overlap
     ethr =  6.76E-06,  avg # of iterations =  1.7

     total cpu time spent up to now is       86.0 secs

     total energy              =    -356.40080103 Ry
     estimated scf accuracy    <       0.00157542 Ry

     iteration # 13     ecut=    50.00 Ry     beta= 0.30
     Davidson diagonalization with overlap
     ethr =  4.38E-06,  avg # of iterations =  2.6

     total cpu time spent up to now is       91.6 secs

     total energy              =    -356.40092848 Ry
     estimated scf accuracy    <       0.00052648 Ry

     iteration # 14     ecut=    50.00 Ry     beta= 0.30
     Davidson diagonalization with overlap
     ethr =  1.46E-06,  avg # of iterations =  5.8

     total cpu time spent up to now is       98.2 secs

     total energy              =    -356.40101152 Ry
     estimated scf accuracy    <       0.00018262 Ry

     iteration # 15     ecut=    50.00 Ry     beta= 0.30
     Davidson diagonalization with overlap
     ethr =  5.07E-07,  avg # of iterations =  6.3

     total cpu time spent up to now is      106.0 secs

     total energy              =    -356.40108851 Ry
     estimated scf accuracy    <       0.00018010 Ry

     iteration # 16     ecut=    50.00 Ry     beta= 0.30
     Davidson diagonalization with overlap
     ethr =  5.00E-07,  avg # of iterations =  1.3

     total cpu time spent up to now is      110.7 secs

     total energy              =    -356.40107307 Ry
     estimated scf accuracy    <       0.00018743 Ry

     iteration # 17     ecut=    50.00 Ry     beta= 0.30
     Davidson diagonalization with overlap
     ethr =  5.00E-07,  avg # of iterations =  7.1

     total cpu time spent up to now is      117.9 secs

     total energy              =    -356.40103388 Ry
     estimated scf accuracy    <       0.00042429 Ry

     iteration # 18     ecut=    50.00 Ry     beta= 0.30
     Davidson diagonalization with overlap
     ethr =  5.00E-07,  avg # of iterations =  3.1

     total cpu time spent up to now is      123.4 secs

     total energy              =    -356.40101691 Ry
     estimated scf accuracy    <       0.00017539 Ry

     iteration # 19     ecut=    50.00 Ry     beta= 0.30
     Davidson diagonalization with overlap
     ethr =  4.87E-07,  avg # of iterations =  4.8

     total cpu time spent up to now is      129.2 secs

     total energy              =    -356.40102616 Ry
     estimated scf accuracy    <       0.00004187 Ry

     iteration # 20     ecut=    50.00 Ry     beta= 0.30
     Davidson diagonalization with overlap
     ethr =  1.16E-07,  avg # of iterations =  6.8

     total cpu time spent up to now is      137.0 secs

     total energy              =    -356.40104811 Ry
     estimated scf accuracy    <       0.00003091 Ry

     iteration # 21     ecut=    50.00 Ry     beta= 0.30
     Davidson diagonalization with overlap
     ethr =  8.59E-08,  avg # of iterations =  1.2

     total cpu time spent up to now is      141.6 secs

     total energy              =    -356.40104733 Ry
     estimated scf accuracy    <       0.00002343 Ry

     iteration # 22     ecut=    50.00 Ry     beta= 0.30
     Davidson diagonalization with overlap
     ethr =  6.51E-08,  avg # of iterations =  1.8

     total cpu time spent up to now is      146.6 secs

     total energy              =    -356.40104320 Ry
     estimated scf accuracy    <       0.00001713 Ry

     iteration # 23     ecut=    50.00 Ry     beta= 0.30
     Davidson diagonalization with overlap
     ethr =  4.76E-08,  avg # of iterations =  3.2

     total cpu time spent up to now is      152.2 secs

     total energy              =    -356.40104424 Ry
     estimated scf accuracy    <       0.00000368 Ry

     iteration # 24     ecut=    50.00 Ry     beta= 0.30
     Davidson diagonalization with overlap
     ethr =  1.02E-08,  avg # of iterations =  6.0

     total cpu time spent up to now is      160.8 secs

     total energy              =    -356.40104568 Ry
     estimated scf accuracy    <       0.00000110 Ry

     iteration # 25     ecut=    50.00 Ry     beta= 0.30
     Davidson diagonalization with overlap
     ethr =  3.04E-09,  avg # of iterations =  7.2

     total cpu time spent up to now is      169.4 secs

     total energy              =    -356.40104610 Ry
     estimated scf accuracy    <       0.00000092 Ry

     iteration # 26     ecut=    50.00 Ry     beta= 0.30
     Davidson diagonalization with overlap
     ethr =  2.56E-09,  avg # of iterations =  2.0

     total cpu time spent up to now is      174.6 secs

     total energy              =    -356.40104597 Ry
     estimated scf accuracy    <       0.00000058 Ry

     iteration # 27     ecut=    50.00 Ry     beta= 0.30
     Davidson diagonalization with overlap
     ethr =  1.61E-09,  avg # of iterations =  6.4

     total cpu time spent up to now is      181.6 secs

     total energy              =    -356.40104610 Ry
     estimated scf accuracy    <       0.00000013 Ry

     iteration # 28     ecut=    50.00 Ry     beta= 0.30
     Davidson diagonalization with overlap
     ethr =  3.69E-10,  avg # of iterations =  6.8

     total cpu time spent up to now is      189.9 secs

     total energy              =    -356.40104605 Ry
     estimated scf accuracy    <       0.00000035 Ry

     iteration # 29     ecut=    50.00 Ry     beta= 0.30
     Davidson diagonalization with overlap
     ethr =  3.69E-10,  avg # of iterations =  6.6

     total cpu time spent up to now is      197.7 secs

     total energy              =    -356.40104609 Ry
     estimated scf accuracy    <       0.00000003 Ry

     iteration # 30     ecut=    50.00 Ry     beta= 0.30
     Davidson diagonalization with overlap
     ethr =  9.49E-11,  avg # of iterations =  5.4

     total cpu time spent up to now is      204.7 secs

     total energy              =    -356.40104610 Ry
     estimated scf accuracy    <       0.00000001 Ry

     iteration # 31     ecut=    50.00 Ry     beta= 0.30
     Davidson diagonalization with overlap
     ethr =  3.55E-11,  avg # of iterations =  3.6

     total cpu time spent up to now is      211.4 secs

     End of self-consistent calculation

     Number of k-points >= 100: set verbosity='high' to print the bands.

     highest occupied level (ev):     9.1550

!    total energy              =    -356.40104610 Ry
     estimated scf accuracy    <          7.4E-09 Ry

     The total energy is the sum of the following terms:
     one-electron contribution =    -241.92201476 Ry
     hartree contribution      =     158.22252865 Ry
     xc contribution           =    -111.09220407 Ry
     ewald contribution        =    -161.60935592 Ry

     convergence has been achieved in  31 iterations

     Forces acting on atoms (cartesian axes, Ry/au):

     atom    1 type  1   force =     5.37675663    2.83137518   -5.30965676
     atom    2 type  1   force =    -3.67638787    1.62340319   -4.40354237
     atom    3 type  2   force =    -5.34560365   -2.81408640    5.52391079
     atom    4 type  2   force =     3.64523489   -1.64069196    4.18928834
     The non-local contrib.  to forces
     atom    1 type  1   force =    -0.40459969   -0.12674230    0.16074020
     atom    2 type  1   force =     0.04964442   -0.14016172    0.25139954
     atom    3 type  2   force =     0.69409171    0.29471763   -0.47524080
     atom    4 type  2   force =    -0.94058059    0.10591365   -0.78821895
     The ionic contribution  to forces
     atom    1 type  1   force =    21.91169359   10.84177350   -6.16135328
     atom    2 type  1   force =   -18.35449364    8.83112534  -41.11778838
     atom    3 type  2   force =   -22.99143251  -11.88644108   32.80007795
     atom    4 type  2   force =    19.43423255   -7.78645776   14.47906371
     The local contribution  to forces
     atom    1 type  1   force =   -15.81378149   -7.71670254    0.37016870
     atom    2 type  1   force =    14.37728566   -6.95805902   36.16476273
     atom    3 type  2   force =    16.94154461    8.77160328  -26.78764176
     atom    4 type  2   force =   -14.84409480    6.03516250   -9.49433641
     The core correction contribution to forces
     atom    1 type  1   force =    -0.31641709   -0.16685593    0.32050589
     atom    2 type  1   force =     0.25124534   -0.10956565    0.29825128
     atom    3 type  2   force =     0.01010941    0.00602331   -0.01327379
     atom    4 type  2   force =    -0.00440569    0.00469150   -0.00728349
     The Hubbard contrib.    to forces
     atom    1 type  1   force =     0.00000000    0.00000000    0.00000000
     atom    2 type  1   force =     0.00000000    0.00000000    0.00000000
     atom    3 type  2   force =     0.00000000    0.00000000    0.00000000
     atom    4 type  2   force =     0.00000000    0.00000000    0.00000000
     The SCF correction term to forces
     atom    1 type  1   force =    -0.00020850   -0.00010516    0.00029309
     atom    2 type  1   force =    -0.00013947    0.00005663   -0.00015618
     atom    3 type  2   force =     0.00001330    0.00000285    0.00000055
     atom    4 type  2   force =     0.00001360   -0.00000946    0.00007484

     Total force =    14.184463     Total SCF correction =     0.000440

     Writing all to output data dir ./ZnO_ANN.save/

     init_run     :      3.49s CPU      3.57s WALL (       1 calls)
     electrons    :    203.75s CPU    207.43s WALL (       1 calls)
     forces       :      1.16s CPU      1.17s WALL (       1 calls)

     Called by init_run:
     wfcinit      :      2.55s CPU      2.60s WALL (       1 calls)
     potinit      :      0.26s CPU      0.27s WALL (       1 calls)
     hinit0       :      0.59s CPU      0.61s WALL (       1 calls)

     Called by electrons:
     c_bands      :    179.08s CPU    182.20s WALL (      31 calls)
     sum_band     :     22.35s CPU     22.86s WALL (      31 calls)
     v_of_rho     :      0.44s CPU      0.47s WALL (      32 calls)
     newd         :      1.80s CPU      1.83s WALL (      32 calls)
     mix_rho      :      0.08s CPU      0.09s WALL (      31 calls)

     Called by c_bands:
     init_us_2    :      1.52s CPU      1.54s WALL (    7168 calls)
     init_us_2:cp :      1.50s CPU      1.52s WALL (    7168 calls)
     cegterg      :    174.10s CPU    177.14s WALL (    3472 calls)

     Called by *egterg:
     cdiaghg      :     19.49s CPU     19.68s WALL (   18505 calls)
     h_psi        :    103.98s CPU    106.25s WALL (   18617 calls)
     s_psi        :     11.63s CPU     11.74s WALL (   18617 calls)
     g_psi        :      0.32s CPU      0.33s WALL (   15033 calls)

     Called by h_psi:
     h_psi:calbec :     13.81s CPU     14.25s WALL (   18617 calls)
     vloc_psi     :     78.17s CPU     79.92s WALL (   18617 calls)
     add_vuspsi   :     11.66s CPU     11.76s WALL (   18617 calls)

     General routines
     calbec       :     19.19s CPU     19.78s WALL (   22537 calls)
     fft          :      0.67s CPU      0.70s WALL (     425 calls)
     ffts         :      0.08s CPU      0.09s WALL (      63 calls)
     fftw         :     83.29s CPU     85.17s WALL (  411788 calls)
     interpolate  :      0.10s CPU      0.10s WALL (      32 calls)

     Parallel routines

     PWSCF        :   3m29.14s CPU   3m33.09s WALL


   This run was terminated on:  17:19:35  24Jun2025            

=------------------------------------------------------------------------------=
   JOB DONE.
=------------------------------------------------------------------------------=
Note: The following floating-point exceptions are signalling: IEEE_INVALID_FLAG
