
     Program PWSCF v.7.2 starts on 24Jun2025 at 17:10:40 

     This program is part of the open-source Quantum ESPRESSO suite
     for quantum simulation of materials; please cite
         "P. Giannozzi et al., J. Phys.:Condens. Matter 21 395502 (2009);
         "P. Giannozzi et al., J. Phys.:Condens. Matter 29 465901 (2017);
         "P. Giannozzi et al., J. Chem. Phys. 152 154105 (2020);
          URL http://www.quantum-espresso.org", 
     in publications or presentations arising from this work. More details at
     http://www.quantum-espresso.org/quote

     Parallel version (MPI), running on     8 processors

     MPI processes distributed on     1 nodes
     90954 MiB available memory on the printing compute node when the environment starts

     Reading input from /home/jvc/QEspresso7.2/ZnO_DataBase/scf_025_NOSYM.in/scf-6.18-1.65-0.25-5.in

     Current dimensions of program PWSCF are:
     Max number of different atomic species (ntypx) = 10
     Max number of k-points (npk) =  40000
     Max angular momentum in pseudopotentials (lmaxx) =  4
     file Zn.upf: wavefunction(s)  3D renormalized

     R & G space division:  proc/nbgrp/npool/nimage =       8
     Subspace diagonalization in iterative solution of the eigenvalue problem:
     a serial algorithm will be used


     Parallelization info
     --------------------
     sticks:   dense  smooth     PW     G-vecs:    dense   smooth      PW
     Min         130      64     20                 5518     1944     332
     Max         131      66     21                 5522     1946     337
     Sum        1045     517    163                44163    15561    2671

     Using Slab Decomposition



     bravais-lattice index     =            0
     lattice parameter (alat)  =       6.1788  a.u.
     unit-cell volume          =     326.8643 (a.u.)^3
     number of atoms/cell      =            4
     number of atomic types    =            2
     number of electrons       =        36.00
     number of Kohn-Sham states=           18
     kinetic-energy cutoff     =      50.0000  Ry
     charge density cutoff     =     400.0000  Ry
     scf convergence threshold =      1.0E-08
     mixing beta               =       0.3000
     number of iterations used =            8  plain     mixing
     Exchange-correlation= PBE
                           (   1   4   3   4   0   0   0)

     celldm(1)=   6.178821  celldm(2)=   0.000000  celldm(3)=   0.000000
     celldm(4)=   0.000000  celldm(5)=   0.000000  celldm(6)=   0.000000

     crystal axes: (cart. coord. in units of alat)
               a(1) = (   1.000000   0.000000   0.000000 )  
               a(2) = (  -0.500000   0.866025   0.000000 )  
               a(3) = (   0.000000   0.000000   1.600000 )  

     reciprocal axes: (cart. coord. in units 2 pi/alat)
               b(1) = (  1.000000  0.577350 -0.000000 )  
               b(2) = (  0.000000  1.154701  0.000000 )  
               b(3) = (  0.000000 -0.000000  0.625000 )  


     PseudoPot. # 1 for Zn read from file:
     ./pseudos/Zn.upf
     MD5 check sum: 7f56cabf9682ed8c977c2f7d0c5985c5
     Pseudo is Ultrasoft + core correction, Zval = 12.0
     Generated using &quot;atomic&quot; code by A. Dal Corso  v.6.2.2
     Using radial grid of 1201 points,  6 beta functions with: 
                l(1) =   0
                l(2) =   0
                l(3) =   1
                l(4) =   1
                l(5) =   2
                l(6) =   2
     Q(r) pseudized with 0 coefficients 


     PseudoPot. # 2 for O  read from file:
     ./pseudos/O.upf
     MD5 check sum: 91400c9766925bcf19f520983a725ff0
     Pseudo is Ultrasoft + core correction, Zval =  6.0
     Generated using &quot;atomic&quot; code by A. Dal Corso  v.6.3MaX
     Using radial grid of 1095 points,  4 beta functions with: 
                l(1) =   0
                l(2) =   0
                l(3) =   1
                l(4) =   1
     Q(r) pseudized with 0 coefficients 


     atomic species   valence    mass     pseudopotential
        Zn            12.00    63.38000     Zn( 1.00)
        O              6.00    15.99900     O ( 1.00)

     No symmetry found



   Cartesian axes

     site n.     atom                  positions (alat units)
         1           Zn  tau(   1) = (   0.2375400   0.3603467   0.6505917  )
         2           Zn  tau(   2) = (  -0.1664254   0.5263045  -0.1520028  )
         3           O   tau(   3) = (   0.4326589   0.1892471   1.7487127  )
         4           O   tau(   4) = (  -0.1796061   0.5184281   0.2328142  )

     number of k points=   112

     Number of k-points >= 100: set verbosity='high' to print them.

     Dense  grid:    44163 G-vectors     FFT dimensions: (  40,  40,  64)

     Smooth grid:    15561 G-vectors     FFT dimensions: (  27,  27,  45)

     Estimated max dynamical RAM per process >      30.35 MB

     Estimated total dynamical RAM >     242.82 MB

     Check: negative core charge=   -0.000002

     Initial potential from superposition of free atoms

     starting charge      35.9925, renormalised to      36.0000
     Starting wfcs are   26 randomized atomic wfcs

     total cpu time spent up to now is        4.0 secs

     Self-consistent Calculation

     iteration #  1     ecut=    50.00 Ry     beta= 0.30
     Davidson diagonalization with overlap
     ethr =  1.00E-02,  avg # of iterations =  2.0

     total cpu time spent up to now is        9.5 secs

     total energy              =    -359.86810249 Ry
     estimated scf accuracy    <       1.41603036 Ry

     iteration #  2     ecut=    50.00 Ry     beta= 0.30
     Davidson diagonalization with overlap
     ethr =  3.93E-03,  avg # of iterations =  5.4

     total cpu time spent up to now is       16.3 secs

     total energy              =    -360.29241721 Ry
     estimated scf accuracy    <       0.12982922 Ry

     iteration #  3     ecut=    50.00 Ry     beta= 0.30
     Davidson diagonalization with overlap
     ethr =  3.61E-04,  avg # of iterations =  6.4

     total cpu time spent up to now is       25.0 secs

     total energy              =    -360.30622651 Ry
     estimated scf accuracy    <       0.12593699 Ry

     iteration #  4     ecut=    50.00 Ry     beta= 0.30
     Davidson diagonalization with overlap
     ethr =  3.50E-04,  avg # of iterations =  4.3

     total cpu time spent up to now is       31.2 secs

     total energy              =    -360.33035425 Ry
     estimated scf accuracy    <       0.00978522 Ry

     iteration #  5     ecut=    50.00 Ry     beta= 0.30
     Davidson diagonalization with overlap
     c_bands:  1 eigenvalues not converged
     c_bands:  1 eigenvalues not converged
     c_bands:  1 eigenvalues not converged
     c_bands:  1 eigenvalues not converged
     c_bands:  1 eigenvalues not converged
     c_bands:  1 eigenvalues not converged
     c_bands:  1 eigenvalues not converged
     c_bands:  1 eigenvalues not converged
     c_bands:  2 eigenvalues not converged
     c_bands:  1 eigenvalues not converged
     c_bands:  2 eigenvalues not converged
     c_bands:  1 eigenvalues not converged
     c_bands:  1 eigenvalues not converged
     c_bands:  1 eigenvalues not converged
     c_bands:  1 eigenvalues not converged
     c_bands:  2 eigenvalues not converged
     c_bands:  1 eigenvalues not converged
     c_bands:  1 eigenvalues not converged
     c_bands:  1 eigenvalues not converged
     c_bands:  1 eigenvalues not converged
     c_bands:  1 eigenvalues not converged
     c_bands:  1 eigenvalues not converged
     c_bands:  1 eigenvalues not converged
     c_bands:  1 eigenvalues not converged
     c_bands:  1 eigenvalues not converged
     c_bands:  1 eigenvalues not converged
     ethr =  2.72E-05,  avg # of iterations = 13.1

     total cpu time spent up to now is       47.3 secs

     total energy              =    -360.32081341 Ry
     estimated scf accuracy    <       0.10884220 Ry

     iteration #  6     ecut=    50.00 Ry     beta= 0.30
     Davidson diagonalization with overlap
     c_bands:  1 eigenvalues not converged
     c_bands:  2 eigenvalues not converged
     c_bands:  1 eigenvalues not converged
     c_bands:  1 eigenvalues not converged
     c_bands:  1 eigenvalues not converged
     c_bands:  1 eigenvalues not converged
     c_bands:  2 eigenvalues not converged
     c_bands:  1 eigenvalues not converged
     c_bands:  1 eigenvalues not converged
     c_bands:  1 eigenvalues not converged
     ethr =  2.72E-05,  avg # of iterations = 11.3

     total cpu time spent up to now is       60.6 secs

     total energy              =    -360.33928861 Ry
     estimated scf accuracy    <       0.00087431 Ry

     iteration #  7     ecut=    50.00 Ry     beta= 0.30
     Davidson diagonalization with overlap
     c_bands:  1 eigenvalues not converged
     c_bands:  1 eigenvalues not converged
     c_bands:  1 eigenvalues not converged
     c_bands:  1 eigenvalues not converged
     c_bands:  1 eigenvalues not converged
     c_bands:  1 eigenvalues not converged
     c_bands:  2 eigenvalues not converged
     c_bands:  1 eigenvalues not converged
     c_bands:  1 eigenvalues not converged
     c_bands:  1 eigenvalues not converged
     ethr =  2.43E-06,  avg # of iterations = 13.8

     total cpu time spent up to now is       75.7 secs

     total energy              =    -360.33974226 Ry
     estimated scf accuracy    <       0.00933795 Ry

     iteration #  8     ecut=    50.00 Ry     beta= 0.30
     Davidson diagonalization with overlap
     ethr =  2.43E-06,  avg # of iterations =  4.6

     total cpu time spent up to now is       82.3 secs

     total energy              =    -360.33786547 Ry
     estimated scf accuracy    <       0.00458124 Ry

     iteration #  9     ecut=    50.00 Ry     beta= 0.30
     Davidson diagonalization with overlap
     c_bands:  1 eigenvalues not converged
     c_bands:  1 eigenvalues not converged
     c_bands:  1 eigenvalues not converged
     c_bands:  1 eigenvalues not converged
     c_bands:  1 eigenvalues not converged
     c_bands:  2 eigenvalues not converged
     c_bands:  2 eigenvalues not converged
     c_bands:  1 eigenvalues not converged
     c_bands:  1 eigenvalues not converged
     ethr =  2.43E-06,  avg # of iterations = 11.4

     total cpu time spent up to now is       96.9 secs

     total energy              =    -360.33954806 Ry
     estimated scf accuracy    <       0.00125643 Ry

     iteration # 10     ecut=    50.00 Ry     beta= 0.30
     Davidson diagonalization with overlap
     ethr =  2.43E-06,  avg # of iterations =  1.4

     total cpu time spent up to now is      101.6 secs

     total energy              =    -360.33928415 Ry
     estimated scf accuracy    <       0.00085490 Ry

     iteration # 11     ecut=    50.00 Ry     beta= 0.30
     Davidson diagonalization with overlap
     ethr =  2.37E-06,  avg # of iterations =  3.8

     total cpu time spent up to now is      107.6 secs

     total energy              =    -360.33944940 Ry
     estimated scf accuracy    <       0.00002211 Ry

     iteration # 12     ecut=    50.00 Ry     beta= 0.30
     Davidson diagonalization with overlap
     c_bands:  1 eigenvalues not converged
     c_bands:  1 eigenvalues not converged
     c_bands:  1 eigenvalues not converged
     c_bands:  1 eigenvalues not converged
     c_bands:  1 eigenvalues not converged
     c_bands:  1 eigenvalues not converged
     c_bands:  1 eigenvalues not converged
     c_bands:  1 eigenvalues not converged
     c_bands:  1 eigenvalues not converged
     ethr =  6.14E-08,  avg # of iterations = 13.0

     total cpu time spent up to now is      123.5 secs

     total energy              =    -360.33952424 Ry
     estimated scf accuracy    <       0.00008944 Ry

     iteration # 13     ecut=    50.00 Ry     beta= 0.30
     Davidson diagonalization with overlap
     ethr =  6.14E-08,  avg # of iterations =  1.2

     total cpu time spent up to now is      128.1 secs

     total energy              =    -360.33951853 Ry
     estimated scf accuracy    <       0.00009300 Ry

     iteration # 14     ecut=    50.00 Ry     beta= 0.30
     Davidson diagonalization with overlap
     ethr =  6.14E-08,  avg # of iterations =  3.1

     total cpu time spent up to now is      133.5 secs

     total energy              =    -360.33951529 Ry
     estimated scf accuracy    <       0.00008980 Ry

     iteration # 15     ecut=    50.00 Ry     beta= 0.30
     Davidson diagonalization with overlap
     ethr =  6.14E-08,  avg # of iterations =  2.0

     total cpu time spent up to now is      138.7 secs

     total energy              =    -360.33949058 Ry
     estimated scf accuracy    <       0.00007379 Ry

     iteration # 16     ecut=    50.00 Ry     beta= 0.30
     Davidson diagonalization with overlap
     c_bands:  1 eigenvalues not converged
     c_bands:  1 eigenvalues not converged
     ethr =  6.14E-08,  avg # of iterations =  7.9

     total cpu time spent up to now is      147.4 secs

     total energy              =    -360.33950336 Ry
     estimated scf accuracy    <       0.00000088 Ry

     iteration # 17     ecut=    50.00 Ry     beta= 0.30
     Davidson diagonalization with overlap
     c_bands:  1 eigenvalues not converged
     c_bands:  1 eigenvalues not converged
     c_bands:  1 eigenvalues not converged
     ethr =  2.44E-09,  avg # of iterations = 11.2

     total cpu time spent up to now is      159.1 secs

     total energy              =    -360.33950468 Ry
     estimated scf accuracy    <       0.00000014 Ry

     iteration # 18     ecut=    50.00 Ry     beta= 0.30
     Davidson diagonalization with overlap
     ethr =  3.95E-10,  avg # of iterations =  7.9

     total cpu time spent up to now is      168.1 secs

     total energy              =    -360.33950453 Ry
     estimated scf accuracy    <       0.00000037 Ry

     iteration # 19     ecut=    50.00 Ry     beta= 0.30
     Davidson diagonalization with overlap
     c_bands:  1 eigenvalues not converged
     c_bands:  1 eigenvalues not converged
     c_bands:  1 eigenvalues not converged
     c_bands:  1 eigenvalues not converged
     c_bands:  1 eigenvalues not converged
     c_bands:  1 eigenvalues not converged
     c_bands:  1 eigenvalues not converged
     c_bands:  1 eigenvalues not converged
     c_bands:  1 eigenvalues not converged
     c_bands:  1 eigenvalues not converged
     c_bands:  1 eigenvalues not converged
     ethr =  3.95E-10,  avg # of iterations = 12.2

     total cpu time spent up to now is      182.6 secs

     total energy              =    -360.33950469 Ry
     estimated scf accuracy    <       0.00000069 Ry

     iteration # 20     ecut=    50.00 Ry     beta= 0.30
     Davidson diagonalization with overlap
     ethr =  3.95E-10,  avg # of iterations =  3.6

     total cpu time spent up to now is      188.6 secs

     total energy              =    -360.33950456 Ry
     estimated scf accuracy    <       0.00000028 Ry

     iteration # 21     ecut=    50.00 Ry     beta= 0.30
     Davidson diagonalization with overlap
     c_bands:  1 eigenvalues not converged
     c_bands:  1 eigenvalues not converged
     c_bands:  1 eigenvalues not converged
     c_bands:  1 eigenvalues not converged
     c_bands:  1 eigenvalues not converged
     c_bands:  1 eigenvalues not converged
     ethr =  3.95E-10,  avg # of iterations = 10.1

     total cpu time spent up to now is      200.6 secs

     total energy              =    -360.33950468 Ry
     estimated scf accuracy    <       0.00000022 Ry

     iteration # 22     ecut=    50.00 Ry     beta= 0.30
     Davidson diagonalization with overlap
     ethr =  3.95E-10,  avg # of iterations =  2.8

     total cpu time spent up to now is      205.7 secs

     total energy              =    -360.33950467 Ry
     estimated scf accuracy    <       0.00000006 Ry

     iteration # 23     ecut=    50.00 Ry     beta= 0.30
     Davidson diagonalization with overlap
     ethr =  1.65E-10,  avg # of iterations =  6.2

     total cpu time spent up to now is      213.4 secs

     End of self-consistent calculation

     Number of k-points >= 100: set verbosity='high' to print the bands.

     highest occupied level (ev):     9.5825

!    total energy              =    -360.33950470 Ry
     estimated scf accuracy    <          6.8E-09 Ry

     The total energy is the sum of the following terms:
     one-electron contribution =    -196.50634238 Ry
     hartree contribution      =     138.27336370 Ry
     xc contribution           =    -109.80866339 Ry
     ewald contribution        =    -192.29786262 Ry

     convergence has been achieved in  23 iterations

     Forces acting on atoms (cartesian axes, Ry/au):

     atom    1 type  1   force =    -0.02168527    0.01475358    0.14376029
     atom    2 type  1   force =     0.10234928    0.03797189   -2.21573435
     atom    3 type  2   force =     0.04565302   -0.02413276   -0.02312967
     atom    4 type  2   force =    -0.12631703   -0.02859271    2.09510374
     The non-local contrib.  to forces
     atom    1 type  1   force =     0.10567678    0.01402336   -0.00087403
     atom    2 type  1   force =    -0.17675645    0.03857073   -0.79690358
     atom    3 type  2   force =     0.06256371    0.40777384    0.24111506
     atom    4 type  2   force =    -0.20999302   -0.24642645   -0.68934089
     The ionic contribution  to forces
     atom    1 type  1   force =     0.15866756    0.51426494   21.64194849
     atom    2 type  1   force =     1.38472680    0.31522685  -36.88392120
     atom    3 type  2   force =    -0.82321553   -1.39723105   -2.93420418
     atom    4 type  2   force =    -0.72017882    0.56773925   18.17617689
     The local contribution  to forces
     atom    1 type  1   force =    -0.28346640   -0.50875916  -21.46649457
     atom    2 type  1   force =    -1.10066470   -0.31038593   35.23039671
     atom    3 type  2   force =     0.80647430    0.96958096    2.67212934
     atom    4 type  2   force =     0.80123795   -0.35255655  -15.38866661
     The core correction contribution to forces
     atom    1 type  1   force =    -0.00256263   -0.00477016   -0.03106319
     atom    2 type  1   force =    -0.00498085   -0.00544710    0.23511943
     atom    3 type  2   force =    -0.00012191   -0.00424943   -0.00209535
     atom    4 type  2   force =     0.00260114    0.00263857   -0.00304416
     The Hubbard contrib.    to forces
     atom    1 type  1   force =     0.00000000    0.00000000    0.00000000
     atom    2 type  1   force =     0.00000000    0.00000000    0.00000000
     atom    3 type  2   force =     0.00000000    0.00000000    0.00000000
     atom    4 type  2   force =     0.00000000    0.00000000    0.00000000
     The SCF correction term to forces
     atom    1 type  1   force =     0.00000573   -0.00000469    0.00025308
     atom    2 type  1   force =     0.00003077    0.00000805   -0.00041622
     atom    3 type  2   force =    -0.00004125   -0.00000636   -0.00006504
     atom    4 type  2   force =     0.00002203    0.00001319   -0.00001199

     Total force =     3.058134     Total SCF correction =     0.000495

     Writing all to output data dir ./ZnO_ANN.save/

     init_run     :      3.47s CPU      3.57s WALL (       1 calls)
     electrons    :    205.66s CPU    209.39s WALL (       1 calls)
     forces       :      1.11s CPU      1.12s WALL (       1 calls)

     Called by init_run:
     wfcinit      :      2.55s CPU      2.62s WALL (       1 calls)
     potinit      :      0.27s CPU      0.27s WALL (       1 calls)
     hinit0       :      0.56s CPU      0.58s WALL (       1 calls)

     Called by electrons:
     c_bands      :    187.62s CPU    190.93s WALL (      23 calls)
     sum_band     :     16.34s CPU     16.72s WALL (      23 calls)
     v_of_rho     :      0.34s CPU      0.36s WALL (      24 calls)
     newd         :      1.35s CPU      1.37s WALL (      24 calls)
     mix_rho      :      0.06s CPU      0.06s WALL (      23 calls)

     Called by c_bands:
     init_us_2    :      1.16s CPU      1.18s WALL (    5376 calls)
     init_us_2:cp :      1.14s CPU      1.16s WALL (    5376 calls)
     cegterg      :    183.91s CPU    187.16s WALL (    2576 calls)

     Called by *egterg:
     cdiaghg      :     22.64s CPU     22.83s WALL (   20385 calls)
     h_psi        :    104.16s CPU    106.54s WALL (   20497 calls)
     s_psi        :     11.92s CPU     12.02s WALL (   20497 calls)
     g_psi        :      0.38s CPU      0.38s WALL (   17809 calls)

     Called by h_psi:
     h_psi:calbec :     14.09s CPU     14.56s WALL (   20497 calls)
     vloc_psi     :     77.77s CPU     79.57s WALL (   20497 calls)
     add_vuspsi   :     11.95s CPU     12.07s WALL (   20497 calls)

     General routines
     calbec       :     18.25s CPU     18.83s WALL (   23521 calls)
     fft          :      0.48s CPU      0.52s WALL (     321 calls)
     ffts         :      0.08s CPU      0.08s WALL (      47 calls)
     fftw         :     79.16s CPU     81.01s WALL (  399818 calls)
     interpolate  :      0.09s CPU      0.09s WALL (      24 calls)

     Parallel routines

     PWSCF        :   3m30.96s CPU   3m34.95s WALL


   This run was terminated on:  17:14:15  24Jun2025            

=------------------------------------------------------------------------------=
   JOB DONE.
=------------------------------------------------------------------------------=
Note: The following floating-point exceptions are signalling: IEEE_INVALID_FLAG
