
     Program PWSCF v.7.2 starts on 24Jun2025 at 21:18:51 

     This program is part of the open-source Quantum ESPRESSO suite
     for quantum simulation of materials; please cite
         "P. Giannozzi et al., J. Phys.:Condens. Matter 21 395502 (2009);
         "P. Giannozzi et al., J. Phys.:Condens. Matter 29 465901 (2017);
         "P. Giannozzi et al., J. Chem. Phys. 152 154105 (2020);
          URL http://www.quantum-espresso.org", 
     in publications or presentations arising from this work. More details at
     http://www.quantum-espresso.org/quote

     Parallel version (MPI), running on     8 processors

     MPI processes distributed on     1 nodes
     90613 MiB available memory on the printing compute node when the environment starts

     Reading input from /home/jvc/QEspresso7.2/ZnO_DataBase/scf_025_NOSYM.in/scf-6.80-1.78-0.25-2.in

     Current dimensions of program PWSCF are:
     Max number of different atomic species (ntypx) = 10
     Max number of k-points (npk) =  40000
     Max angular momentum in pseudopotentials (lmaxx) =  4
     file Zn.upf: wavefunction(s)  3D renormalized

     R & G space division:  proc/nbgrp/npool/nimage =       8
     Subspace diagonalization in iterative solution of the eigenvalue problem:
     a serial algorithm will be used


     Parallelization info
     --------------------
     sticks:   dense  smooth     PW     G-vecs:    dense   smooth      PW
     Min         160      81     24                 7354     2595     429
     Max         162      82     26                 7355     2598     432
     Sum        1285     649    199                58833    20773    3441

     Using Slab Decomposition



     bravais-lattice index     =            0
     lattice parameter (alat)  =       6.7967  a.u.
     unit-cell volume          =     435.0564 (a.u.)^3
     number of atoms/cell      =            4
     number of atomic types    =            2
     number of electrons       =        36.00
     number of Kohn-Sham states=           18
     kinetic-energy cutoff     =      50.0000  Ry
     charge density cutoff     =     400.0000  Ry
     scf convergence threshold =      1.0E-08
     mixing beta               =       0.3000
     number of iterations used =            8  plain     mixing
     Exchange-correlation= PBE
                           (   1   4   3   4   0   0   0)

     celldm(1)=   6.796704  celldm(2)=   0.000000  celldm(3)=   0.000000
     celldm(4)=   0.000000  celldm(5)=   0.000000  celldm(6)=   0.000000

     crystal axes: (cart. coord. in units of alat)
               a(1) = (   1.000000   0.000000   0.000000 )  
               a(2) = (  -0.500000   0.866025   0.000000 )  
               a(3) = (   0.000000   0.000000   1.600000 )  

     reciprocal axes: (cart. coord. in units 2 pi/alat)
               b(1) = (  1.000000  0.577350 -0.000000 )  
               b(2) = (  0.000000  1.154701  0.000000 )  
               b(3) = (  0.000000 -0.000000  0.625000 )  


     PseudoPot. # 1 for Zn read from file:
     ./pseudos/Zn.upf
     MD5 check sum: 7f56cabf9682ed8c977c2f7d0c5985c5
     Pseudo is Ultrasoft + core correction, Zval = 12.0
     Generated using &quot;atomic&quot; code by A. Dal Corso  v.6.2.2
     Using radial grid of 1201 points,  6 beta functions with: 
                l(1) =   0
                l(2) =   0
                l(3) =   1
                l(4) =   1
                l(5) =   2
                l(6) =   2
     Q(r) pseudized with 0 coefficients 


     PseudoPot. # 2 for O  read from file:
     ./pseudos/O.upf
     MD5 check sum: 91400c9766925bcf19f520983a725ff0
     Pseudo is Ultrasoft + core correction, Zval =  6.0
     Generated using &quot;atomic&quot; code by A. Dal Corso  v.6.3MaX
     Using radial grid of 1095 points,  4 beta functions with: 
                l(1) =   0
                l(2) =   0
                l(3) =   1
                l(4) =   1
     Q(r) pseudized with 0 coefficients 


     atomic species   valence    mass     pseudopotential
        Zn            12.00    63.38000     Zn( 1.00)
        O              6.00    15.99900     O ( 1.00)

     No symmetry found



   Cartesian axes

     site n.     atom                  positions (alat units)
         1           Zn  tau(   1) = (   0.6504232   0.2461461   0.5172628  )
         2           Zn  tau(   2) = (  -0.2119255   0.6260003  -0.3338867  )
         3           O   tau(   3) = (   0.6959368   0.1873243   1.6173898  )
         4           O   tau(   4) = (  -0.1465774   0.4488245   0.8707360  )

     number of k points=   112

     Number of k-points >= 100: set verbosity='high' to print them.

     Dense  grid:    58833 G-vectors     FFT dimensions: (  45,  45,  72)

     Smooth grid:    20773 G-vectors     FFT dimensions: (  32,  32,  50)

     Estimated max dynamical RAM per process >      39.41 MB

     Estimated total dynamical RAM >     315.24 MB

     Check: negative core charge=   -0.000002

     Initial potential from superposition of free atoms

     starting charge      35.9925, renormalised to      36.0000
     Starting wfcs are   26 randomized atomic wfcs

     total cpu time spent up to now is        4.7 secs

     Self-consistent Calculation

     iteration #  1     ecut=    50.00 Ry     beta= 0.30
     Davidson diagonalization with overlap
     ethr =  1.00E-02,  avg # of iterations =  2.0

     total cpu time spent up to now is       10.8 secs

     total energy              =    -361.12991052 Ry
     estimated scf accuracy    <       1.07162262 Ry

     iteration #  2     ecut=    50.00 Ry     beta= 0.30
     Davidson diagonalization with overlap
     ethr =  2.98E-03,  avg # of iterations =  2.0

     total cpu time spent up to now is       17.6 secs

     total energy              =    -361.25303388 Ry
     estimated scf accuracy    <       0.14023351 Ry

     iteration #  3     ecut=    50.00 Ry     beta= 0.30
     Davidson diagonalization with overlap
     ethr =  3.90E-04,  avg # of iterations =  6.0

     total cpu time spent up to now is       28.9 secs

     total energy              =    -361.30901479 Ry
     estimated scf accuracy    <       0.17527049 Ry

     iteration #  4     ecut=    50.00 Ry     beta= 0.30
     Davidson diagonalization with overlap
     ethr =  3.90E-04,  avg # of iterations =  4.7

     total cpu time spent up to now is       38.5 secs

     total energy              =    -361.37175481 Ry
     estimated scf accuracy    <       0.04192994 Ry

     iteration #  5     ecut=    50.00 Ry     beta= 0.30
     Davidson diagonalization with overlap
     ethr =  1.16E-04,  avg # of iterations =  1.6

     total cpu time spent up to now is       44.1 secs

     total energy              =    -361.35266115 Ry
     estimated scf accuracy    <       0.03668472 Ry

     iteration #  6     ecut=    50.00 Ry     beta= 0.30
     Davidson diagonalization with overlap
     ethr =  1.02E-04,  avg # of iterations =  4.9

     total cpu time spent up to now is       52.3 secs

     total energy              =    -361.36242034 Ry
     estimated scf accuracy    <       0.00120424 Ry

     iteration #  7     ecut=    50.00 Ry     beta= 0.30
     Davidson diagonalization with overlap
     ethr =  3.35E-06,  avg # of iterations =  8.0

     total cpu time spent up to now is       64.6 secs

     total energy              =    -361.36287993 Ry
     estimated scf accuracy    <       0.00746939 Ry

     iteration #  8     ecut=    50.00 Ry     beta= 0.30
     Davidson diagonalization with overlap
     ethr =  3.35E-06,  avg # of iterations =  4.9

     total cpu time spent up to now is       74.0 secs

     total energy              =    -361.36271565 Ry
     estimated scf accuracy    <       0.00113677 Ry

     iteration #  9     ecut=    50.00 Ry     beta= 0.30
     Davidson diagonalization with overlap
     ethr =  3.16E-06,  avg # of iterations =  6.1

     total cpu time spent up to now is       85.3 secs

     total energy              =    -361.36385962 Ry
     estimated scf accuracy    <       0.00163421 Ry

     iteration # 10     ecut=    50.00 Ry     beta= 0.30
     Davidson diagonalization with overlap
     ethr =  3.16E-06,  avg # of iterations =  1.1

     total cpu time spent up to now is       90.7 secs

     total energy              =    -361.36337474 Ry
     estimated scf accuracy    <       0.00189894 Ry

     iteration # 11     ecut=    50.00 Ry     beta= 0.30
     Davidson diagonalization with overlap
     ethr =  3.16E-06,  avg # of iterations =  2.0

     total cpu time spent up to now is       96.6 secs

     total energy              =    -361.36320941 Ry
     estimated scf accuracy    <       0.00098070 Ry

     iteration # 12     ecut=    50.00 Ry     beta= 0.30
     Davidson diagonalization with overlap
     ethr =  2.72E-06,  avg # of iterations =  2.0

     total cpu time spent up to now is      102.9 secs

     total energy              =    -361.36329336 Ry
     estimated scf accuracy    <       0.00041614 Ry

     iteration # 13     ecut=    50.00 Ry     beta= 0.30
     Davidson diagonalization with overlap
     ethr =  1.16E-06,  avg # of iterations =  1.9

     total cpu time spent up to now is      108.9 secs

     total energy              =    -361.36335310 Ry
     estimated scf accuracy    <       0.00034348 Ry

     iteration # 14     ecut=    50.00 Ry     beta= 0.30
     Davidson diagonalization with overlap
     ethr =  9.54E-07,  avg # of iterations =  1.0

     total cpu time spent up to now is      114.3 secs

     total energy              =    -361.36340860 Ry
     estimated scf accuracy    <       0.00038888 Ry

     iteration # 15     ecut=    50.00 Ry     beta= 0.30
     Davidson diagonalization with overlap
     ethr =  9.54E-07,  avg # of iterations =  1.0

     total cpu time spent up to now is      119.7 secs

     total energy              =    -361.36318472 Ry
     estimated scf accuracy    <       0.00046208 Ry

     iteration # 16     ecut=    50.00 Ry     beta= 0.30
     Davidson diagonalization with overlap
     ethr =  9.54E-07,  avg # of iterations =  5.1

     total cpu time spent up to now is      129.5 secs

     total energy              =    -361.36327698 Ry
     estimated scf accuracy    <       0.00020436 Ry

     iteration # 17     ecut=    50.00 Ry     beta= 0.30
     Davidson diagonalization with overlap
     ethr =  5.68E-07,  avg # of iterations =  7.1

     total cpu time spent up to now is      143.5 secs

     total energy              =    -361.36296871 Ry
     estimated scf accuracy    <       0.00133607 Ry

     iteration # 18     ecut=    50.00 Ry     beta= 0.30
     Davidson diagonalization with overlap
     ethr =  5.68E-07,  avg # of iterations =  7.3

     total cpu time spent up to now is      157.8 secs

     total energy              =    -361.36323462 Ry
     estimated scf accuracy    <       0.00033332 Ry

     iteration # 19     ecut=    50.00 Ry     beta= 0.30
     Davidson diagonalization with overlap
     ethr =  5.68E-07,  avg # of iterations =  7.1

     total cpu time spent up to now is      171.8 secs

     total energy              =    -361.36294614 Ry
     estimated scf accuracy    <       0.00118354 Ry

     iteration # 20     ecut=    50.00 Ry     beta= 0.30
     Davidson diagonalization with overlap
     ethr =  5.68E-07,  avg # of iterations =  8.2

     total cpu time spent up to now is      187.3 secs

     total energy              =    -361.36311544 Ry
     estimated scf accuracy    <       0.00072839 Ry

     iteration # 21     ecut=    50.00 Ry     beta= 0.30
     Davidson diagonalization with overlap
     ethr =  5.68E-07,  avg # of iterations =  6.4

     total cpu time spent up to now is      199.3 secs

     total energy              =    -361.36331843 Ry
     estimated scf accuracy    <       0.00011300 Ry

     iteration # 22     ecut=    50.00 Ry     beta= 0.30
     Davidson diagonalization with overlap
     ethr =  3.14E-07,  avg # of iterations =  1.8

     total cpu time spent up to now is      205.2 secs

     total energy              =    -361.36329778 Ry
     estimated scf accuracy    <       0.00005045 Ry

     iteration # 23     ecut=    50.00 Ry     beta= 0.30
     Davidson diagonalization with overlap
     ethr =  1.40E-07,  avg # of iterations =  5.0

     total cpu time spent up to now is      214.7 secs

     total energy              =    -361.36332123 Ry
     estimated scf accuracy    <       0.00002378 Ry

     iteration # 24     ecut=    50.00 Ry     beta= 0.30
     Davidson diagonalization with overlap
     ethr =  6.60E-08,  avg # of iterations =  1.4

     total cpu time spent up to now is      220.4 secs

     total energy              =    -361.36331865 Ry
     estimated scf accuracy    <       0.00001182 Ry

     iteration # 25     ecut=    50.00 Ry     beta= 0.30
     Davidson diagonalization with overlap
     ethr =  3.28E-08,  avg # of iterations =  4.3

     total cpu time spent up to now is      227.7 secs

     total energy              =    -361.36332119 Ry
     estimated scf accuracy    <       0.00000048 Ry

     iteration # 26     ecut=    50.00 Ry     beta= 0.30
     Davidson diagonalization with overlap
     ethr =  1.33E-09,  avg # of iterations =  6.8

     total cpu time spent up to now is      239.2 secs

     total energy              =    -361.36332176 Ry
     estimated scf accuracy    <       0.00000009 Ry

     iteration # 27     ecut=    50.00 Ry     beta= 0.30
     Davidson diagonalization with overlap
     ethr =  2.39E-10,  avg # of iterations =  2.9

     total cpu time spent up to now is      245.7 secs

     total energy              =    -361.36332174 Ry
     estimated scf accuracy    <       0.00000006 Ry

     iteration # 28     ecut=    50.00 Ry     beta= 0.30
     Davidson diagonalization with overlap
     ethr =  1.65E-10,  avg # of iterations =  5.6

     total cpu time spent up to now is      255.1 secs

     total energy              =    -361.36332177 Ry
     estimated scf accuracy    <       0.00000003 Ry

     iteration # 29     ecut=    50.00 Ry     beta= 0.30
     Davidson diagonalization with overlap
     ethr =  8.70E-11,  avg # of iterations =  1.1

     total cpu time spent up to now is      260.5 secs

     total energy              =    -361.36332176 Ry
     estimated scf accuracy    <       0.00000002 Ry

     iteration # 30     ecut=    50.00 Ry     beta= 0.30
     Davidson diagonalization with overlap
     ethr =  6.43E-11,  avg # of iterations =  5.4

     total cpu time spent up to now is      268.8 secs

     End of self-consistent calculation

     Number of k-points >= 100: set verbosity='high' to print the bands.

     highest occupied level (ev):     3.7194

!    total energy              =    -361.36332176 Ry
     estimated scf accuracy    <          8.3E-10 Ry

     The total energy is the sum of the following terms:
     one-electron contribution =    -206.44673530 Ry
     hartree contribution      =     139.65727325 Ry
     xc contribution           =    -109.36475653 Ry
     ewald contribution        =    -185.20910318 Ry

     convergence has been achieved in  30 iterations

     Forces acting on atoms (cartesian axes, Ry/au):

     atom    1 type  1   force =    -0.06178391   -0.07288121   -0.16888872
     atom    2 type  1   force =    -0.03536663    0.13172327    0.36674825
     atom    3 type  2   force =    -0.03233415   -0.02437754   -0.03199438
     atom    4 type  2   force =     0.12948468   -0.03446452   -0.16586515
     The non-local contrib.  to forces
     atom    1 type  1   force =    -0.48314545   -0.35866155    0.04507524
     atom    2 type  1   force =    -0.13475289    0.72650038    0.66663124
     atom    3 type  2   force =    -0.28318687    0.30712203    0.54768263
     atom    4 type  2   force =    -0.71982655    0.04669417    0.06669379
     The ionic contribution  to forces
     atom    1 type  1   force =    -5.03781525   -3.83756131   -4.23408150
     atom    2 type  1   force =    -1.44943843    7.23408062    9.17034972
     atom    3 type  2   force =     0.48934949   -3.20655665   -1.93229094
     atom    4 type  2   force =     5.99790419   -0.18996265   -3.00397727
     The local contribution  to forces
     atom    1 type  1   force =     5.41176149    4.08743470    4.01033918
     atom    2 type  1   force =     1.53469823   -7.77054621   -9.40150097
     atom    3 type  2   force =    -0.24147195    2.87749777    1.35745695
     atom    4 type  2   force =    -5.15409303    0.10912881    2.77116028
     The core correction contribution to forces
     atom    1 type  1   force =     0.04739445    0.03589183    0.00971142
     atom    2 type  1   force =     0.01412093   -0.05829100   -0.06866113
     atom    3 type  2   force =     0.00297583   -0.00243578   -0.00482531
     atom    4 type  2   force =     0.00550641   -0.00032763    0.00024151
     The Hubbard contrib.    to forces
     atom    1 type  1   force =     0.00000000    0.00000000    0.00000000
     atom    2 type  1   force =     0.00000000    0.00000000    0.00000000
     atom    3 type  2   force =     0.00000000    0.00000000    0.00000000
     atom    4 type  2   force =     0.00000000    0.00000000    0.00000000
     The SCF correction term to forces
     atom    1 type  1   force =     0.00002523    0.00001493    0.00006696
     atom    2 type  1   force =     0.00000990   -0.00002072   -0.00007062
     atom    3 type  2   force =     0.00000371   -0.00000509   -0.00001770
     atom    4 type  2   force =    -0.00000198    0.00000259    0.00001655

     Total force =     0.488761     Total SCF correction =     0.000107

     Writing all to output data dir ./ZnO_ANN.save/

     init_run     :      4.13s CPU      4.24s WALL (       1 calls)
     electrons    :    259.58s CPU    264.10s WALL (       1 calls)
     forces       :      1.47s CPU      1.49s WALL (       1 calls)

     Called by init_run:
     wfcinit      :      3.03s CPU      3.09s WALL (       1 calls)
     potinit      :      0.38s CPU      0.39s WALL (       1 calls)
     hinit0       :      0.62s CPU      0.63s WALL (       1 calls)

     Called by electrons:
     c_bands      :    231.23s CPU    235.15s WALL (      30 calls)
     sum_band     :     25.32s CPU     25.84s WALL (      30 calls)
     v_of_rho     :      0.62s CPU      0.67s WALL (      31 calls)
     newd         :      2.32s CPU      2.37s WALL (      31 calls)
     mix_rho      :      0.11s CPU      0.12s WALL (      30 calls)

     Called by c_bands:
     init_us_2    :      2.12s CPU      2.15s WALL (    6944 calls)
     init_us_2:cp :      2.09s CPU      2.13s WALL (    6944 calls)
     cegterg      :    224.74s CPU    228.57s WALL (    3360 calls)

     Called by *egterg:
     cdiaghg      :     20.01s CPU     20.13s WALL (   17334 calls)
     h_psi        :    129.67s CPU    132.59s WALL (   17446 calls)
     s_psi        :     18.96s CPU     19.07s WALL (   17446 calls)
     g_psi        :      0.50s CPU      0.50s WALL (   13974 calls)

     Called by h_psi:
     h_psi:calbec :     19.96s CPU     20.55s WALL (   17446 calls)
     vloc_psi     :     90.28s CPU     92.48s WALL (   17446 calls)
     add_vuspsi   :     18.99s CPU     19.13s WALL (   17446 calls)

     General routines
     calbec       :     26.75s CPU     27.49s WALL (   21254 calls)
     fft          :      0.66s CPU      0.72s WALL (     412 calls)
     ffts         :      0.13s CPU      0.13s WALL (      61 calls)
     fftw         :     89.17s CPU     91.32s WALL (  448138 calls)
     interpolate  :      0.16s CPU      0.16s WALL (      31 calls)

     Parallel routines

     PWSCF        :   4m25.93s CPU   4m30.92s WALL


   This run was terminated on:  21:23:22  24Jun2025            

=------------------------------------------------------------------------------=
   JOB DONE.
=------------------------------------------------------------------------------=
Note: The following floating-point exceptions are signalling: IEEE_INVALID_FLAG
