
     Program PWSCF v.7.2 starts on 24Jun2025 at 18:28:22 

     This program is part of the open-source Quantum ESPRESSO suite
     for quantum simulation of materials; please cite
         "P. Giannozzi et al., J. Phys.:Condens. Matter 21 395502 (2009);
         "P. Giannozzi et al., J. Phys.:Condens. Matter 29 465901 (2017);
         "P. Giannozzi et al., J. Chem. Phys. 152 154105 (2020);
          URL http://www.quantum-espresso.org", 
     in publications or presentations arising from this work. More details at
     http://www.quantum-espresso.org/quote

     Parallel version (MPI), running on     8 processors

     MPI processes distributed on     1 nodes
     90853 MiB available memory on the printing compute node when the environment starts

     Reading input from /home/jvc/QEspresso7.2/ZnO_DataBase/scf_025_NOSYM.in/scf-6.43-1.65-0.25-3.in

     Current dimensions of program PWSCF are:
     Max number of different atomic species (ntypx) = 10
     Max number of k-points (npk) =  40000
     Max angular momentum in pseudopotentials (lmaxx) =  4
     file Zn.upf: wavefunction(s)  3D renormalized

     R & G space division:  proc/nbgrp/npool/nimage =       8
     Subspace diagonalization in iterative solution of the eigenvalue problem:
     a serial algorithm will be used


     Parallelization info
     --------------------
     sticks:   dense  smooth     PW     G-vecs:    dense   smooth      PW
     Min         143      71     20                 6229     2189     360
     Max         145      73     21                 6232     2190     367
     Sum        1147     571    163                49835    17513    2899

     Using Slab Decomposition



     bravais-lattice index     =            0
     lattice parameter (alat)  =       6.4260  a.u.
     unit-cell volume          =     367.6779 (a.u.)^3
     number of atoms/cell      =            4
     number of atomic types    =            2
     number of electrons       =        36.00
     number of Kohn-Sham states=           18
     kinetic-energy cutoff     =      50.0000  Ry
     charge density cutoff     =     400.0000  Ry
     scf convergence threshold =      1.0E-08
     mixing beta               =       0.3000
     number of iterations used =            8  plain     mixing
     Exchange-correlation= PBE
                           (   1   4   3   4   0   0   0)

     celldm(1)=   6.425974  celldm(2)=   0.000000  celldm(3)=   0.000000
     celldm(4)=   0.000000  celldm(5)=   0.000000  celldm(6)=   0.000000

     crystal axes: (cart. coord. in units of alat)
               a(1) = (   1.000000   0.000000   0.000000 )  
               a(2) = (  -0.500000   0.866025   0.000000 )  
               a(3) = (   0.000000   0.000000   1.600000 )  

     reciprocal axes: (cart. coord. in units 2 pi/alat)
               b(1) = (  1.000000  0.577350 -0.000000 )  
               b(2) = (  0.000000  1.154701  0.000000 )  
               b(3) = (  0.000000 -0.000000  0.625000 )  


     PseudoPot. # 1 for Zn read from file:
     ./pseudos/Zn.upf
     MD5 check sum: 7f56cabf9682ed8c977c2f7d0c5985c5
     Pseudo is Ultrasoft + core correction, Zval = 12.0
     Generated using &quot;atomic&quot; code by A. Dal Corso  v.6.2.2
     Using radial grid of 1201 points,  6 beta functions with: 
                l(1) =   0
                l(2) =   0
                l(3) =   1
                l(4) =   1
                l(5) =   2
                l(6) =   2
     Q(r) pseudized with 0 coefficients 


     PseudoPot. # 2 for O  read from file:
     ./pseudos/O.upf
     MD5 check sum: 91400c9766925bcf19f520983a725ff0
     Pseudo is Ultrasoft + core correction, Zval =  6.0
     Generated using &quot;atomic&quot; code by A. Dal Corso  v.6.3MaX
     Using radial grid of 1095 points,  4 beta functions with: 
                l(1) =   0
                l(2) =   0
                l(3) =   1
                l(4) =   1
     Q(r) pseudized with 0 coefficients 


     atomic species   valence    mass     pseudopotential
        Zn            12.00    63.38000     Zn( 1.00)
        O              6.00    15.99900     O ( 1.00)

     No symmetry found



   Cartesian axes

     site n.     atom                  positions (alat units)
         1           Zn  tau(   1) = (   0.7541021   0.0730476   0.6374536  )
         2           Zn  tau(   2) = (   0.2614120   0.4683831   0.0853053  )
         3           O   tau(   3) = (   0.5635445   0.3761811   1.1495189  )
         4           O   tau(   4) = (   0.2766207   0.5047863   0.6409725  )

     number of k points=   112

     Number of k-points >= 100: set verbosity='high' to print them.

     Dense  grid:    49835 G-vectors     FFT dimensions: (  45,  45,  72)

     Smooth grid:    17513 G-vectors     FFT dimensions: (  30,  30,  48)

     Estimated max dynamical RAM per process >      34.06 MB

     Estimated total dynamical RAM >     272.46 MB

     Check: negative core charge=   -0.000002

     Initial potential from superposition of free atoms

     starting charge      35.9925, renormalised to      36.0000
     Starting wfcs are   26 randomized atomic wfcs

     total cpu time spent up to now is        4.4 secs

     Self-consistent Calculation

     iteration #  1     ecut=    50.00 Ry     beta= 0.30
     Davidson diagonalization with overlap
     ethr =  1.00E-02,  avg # of iterations =  2.0

     total cpu time spent up to now is       10.1 secs

     total energy              =    -360.71759873 Ry
     estimated scf accuracy    <       1.35393360 Ry

     iteration #  2     ecut=    50.00 Ry     beta= 0.30
     Davidson diagonalization with overlap
     ethr =  3.76E-03,  avg # of iterations =  6.8

     total cpu time spent up to now is       18.4 secs

     total energy              =    -361.04344118 Ry
     estimated scf accuracy    <       0.34342126 Ry

     iteration #  3     ecut=    50.00 Ry     beta= 0.30
     Davidson diagonalization with overlap
     ethr =  9.54E-04,  avg # of iterations =  3.4

     total cpu time spent up to now is       24.8 secs

     total energy              =    -361.01933621 Ry
     estimated scf accuracy    <       0.12428654 Ry

     iteration #  4     ecut=    50.00 Ry     beta= 0.30
     Davidson diagonalization with overlap
     c_bands:  1 eigenvalues not converged
     ethr =  3.45E-04,  avg # of iterations = 10.3

     total cpu time spent up to now is       37.0 secs

     total energy              =    -361.17628394 Ry
     estimated scf accuracy    <       0.47297672 Ry

     iteration #  5     ecut=    50.00 Ry     beta= 0.30
     Davidson diagonalization with overlap
     ethr =  3.45E-04,  avg # of iterations =  1.0

     total cpu time spent up to now is       42.1 secs

     total energy              =    -361.18834465 Ry
     estimated scf accuracy    <       0.40921250 Ry

     iteration #  6     ecut=    50.00 Ry     beta= 0.30
     Davidson diagonalization with overlap
     ethr =  3.45E-04,  avg # of iterations =  1.1

     total cpu time spent up to now is       47.1 secs

     total energy              =    -361.08837495 Ry
     estimated scf accuracy    <       0.42935411 Ry

     iteration #  7     ecut=    50.00 Ry     beta= 0.30
     Davidson diagonalization with overlap
     ethr =  3.45E-04,  avg # of iterations =  6.1

     total cpu time spent up to now is       54.7 secs

     total energy              =    -361.07445748 Ry
     estimated scf accuracy    <       0.06247706 Ry

     iteration #  8     ecut=    50.00 Ry     beta= 0.30
     Davidson diagonalization with overlap
     c_bands:  2 eigenvalues not converged
     c_bands:  1 eigenvalues not converged
     c_bands:  1 eigenvalues not converged
     c_bands:  1 eigenvalues not converged
     c_bands:  1 eigenvalues not converged
     c_bands:  2 eigenvalues not converged
     c_bands:  1 eigenvalues not converged
     c_bands:  1 eigenvalues not converged
     c_bands:  1 eigenvalues not converged
     c_bands:  2 eigenvalues not converged
     c_bands:  1 eigenvalues not converged
     c_bands:  1 eigenvalues not converged
     ethr =  1.74E-04,  avg # of iterations = 12.8

     total cpu time spent up to now is       66.7 secs

     total energy              =    -361.21332665 Ry
     estimated scf accuracy    <       0.87123518 Ry

     iteration #  9     ecut=    50.00 Ry     beta= 0.30
     Davidson diagonalization with overlap
     ethr =  1.74E-04,  avg # of iterations =  1.3

     total cpu time spent up to now is       71.8 secs

     total energy              =    -361.15452935 Ry
     estimated scf accuracy    <       0.86253882 Ry

     iteration # 10     ecut=    50.00 Ry     beta= 0.30
     Davidson diagonalization with overlap
     ethr =  1.74E-04,  avg # of iterations =  2.9

     total cpu time spent up to now is       77.8 secs

     total energy              =    -360.98711684 Ry
     estimated scf accuracy    <       0.65205188 Ry

     iteration # 11     ecut=    50.00 Ry     beta= 0.30
     Davidson diagonalization with overlap
     c_bands:  1 eigenvalues not converged
     c_bands:  1 eigenvalues not converged
     c_bands:  1 eigenvalues not converged
     c_bands:  1 eigenvalues not converged
     c_bands:  1 eigenvalues not converged
     ethr =  1.74E-04,  avg # of iterations = 13.5

     total cpu time spent up to now is       90.6 secs

     total energy              =    -361.11099569 Ry
     estimated scf accuracy    <       0.09165717 Ry

     iteration # 12     ecut=    50.00 Ry     beta= 0.30
     Davidson diagonalization with overlap
     ethr =  1.74E-04,  avg # of iterations =  2.0

     total cpu time spent up to now is       96.1 secs

     total energy              =    -361.09612026 Ry
     estimated scf accuracy    <       0.04494638 Ry

     iteration # 13     ecut=    50.00 Ry     beta= 0.30
     Davidson diagonalization with overlap
     ethr =  1.25E-04,  avg # of iterations =  8.0

     total cpu time spent up to now is      105.0 secs

     total energy              =    -361.15064323 Ry
     estimated scf accuracy    <       0.12027129 Ry

     iteration # 14     ecut=    50.00 Ry     beta= 0.30
     Davidson diagonalization with overlap
     ethr =  1.25E-04,  avg # of iterations =  1.6

     total cpu time spent up to now is      110.2 secs

     total energy              =    -361.11463159 Ry
     estimated scf accuracy    <       0.15800926 Ry

     iteration # 15     ecut=    50.00 Ry     beta= 0.30
     Davidson diagonalization with overlap
     ethr =  1.25E-04,  avg # of iterations =  2.2

     total cpu time spent up to now is      115.9 secs

     total energy              =    -361.08668253 Ry
     estimated scf accuracy    <       0.08973768 Ry

     iteration # 16     ecut=    50.00 Ry     beta= 0.30
     Davidson diagonalization with overlap
     ethr =  1.25E-04,  avg # of iterations =  8.1

     total cpu time spent up to now is      125.4 secs

     total energy              =    -361.14737949 Ry
     estimated scf accuracy    <       0.07152099 Ry

     iteration # 17     ecut=    50.00 Ry     beta= 0.30
     Davidson diagonalization with overlap
     ethr =  1.25E-04,  avg # of iterations =  2.2

     total cpu time spent up to now is      130.8 secs

     total energy              =    -361.14988612 Ry
     estimated scf accuracy    <       0.11434985 Ry

     iteration # 18     ecut=    50.00 Ry     beta= 0.30
     Davidson diagonalization with overlap
     ethr =  1.25E-04,  avg # of iterations =  1.1

     total cpu time spent up to now is      135.8 secs

     total energy              =    -361.14105659 Ry
     estimated scf accuracy    <       0.12128978 Ry

     iteration # 19     ecut=    50.00 Ry     beta= 0.30
     Davidson diagonalization with overlap
     ethr =  1.25E-04,  avg # of iterations =  1.1

     total cpu time spent up to now is      140.7 secs

     total energy              =    -361.12201808 Ry
     estimated scf accuracy    <       0.11169716 Ry

     iteration # 20     ecut=    50.00 Ry     beta= 0.30
     Davidson diagonalization with overlap
     ethr =  1.25E-04,  avg # of iterations =  1.5

     total cpu time spent up to now is      145.9 secs

     total energy              =    -361.13258065 Ry
     estimated scf accuracy    <       0.06977263 Ry

     iteration # 21     ecut=    50.00 Ry     beta= 0.30
     Davidson diagonalization with overlap
     ethr =  1.25E-04,  avg # of iterations =  1.0

     total cpu time spent up to now is      151.0 secs

     total energy              =    -361.13036177 Ry
     estimated scf accuracy    <       0.08423568 Ry

     iteration # 22     ecut=    50.00 Ry     beta= 0.30
     Davidson diagonalization with overlap
     ethr =  1.25E-04,  avg # of iterations =  1.0

     total cpu time spent up to now is      155.9 secs

     total energy              =    -361.11053201 Ry
     estimated scf accuracy    <       0.07765837 Ry

     iteration # 23     ecut=    50.00 Ry     beta= 0.30
     Davidson diagonalization with overlap
     ethr =  1.25E-04,  avg # of iterations =  5.3

     total cpu time spent up to now is      162.5 secs

     total energy              =    -361.11690634 Ry
     estimated scf accuracy    <       0.00851023 Ry

     iteration # 24     ecut=    50.00 Ry     beta= 0.30
     Davidson diagonalization with overlap
     ethr =  2.36E-05,  avg # of iterations =  7.0

     total cpu time spent up to now is      170.4 secs

     total energy              =    -361.12034851 Ry
     estimated scf accuracy    <       0.00015905 Ry

     iteration # 25     ecut=    50.00 Ry     beta= 0.30
     Davidson diagonalization with overlap
     c_bands:  2 eigenvalues not converged
     c_bands:  2 eigenvalues not converged
     ethr =  4.42E-07,  avg # of iterations = 12.4

     total cpu time spent up to now is      184.4 secs

     total energy              =    -361.11995109 Ry
     estimated scf accuracy    <       0.00252400 Ry

     iteration # 26     ecut=    50.00 Ry     beta= 0.30
     Davidson diagonalization with overlap
     c_bands:  2 eigenvalues not converged
     c_bands:  2 eigenvalues not converged
     c_bands:  1 eigenvalues not converged
     c_bands:  1 eigenvalues not converged
     c_bands:  2 eigenvalues not converged
     c_bands:  2 eigenvalues not converged
     c_bands:  2 eigenvalues not converged
     c_bands:  2 eigenvalues not converged
     c_bands:  1 eigenvalues not converged
     c_bands:  2 eigenvalues not converged
     c_bands:  1 eigenvalues not converged
     c_bands:  1 eigenvalues not converged
     c_bands:  1 eigenvalues not converged
     ethr =  4.42E-07,  avg # of iterations = 14.6

     total cpu time spent up to now is      199.6 secs

     total energy              =    -361.12146140 Ry
     estimated scf accuracy    <       0.00108675 Ry

     iteration # 27     ecut=    50.00 Ry     beta= 0.30
     Davidson diagonalization with overlap
     c_bands:  3 eigenvalues not converged
     c_bands:  2 eigenvalues not converged
     c_bands:  2 eigenvalues not converged
     c_bands:  1 eigenvalues not converged
     c_bands:  3 eigenvalues not converged
     c_bands:  2 eigenvalues not converged
     c_bands:  2 eigenvalues not converged
     c_bands:  2 eigenvalues not converged
     c_bands:  2 eigenvalues not converged
     c_bands:  2 eigenvalues not converged
     c_bands:  1 eigenvalues not converged
     ethr =  4.42E-07,  avg # of iterations = 14.2

     total cpu time spent up to now is      214.1 secs

     total energy              =    -361.12648265 Ry
     estimated scf accuracy    <       0.01544169 Ry

     iteration # 28     ecut=    50.00 Ry     beta= 0.30
     Davidson diagonalization with overlap
     c_bands:  3 eigenvalues not converged
     c_bands:  1 eigenvalues not converged
     c_bands:  3 eigenvalues not converged
     c_bands:  2 eigenvalues not converged
     c_bands:  2 eigenvalues not converged
     c_bands:  1 eigenvalues not converged
     c_bands:  2 eigenvalues not converged
     c_bands:  2 eigenvalues not converged
     c_bands:  1 eigenvalues not converged
     c_bands:  3 eigenvalues not converged
     c_bands:  1 eigenvalues not converged
     c_bands:  1 eigenvalues not converged
     c_bands:  1 eigenvalues not converged
     c_bands:  2 eigenvalues not converged
     c_bands:  1 eigenvalues not converged
     c_bands:  3 eigenvalues not converged
     c_bands:  2 eigenvalues not converged
     c_bands:  1 eigenvalues not converged
     c_bands:  2 eigenvalues not converged
     c_bands:  1 eigenvalues not converged
     c_bands:  2 eigenvalues not converged
     c_bands:  1 eigenvalues not converged
     c_bands:  2 eigenvalues not converged
     c_bands:  1 eigenvalues not converged
     c_bands:  2 eigenvalues not converged
     c_bands:  2 eigenvalues not converged
     c_bands:  1 eigenvalues not converged
     c_bands:  1 eigenvalues not converged
     c_bands:  2 eigenvalues not converged
     c_bands:  1 eigenvalues not converged
     c_bands:  2 eigenvalues not converged
     c_bands:  2 eigenvalues not converged
     c_bands:  2 eigenvalues not converged
     c_bands:  1 eigenvalues not converged
     c_bands:  3 eigenvalues not converged
     c_bands:  2 eigenvalues not converged
     c_bands:  2 eigenvalues not converged
     c_bands:  2 eigenvalues not converged
     c_bands:  1 eigenvalues not converged
     c_bands:  1 eigenvalues not converged
     ethr =  4.42E-07,  avg # of iterations = 17.0

     total cpu time spent up to now is      232.7 secs

     total energy              =    -361.12617495 Ry
     estimated scf accuracy    <       0.06955657 Ry

     iteration # 29     ecut=    50.00 Ry     beta= 0.30
     Davidson diagonalization with overlap
     ethr =  4.42E-07,  avg # of iterations =  8.0

     total cpu time spent up to now is      241.9 secs

     total energy              =    -361.11812300 Ry
     estimated scf accuracy    <       0.05449106 Ry

     iteration # 30     ecut=    50.00 Ry     beta= 0.30
     Davidson diagonalization with overlap
     c_bands:  2 eigenvalues not converged
     c_bands:  1 eigenvalues not converged
     c_bands:  1 eigenvalues not converged
     c_bands:  3 eigenvalues not converged
     c_bands:  2 eigenvalues not converged
     c_bands:  2 eigenvalues not converged
     c_bands:  1 eigenvalues not converged
     c_bands:  1 eigenvalues not converged
     c_bands:  2 eigenvalues not converged
     c_bands:  1 eigenvalues not converged
     c_bands:  1 eigenvalues not converged
     c_bands:  2 eigenvalues not converged
     c_bands:  3 eigenvalues not converged
     c_bands:  2 eigenvalues not converged
     c_bands:  1 eigenvalues not converged
     c_bands:  1 eigenvalues not converged
     c_bands:  3 eigenvalues not converged
     c_bands:  1 eigenvalues not converged
     c_bands:  3 eigenvalues not converged
     c_bands:  3 eigenvalues not converged
     c_bands:  3 eigenvalues not converged
     c_bands:  2 eigenvalues not converged
     c_bands:  1 eigenvalues not converged
     c_bands:  1 eigenvalues not converged
     c_bands:  2 eigenvalues not converged
     c_bands:  3 eigenvalues not converged
     c_bands:  2 eigenvalues not converged
     c_bands:  2 eigenvalues not converged
     c_bands:  1 eigenvalues not converged
     c_bands:  3 eigenvalues not converged
     c_bands:  3 eigenvalues not converged
     c_bands:  2 eigenvalues not converged
     c_bands:  2 eigenvalues not converged
     c_bands:  1 eigenvalues not converged
     c_bands:  1 eigenvalues not converged
     c_bands:  1 eigenvalues not converged
     c_bands:  1 eigenvalues not converged
     c_bands:  2 eigenvalues not converged
     c_bands:  2 eigenvalues not converged
     c_bands:  3 eigenvalues not converged
     c_bands:  1 eigenvalues not converged
     c_bands:  2 eigenvalues not converged
     c_bands:  1 eigenvalues not converged
     c_bands:  3 eigenvalues not converged
     c_bands:  1 eigenvalues not converged
     c_bands:  1 eigenvalues not converged
     c_bands:  3 eigenvalues not converged
     c_bands:  2 eigenvalues not converged
     c_bands:  1 eigenvalues not converged
     c_bands:  1 eigenvalues not converged
     c_bands:  1 eigenvalues not converged
     c_bands:  2 eigenvalues not converged
     c_bands:  1 eigenvalues not converged
     c_bands:  1 eigenvalues not converged
     c_bands:  2 eigenvalues not converged
     c_bands:  1 eigenvalues not converged
     c_bands:  1 eigenvalues not converged
     c_bands:  2 eigenvalues not converged
     c_bands:  2 eigenvalues not converged
     ethr =  4.42E-07,  avg # of iterations = 18.5

     total cpu time spent up to now is      263.6 secs

     total energy              =    -361.12313607 Ry
     estimated scf accuracy    <       0.00570768 Ry

     iteration # 31     ecut=    50.00 Ry     beta= 0.30
     Davidson diagonalization with overlap
     c_bands:  1 eigenvalues not converged
     c_bands:  2 eigenvalues not converged
     c_bands:  2 eigenvalues not converged
     c_bands:  2 eigenvalues not converged
     c_bands:  1 eigenvalues not converged
     c_bands:  2 eigenvalues not converged
     c_bands:  2 eigenvalues not converged
     c_bands:  2 eigenvalues not converged
     c_bands:  3 eigenvalues not converged
     c_bands:  2 eigenvalues not converged
     c_bands:  2 eigenvalues not converged
     c_bands:  2 eigenvalues not converged
     c_bands:  1 eigenvalues not converged
     c_bands:  2 eigenvalues not converged
     c_bands:  2 eigenvalues not converged
     c_bands:  2 eigenvalues not converged
     c_bands:  2 eigenvalues not converged
     c_bands:  2 eigenvalues not converged
     c_bands:  1 eigenvalues not converged
     c_bands:  1 eigenvalues not converged
     c_bands:  1 eigenvalues not converged
     c_bands:  2 eigenvalues not converged
     c_bands:  1 eigenvalues not converged
     ethr =  4.42E-07,  avg # of iterations = 16.6

     total cpu time spent up to now is      282.2 secs

     total energy              =    -361.12204075 Ry
     estimated scf accuracy    <       0.03154956 Ry

     iteration # 32     ecut=    50.00 Ry     beta= 0.30
     Davidson diagonalization with overlap
     c_bands:  2 eigenvalues not converged
     c_bands:  1 eigenvalues not converged
     c_bands:  1 eigenvalues not converged
     c_bands:  1 eigenvalues not converged
     c_bands:  1 eigenvalues not converged
     ethr =  4.42E-07,  avg # of iterations = 11.8

     total cpu time spent up to now is      293.7 secs

     total energy              =    -361.11892577 Ry
     estimated scf accuracy    <       0.01670194 Ry

     iteration # 33     ecut=    50.00 Ry     beta= 0.30
     Davidson diagonalization with overlap
     c_bands:  1 eigenvalues not converged
     c_bands:  2 eigenvalues not converged
     c_bands:  1 eigenvalues not converged
     c_bands:  2 eigenvalues not converged
     c_bands:  2 eigenvalues not converged
     c_bands:  2 eigenvalues not converged
     c_bands:  1 eigenvalues not converged
     c_bands:  2 eigenvalues not converged
     c_bands:  1 eigenvalues not converged
     c_bands:  1 eigenvalues not converged
     c_bands:  1 eigenvalues not converged
     c_bands:  2 eigenvalues not converged
     c_bands:  1 eigenvalues not converged
     c_bands:  3 eigenvalues not converged
     c_bands:  2 eigenvalues not converged
     c_bands:  3 eigenvalues not converged
     c_bands:  2 eigenvalues not converged
     c_bands:  3 eigenvalues not converged
     c_bands:  1 eigenvalues not converged
     c_bands:  1 eigenvalues not converged
     c_bands:  2 eigenvalues not converged
     c_bands:  1 eigenvalues not converged
     c_bands:  3 eigenvalues not converged
     c_bands:  1 eigenvalues not converged
     c_bands:  1 eigenvalues not converged
     c_bands:  2 eigenvalues not converged
     c_bands:  1 eigenvalues not converged
     c_bands:  3 eigenvalues not converged
     c_bands:  2 eigenvalues not converged
     c_bands:  2 eigenvalues not converged
     c_bands:  1 eigenvalues not converged
     c_bands:  1 eigenvalues not converged
     c_bands:  1 eigenvalues not converged
     ethr =  4.42E-07,  avg # of iterations = 16.8

     total cpu time spent up to now is      312.7 secs

     total energy              =    -361.12050441 Ry
     estimated scf accuracy    <       0.00013940 Ry

     iteration # 34     ecut=    50.00 Ry     beta= 0.30
     Davidson diagonalization with overlap
     ethr =  3.87E-07,  avg # of iterations =  2.6

     total cpu time spent up to now is      318.2 secs

     total energy              =    -361.12052156 Ry
     estimated scf accuracy    <       0.00009333 Ry

     iteration # 35     ecut=    50.00 Ry     beta= 0.30
     Davidson diagonalization with overlap
     ethr =  2.59E-07,  avg # of iterations =  1.2

     total cpu time spent up to now is      323.2 secs

     total energy              =    -361.12050982 Ry
     estimated scf accuracy    <       0.00008785 Ry

     iteration # 36     ecut=    50.00 Ry     beta= 0.30
     Davidson diagonalization with overlap
     ethr =  2.44E-07,  avg # of iterations =  2.2

     total cpu time spent up to now is      328.5 secs

     total energy              =    -361.12050591 Ry
     estimated scf accuracy    <       0.00004203 Ry

     iteration # 37     ecut=    50.00 Ry     beta= 0.30
     Davidson diagonalization with overlap
     ethr =  1.17E-07,  avg # of iterations =  6.2

     total cpu time spent up to now is      335.5 secs

     total energy              =    -361.12051634 Ry
     estimated scf accuracy    <       0.00000051 Ry

     iteration # 38     ecut=    50.00 Ry     beta= 0.30
     Davidson diagonalization with overlap
     c_bands:  1 eigenvalues not converged
     c_bands:  2 eigenvalues not converged
     c_bands:  1 eigenvalues not converged
     c_bands:  2 eigenvalues not converged
     c_bands:  1 eigenvalues not converged
     c_bands:  1 eigenvalues not converged
     c_bands:  2 eigenvalues not converged
     c_bands:  1 eigenvalues not converged
     c_bands:  2 eigenvalues not converged
     c_bands:  2 eigenvalues not converged
     c_bands:  2 eigenvalues not converged
     c_bands:  2 eigenvalues not converged
     c_bands:  1 eigenvalues not converged
     c_bands:  1 eigenvalues not converged
     ethr =  1.42E-09,  avg # of iterations = 13.3

     total cpu time spent up to now is      349.0 secs

     total energy              =    -361.12051602 Ry
     estimated scf accuracy    <       0.00000932 Ry

     iteration # 39     ecut=    50.00 Ry     beta= 0.30
     Davidson diagonalization with overlap
     c_bands:  1 eigenvalues not converged
     c_bands:  2 eigenvalues not converged
     c_bands:  1 eigenvalues not converged
     c_bands:  1 eigenvalues not converged
     c_bands:  2 eigenvalues not converged
     c_bands:  1 eigenvalues not converged
     ethr =  1.42E-09,  avg # of iterations = 14.1

     total cpu time spent up to now is      362.7 secs

     total energy              =    -361.12051766 Ry
     estimated scf accuracy    <       0.00000069 Ry

     iteration # 40     ecut=    50.00 Ry     beta= 0.30
     Davidson diagonalization with overlap
     ethr =  1.42E-09,  avg # of iterations =  2.3

     total cpu time spent up to now is      368.0 secs

     total energy              =    -361.12051748 Ry
     estimated scf accuracy    <       0.00000099 Ry

     iteration # 41     ecut=    50.00 Ry     beta= 0.30
     Davidson diagonalization with overlap
     ethr =  1.42E-09,  avg # of iterations =  1.9

     total cpu time spent up to now is      373.3 secs

     total energy              =    -361.12051740 Ry
     estimated scf accuracy    <       0.00000055 Ry

     iteration # 42     ecut=    50.00 Ry     beta= 0.30
     Davidson diagonalization with overlap
     ethr =  1.42E-09,  avg # of iterations =  3.9

     total cpu time spent up to now is      379.4 secs

     total energy              =    -361.12051746 Ry
     estimated scf accuracy    <       0.00000008 Ry

     iteration # 43     ecut=    50.00 Ry     beta= 0.30
     Davidson diagonalization with overlap
     ethr =  2.08E-10,  avg # of iterations =  8.8

     total cpu time spent up to now is      388.7 secs

     total energy              =    -361.12051750 Ry
     estimated scf accuracy    <       0.00000009 Ry

     iteration # 44     ecut=    50.00 Ry     beta= 0.30
     Davidson diagonalization with overlap
     ethr =  2.08E-10,  avg # of iterations =  1.5

     total cpu time spent up to now is      393.9 secs

     total energy              =    -361.12051749 Ry
     estimated scf accuracy    <       0.00000005 Ry

     iteration # 45     ecut=    50.00 Ry     beta= 0.30
     Davidson diagonalization with overlap
     ethr =  1.26E-10,  avg # of iterations =  7.8

     total cpu time spent up to now is      402.6 secs

     total energy              =    -361.12051751 Ry
     estimated scf accuracy    <       0.00000007 Ry

     iteration # 46     ecut=    50.00 Ry     beta= 0.30
     Davidson diagonalization with overlap
     ethr =  1.26E-10,  avg # of iterations =  1.0

     total cpu time spent up to now is      407.5 secs

     total energy              =    -361.12051750 Ry
     estimated scf accuracy    <       0.00000006 Ry

     iteration # 47     ecut=    50.00 Ry     beta= 0.30
     Davidson diagonalization with overlap
     ethr =  1.26E-10,  avg # of iterations =  6.8

     total cpu time spent up to now is      415.0 secs

     End of self-consistent calculation

     Number of k-points >= 100: set verbosity='high' to print the bands.

     highest occupied level (ev):     6.5081

!    total energy              =    -361.12051751 Ry
     estimated scf accuracy    <          2.0E-09 Ry

     The total energy is the sum of the following terms:
     one-electron contribution =    -188.87891557 Ry
     hartree contribution      =     132.59346729 Ry
     xc contribution           =    -109.29834970 Ry
     ewald contribution        =    -195.53671953 Ry

     convergence has been achieved in  47 iterations

     Forces acting on atoms (cartesian axes, Ry/au):

     atom    1 type  1   force =    -0.04387524    0.69522455    0.11297217
     atom    2 type  1   force =     0.02408037   -0.03043211   -0.18087298
     atom    3 type  2   force =     0.02168110   -0.01541694    0.12915115
     atom    4 type  2   force =    -0.00188623   -0.64937550   -0.06125033
     The non-local contrib.  to forces
     atom    1 type  1   force =     0.05031925    0.83043823   -0.31903984
     atom    2 type  1   force =    -0.16784085    0.06054210    0.06289967
     atom    3 type  2   force =    -0.12276945   -0.21713858    0.35108048
     atom    4 type  2   force =    -0.10899315    0.61835801   -0.99375037
     The ionic contribution  to forces
     atom    1 type  1   force =     0.67615710    9.53270242    4.69102544
     atom    2 type  1   force =    -1.80118990   -1.10382076  -15.62972691
     atom    3 type  2   force =     1.68426055    0.40634524    4.91163548
     atom    4 type  2   force =    -0.55922775   -8.83522690    6.02706599
     The local contribution  to forces
     atom    1 type  1   force =    -0.76853488   -9.55785886   -4.26792511
     atom    2 type  1   force =     1.98095557    1.01312513   15.36720706
     atom    3 type  2   force =    -1.54085287   -0.20682077   -5.12938397
     atom    4 type  2   force =     0.66516796    7.56955456   -5.10329751
     The core correction contribution to forces
     atom    1 type  1   force =    -0.00182886   -0.11006027    0.00898735
     atom    2 type  1   force =     0.01217690   -0.00027674    0.01873983
     atom    3 type  2   force =     0.00103168    0.00220156   -0.00424102
     atom    4 type  2   force =     0.00117447   -0.00206464    0.00875978
     The Hubbard contrib.    to forces
     atom    1 type  1   force =     0.00000000    0.00000000    0.00000000
     atom    2 type  1   force =     0.00000000    0.00000000    0.00000000
     atom    3 type  2   force =     0.00000000    0.00000000    0.00000000
     atom    4 type  2   force =     0.00000000    0.00000000    0.00000000
     The SCF correction term to forces
     atom    1 type  1   force =     0.00000906    0.00000455   -0.00009526
     atom    2 type  1   force =    -0.00002443   -0.00000032   -0.00001222
     atom    3 type  2   force =     0.00000811   -0.00000287    0.00004061
     atom    4 type  2   force =    -0.00001084    0.00000500   -0.00004780

     Total force =     0.987460     Total SCF correction =     0.000119

     Writing all to output data dir ./ZnO_ANN.save/

     init_run     :      3.80s CPU      3.90s WALL (       1 calls)
     electrons    :    403.73s CPU    410.60s WALL (       1 calls)
     forces       :      1.27s CPU      1.29s WALL (       1 calls)

     Called by init_run:
     wfcinit      :      2.78s CPU      2.84s WALL (       1 calls)
     potinit      :      0.38s CPU      0.38s WALL (       1 calls)
     hinit0       :      0.56s CPU      0.57s WALL (       1 calls)

     Called by electrons:
     c_bands      :    362.46s CPU    368.46s WALL (      47 calls)
     sum_band     :     37.17s CPU     37.94s WALL (      47 calls)
     v_of_rho     :      0.93s CPU      0.98s WALL (      48 calls)
     newd         :      3.00s CPU      3.03s WALL (      48 calls)
     mix_rho      :      0.15s CPU      0.16s WALL (      47 calls)

     Called by c_bands:
     init_us_2    :      2.67s CPU      2.70s WALL (   10752 calls)
     init_us_2:cp :      2.63s CPU      2.67s WALL (   10752 calls)
     cegterg      :    353.61s CPU    359.48s WALL (    5264 calls)

     Called by *egterg:
     cdiaghg      :     43.07s CPU     43.46s WALL (   39639 calls)
     h_psi        :    201.50s CPU    205.82s WALL (   39751 calls)
     s_psi        :     24.26s CPU     24.49s WALL (   39751 calls)
     g_psi        :      0.72s CPU      0.73s WALL (   34375 calls)

     Called by h_psi:
     h_psi:calbec :     27.83s CPU     28.68s WALL (   39751 calls)
     vloc_psi     :    148.66s CPU    151.87s WALL (   39751 calls)
     add_vuspsi   :     24.30s CPU     24.56s WALL (   39751 calls)

     General routines
     calbec       :     36.56s CPU     37.63s WALL (   45463 calls)
     fft          :      0.96s CPU      1.04s WALL (     633 calls)
     ffts         :      0.17s CPU      0.18s WALL (      95 calls)
     fftw         :    149.91s CPU    153.12s WALL (  720470 calls)
     interpolate  :      0.20s CPU      0.21s WALL (      48 calls)

     Parallel routines

     PWSCF        :   6m49.53s CPU   6m56.83s WALL


   This run was terminated on:  18:35:19  24Jun2025            

=------------------------------------------------------------------------------=
   JOB DONE.
=------------------------------------------------------------------------------=
Note: The following floating-point exceptions are signalling: IEEE_INVALID_FLAG
