
     Program PWSCF v.7.2 starts on 24Jun2025 at 15:56:30 

     This program is part of the open-source Quantum ESPRESSO suite
     for quantum simulation of materials; please cite
         "P. Giannozzi et al., J. Phys.:Condens. Matter 21 395502 (2009);
         "P. Giannozzi et al., J. Phys.:Condens. Matter 29 465901 (2017);
         "P. Giannozzi et al., J. Chem. Phys. 152 154105 (2020);
          URL http://www.quantum-espresso.org", 
     in publications or presentations arising from this work. More details at
     http://www.quantum-espresso.org/quote

     Parallel version (MPI), running on     8 processors

     MPI processes distributed on     1 nodes
     91122 MiB available memory on the printing compute node when the environment starts

     Reading input from /home/jvc/QEspresso7.2/ZnO_DataBase/scf_025_NOSYM.in/scf-5.93-1.65-0.25-2.in

     Current dimensions of program PWSCF are:
     Max number of different atomic species (ntypx) = 10
     Max number of k-points (npk) =  40000
     Max angular momentum in pseudopotentials (lmaxx) =  4
     file Zn.upf: wavefunction(s)  3D renormalized

     R & G space division:  proc/nbgrp/npool/nimage =       8
     Subspace diagonalization in iterative solution of the eigenvalue problem:
     a serial algorithm will be used


     Parallelization info
     --------------------
     sticks:   dense  smooth     PW     G-vecs:    dense   smooth      PW
     Min         119      62     18                 4887     1734     288
     Max         120      63     19                 4898     1737     293
     Sum         955     499    151                39127    13885    2333

     Using Slab Decomposition



     bravais-lattice index     =            0
     lattice parameter (alat)  =       5.9317  a.u.
     unit-cell volume          =     289.1886 (a.u.)^3
     number of atoms/cell      =            4
     number of atomic types    =            2
     number of electrons       =        36.00
     number of Kohn-Sham states=           18
     kinetic-energy cutoff     =      50.0000  Ry
     charge density cutoff     =     400.0000  Ry
     scf convergence threshold =      1.0E-08
     mixing beta               =       0.3000
     number of iterations used =            8  plain     mixing
     Exchange-correlation= PBE
                           (   1   4   3   4   0   0   0)

     celldm(1)=   5.931669  celldm(2)=   0.000000  celldm(3)=   0.000000
     celldm(4)=   0.000000  celldm(5)=   0.000000  celldm(6)=   0.000000

     crystal axes: (cart. coord. in units of alat)
               a(1) = (   1.000000   0.000000   0.000000 )  
               a(2) = (  -0.500000   0.866025   0.000000 )  
               a(3) = (   0.000000   0.000000   1.600000 )  

     reciprocal axes: (cart. coord. in units 2 pi/alat)
               b(1) = (  1.000000  0.577350 -0.000000 )  
               b(2) = (  0.000000  1.154701  0.000000 )  
               b(3) = (  0.000000 -0.000000  0.625000 )  


     PseudoPot. # 1 for Zn read from file:
     ./pseudos/Zn.upf
     MD5 check sum: 7f56cabf9682ed8c977c2f7d0c5985c5
     Pseudo is Ultrasoft + core correction, Zval = 12.0
     Generated using &quot;atomic&quot; code by A. Dal Corso  v.6.2.2
     Using radial grid of 1201 points,  6 beta functions with: 
                l(1) =   0
                l(2) =   0
                l(3) =   1
                l(4) =   1
                l(5) =   2
                l(6) =   2
     Q(r) pseudized with 0 coefficients 


     PseudoPot. # 2 for O  read from file:
     ./pseudos/O.upf
     MD5 check sum: 91400c9766925bcf19f520983a725ff0
     Pseudo is Ultrasoft + core correction, Zval =  6.0
     Generated using &quot;atomic&quot; code by A. Dal Corso  v.6.3MaX
     Using radial grid of 1095 points,  4 beta functions with: 
                l(1) =   0
                l(2) =   0
                l(3) =   1
                l(4) =   1
     Q(r) pseudized with 0 coefficients 


     atomic species   valence    mass     pseudopotential
        Zn            12.00    63.38000     Zn( 1.00)
        O              6.00    15.99900     O ( 1.00)

     No symmetry found



   Cartesian axes

     site n.     atom                  positions (alat units)
         1           Zn  tau(   1) = (   0.6852648   0.1340160   1.0040056  )
         2           Zn  tau(   2) = (   0.2681801   0.4316080   0.0297933  )
         3           O   tau(   3) = (   0.3006239   0.2493476   1.0385230  )
         4           O   tau(   4) = (   0.0414852   0.6473733   0.8249951  )

     number of k points=   112

     Number of k-points >= 100: set verbosity='high' to print them.

     Dense  grid:    39127 G-vectors     FFT dimensions: (  40,  40,  64)

     Smooth grid:    13885 G-vectors     FFT dimensions: (  27,  27,  45)

     Estimated max dynamical RAM per process >      27.34 MB

     Estimated total dynamical RAM >     218.72 MB

     Check: negative core charge=   -0.000002

     Initial potential from superposition of free atoms

     starting charge      35.9925, renormalised to      36.0000
     Starting wfcs are   26 randomized atomic wfcs

     total cpu time spent up to now is        3.8 secs

     Self-consistent Calculation

     iteration #  1     ecut=    50.00 Ry     beta= 0.30
     Davidson diagonalization with overlap
     ethr =  1.00E-02,  avg # of iterations =  2.9

     total cpu time spent up to now is        9.3 secs

     total energy              =    -359.42185157 Ry
     estimated scf accuracy    <       1.45062829 Ry

     iteration #  2     ecut=    50.00 Ry     beta= 0.30
     Davidson diagonalization with overlap
     ethr =  4.03E-03,  avg # of iterations =  5.1

     total cpu time spent up to now is       15.6 secs

     total energy              =    -359.71908776 Ry
     estimated scf accuracy    <       0.10016673 Ry

     iteration #  3     ecut=    50.00 Ry     beta= 0.30
     Davidson diagonalization with overlap
     c_bands:  1 eigenvalues not converged
     ethr =  2.78E-04,  avg # of iterations =  9.9

     total cpu time spent up to now is       27.6 secs

     total energy              =    -359.77573835 Ry
     estimated scf accuracy    <       0.17156724 Ry

     iteration #  4     ecut=    50.00 Ry     beta= 0.30
     Davidson diagonalization with overlap
     c_bands:  2 eigenvalues not converged
     ethr =  2.78E-04,  avg # of iterations =  9.0

     total cpu time spent up to now is       37.0 secs

     total energy              =    -359.82792178 Ry
     estimated scf accuracy    <       0.05075798 Ry

     iteration #  5     ecut=    50.00 Ry     beta= 0.30
     Davidson diagonalization with overlap
     ethr =  1.41E-04,  avg # of iterations =  1.8

     total cpu time spent up to now is       41.7 secs

     total energy              =    -359.81258826 Ry
     estimated scf accuracy    <       0.02608493 Ry

     iteration #  6     ecut=    50.00 Ry     beta= 0.30
     Davidson diagonalization with overlap
     c_bands:  1 eigenvalues not converged
     c_bands:  2 eigenvalues not converged
     ethr =  7.25E-05,  avg # of iterations =  9.9

     total cpu time spent up to now is       52.4 secs

     total energy              =    -359.83386173 Ry
     estimated scf accuracy    <       0.06182639 Ry

     iteration #  7     ecut=    50.00 Ry     beta= 0.30
     Davidson diagonalization with overlap
     ethr =  7.25E-05,  avg # of iterations =  1.3

     total cpu time spent up to now is       57.0 secs

     total energy              =    -359.82058447 Ry
     estimated scf accuracy    <       0.04159002 Ry

     iteration #  8     ecut=    50.00 Ry     beta= 0.30
     Davidson diagonalization with overlap
     ethr =  7.25E-05,  avg # of iterations =  5.5

     total cpu time spent up to now is       63.7 secs

     total energy              =    -359.82935150 Ry
     estimated scf accuracy    <       0.00103133 Ry

     iteration #  9     ecut=    50.00 Ry     beta= 0.30
     Davidson diagonalization with overlap
     c_bands:  2 eigenvalues not converged
     c_bands:  2 eigenvalues not converged
     c_bands:  2 eigenvalues not converged
     c_bands:  2 eigenvalues not converged
     c_bands:  1 eigenvalues not converged
     c_bands:  2 eigenvalues not converged
     c_bands:  1 eigenvalues not converged
     c_bands:  1 eigenvalues not converged
     c_bands:  1 eigenvalues not converged
     c_bands:  2 eigenvalues not converged
     c_bands:  1 eigenvalues not converged
     c_bands:  1 eigenvalues not converged
     c_bands:  1 eigenvalues not converged
     c_bands:  2 eigenvalues not converged
     c_bands:  2 eigenvalues not converged
     c_bands:  1 eigenvalues not converged
     c_bands:  2 eigenvalues not converged
     c_bands:  2 eigenvalues not converged
     c_bands:  1 eigenvalues not converged
     c_bands:  2 eigenvalues not converged
     c_bands:  1 eigenvalues not converged
     ethr =  2.86E-06,  avg # of iterations = 16.2

     total cpu time spent up to now is       82.4 secs

     total energy              =    -359.83359147 Ry
     estimated scf accuracy    <       0.02735699 Ry

     iteration # 10     ecut=    50.00 Ry     beta= 0.30
     Davidson diagonalization with overlap
     ethr =  2.86E-06,  avg # of iterations =  4.2

     total cpu time spent up to now is       87.9 secs

     total energy              =    -359.82718935 Ry
     estimated scf accuracy    <       0.01924343 Ry

     iteration # 11     ecut=    50.00 Ry     beta= 0.30
     Davidson diagonalization with overlap
     c_bands:  1 eigenvalues not converged
     c_bands:  2 eigenvalues not converged
     c_bands:  1 eigenvalues not converged
     c_bands:  2 eigenvalues not converged
     c_bands:  1 eigenvalues not converged
     c_bands:  1 eigenvalues not converged
     c_bands:  1 eigenvalues not converged
     c_bands:  2 eigenvalues not converged
     c_bands:  1 eigenvalues not converged
     c_bands:  2 eigenvalues not converged
     c_bands:  1 eigenvalues not converged
     ethr =  2.86E-06,  avg # of iterations = 14.6

     total cpu time spent up to now is      103.3 secs

     total energy              =    -359.83089187 Ry
     estimated scf accuracy    <       0.00020975 Ry

     iteration # 12     ecut=    50.00 Ry     beta= 0.30
     Davidson diagonalization with overlap
     c_bands:  1 eigenvalues not converged
     ethr =  5.83E-07,  avg # of iterations =  7.3

     total cpu time spent up to now is      110.1 secs

     total energy              =    -359.83105502 Ry
     estimated scf accuracy    <       0.00062759 Ry

     iteration # 13     ecut=    50.00 Ry     beta= 0.30
     Davidson diagonalization with overlap
     ethr =  5.83E-07,  avg # of iterations =  3.9

     total cpu time spent up to now is      115.6 secs

     total energy              =    -359.83071163 Ry
     estimated scf accuracy    <       0.00103499 Ry

     iteration # 14     ecut=    50.00 Ry     beta= 0.30
     Davidson diagonalization with overlap
     ethr =  5.83E-07,  avg # of iterations =  7.0

     total cpu time spent up to now is      123.4 secs

     total energy              =    -359.83079119 Ry
     estimated scf accuracy    <       0.00006939 Ry

     iteration # 15     ecut=    50.00 Ry     beta= 0.30
     Davidson diagonalization with overlap
     c_bands:  1 eigenvalues not converged
     c_bands:  2 eigenvalues not converged
     ethr =  1.93E-07,  avg # of iterations =  8.2

     total cpu time spent up to now is      131.7 secs

     total energy              =    -359.83082722 Ry
     estimated scf accuracy    <       0.00002180 Ry

     iteration # 16     ecut=    50.00 Ry     beta= 0.30
     Davidson diagonalization with overlap
     ethr =  6.06E-08,  avg # of iterations =  2.8

     total cpu time spent up to now is      136.6 secs

     total energy              =    -359.83082336 Ry
     estimated scf accuracy    <       0.00000876 Ry

     iteration # 17     ecut=    50.00 Ry     beta= 0.30
     Davidson diagonalization with overlap
     c_bands:  2 eigenvalues not converged
     c_bands:  1 eigenvalues not converged
     ethr =  2.43E-08,  avg # of iterations = 10.3

     total cpu time spent up to now is      147.0 secs

     total energy              =    -359.83082918 Ry
     estimated scf accuracy    <       0.00002260 Ry

     iteration # 18     ecut=    50.00 Ry     beta= 0.30
     Davidson diagonalization with overlap
     ethr =  2.43E-08,  avg # of iterations =  3.2

     total cpu time spent up to now is      152.0 secs

     total energy              =    -359.83082433 Ry
     estimated scf accuracy    <       0.00000896 Ry

     iteration # 19     ecut=    50.00 Ry     beta= 0.30
     Davidson diagonalization with overlap
     c_bands:  1 eigenvalues not converged
     c_bands:  1 eigenvalues not converged
     c_bands:  1 eigenvalues not converged
     ethr =  2.43E-08,  avg # of iterations = 11.0

     total cpu time spent up to now is      163.1 secs

     total energy              =    -359.83083266 Ry
     estimated scf accuracy    <       0.00001711 Ry

     iteration # 20     ecut=    50.00 Ry     beta= 0.30
     Davidson diagonalization with overlap
     ethr =  2.43E-08,  avg # of iterations =  1.1

     total cpu time spent up to now is      167.5 secs

     total energy              =    -359.83082732 Ry
     estimated scf accuracy    <       0.00001462 Ry

     iteration # 21     ecut=    50.00 Ry     beta= 0.30
     Davidson diagonalization with overlap
     ethr =  2.43E-08,  avg # of iterations =  4.8

     total cpu time spent up to now is      173.6 secs

     total energy              =    -359.83082917 Ry
     estimated scf accuracy    <       0.00000084 Ry

     iteration # 22     ecut=    50.00 Ry     beta= 0.30
     Davidson diagonalization with overlap
     c_bands:  2 eigenvalues not converged
     c_bands:  1 eigenvalues not converged
     ethr =  2.32E-09,  avg # of iterations =  9.5

     total cpu time spent up to now is      184.9 secs

     total energy              =    -359.83083035 Ry
     estimated scf accuracy    <       0.00000055 Ry

     iteration # 23     ecut=    50.00 Ry     beta= 0.30
     Davidson diagonalization with overlap
     ethr =  1.54E-09,  avg # of iterations =  1.6

     total cpu time spent up to now is      189.5 secs

     total energy              =    -359.83083015 Ry
     estimated scf accuracy    <       0.00000066 Ry

     iteration # 24     ecut=    50.00 Ry     beta= 0.30
     Davidson diagonalization with overlap
     ethr =  1.54E-09,  avg # of iterations =  1.7

     total cpu time spent up to now is      194.1 secs

     total energy              =    -359.83083015 Ry
     estimated scf accuracy    <       0.00000027 Ry

     iteration # 25     ecut=    50.00 Ry     beta= 0.30
     Davidson diagonalization with overlap
     ethr =  7.55E-10,  avg # of iterations =  2.7

     total cpu time spent up to now is      199.2 secs

     total energy              =    -359.83083015 Ry
     estimated scf accuracy    <       0.00000013 Ry

     iteration # 26     ecut=    50.00 Ry     beta= 0.30
     Davidson diagonalization with overlap
     ethr =  3.57E-10,  avg # of iterations =  5.2

     total cpu time spent up to now is      205.5 secs

     End of self-consistent calculation

     Number of k-points >= 100: set verbosity='high' to print the bands.

     highest occupied level (ev):    11.4757

!    total energy              =    -359.83083018 Ry
     estimated scf accuracy    <          6.8E-09 Ry

     The total energy is the sum of the following terms:
     one-electron contribution =    -199.63936754 Ry
     hartree contribution      =     141.32926848 Ry
     xc contribution           =    -110.33757390 Ry
     ewald contribution        =    -191.18315722 Ry

     convergence has been achieved in  26 iterations

     Forces acting on atoms (cartesian axes, Ry/au):

     atom    1 type  1   force =     2.35353004    0.68957120    0.42825050
     atom    2 type  1   force =    -0.01490284    0.01721399    0.12783866
     atom    3 type  2   force =    -1.82215271    0.51705849    0.23181136
     atom    4 type  2   force =    -0.51647450   -1.22384368   -0.78790052
     The non-local contrib.  to forces
     atom    1 type  1   force =     0.47032236    0.39483359    0.38976960
     atom    2 type  1   force =     0.03595795   -0.11201194   -0.08190349
     atom    3 type  2   force =     0.43454337   -0.11089878    0.49270558
     atom    4 type  2   force =     0.32366088    0.37641317    0.54156593
     The ionic contribution  to forces
     atom    1 type  1   force =    18.96402818    6.22800589   -1.45723857
     atom    2 type  1   force =    -0.32214040    1.10818240   20.37089719
     atom    3 type  2   force =   -13.19436725    2.81207994   -0.64270155
     atom    4 type  2   force =    -5.44752053  -10.14826823  -18.27095707
     The local contribution  to forces
     atom    1 type  1   force =   -16.84829634   -5.85523036    1.55523986
     atom    2 type  1   force =     0.27071592   -0.97528181  -20.13795579
     atom    3 type  2   force =    10.93341487   -2.18309593    0.38755804
     atom    4 type  2   force =     4.60755287    8.54547709   16.94166591
     The core correction contribution to forces
     atom    1 type  1   force =    -0.23244841   -0.07795551   -0.05929038
     atom    2 type  1   force =     0.00058313   -0.00368113   -0.02321518
     atom    3 type  2   force =     0.00429935   -0.00108827   -0.00561541
     atom    4 type  2   force =    -0.00018734    0.00257497   -0.00017469
     The Hubbard contrib.    to forces
     atom    1 type  1   force =     0.00000000    0.00000000    0.00000000
     atom    2 type  1   force =     0.00000000    0.00000000    0.00000000
     atom    3 type  2   force =     0.00000000    0.00000000    0.00000000
     atom    4 type  2   force =     0.00000000    0.00000000    0.00000000
     The SCF correction term to forces
     atom    1 type  1   force =    -0.00008095   -0.00009338   -0.00023887
     atom    2 type  1   force =    -0.00002464   -0.00000451    0.00000707
     atom    3 type  2   force =    -0.00004826    0.00005055   -0.00014415
     atom    4 type  2   force =     0.00001441   -0.00005166   -0.00000946

     Total force =     3.498789     Total SCF correction =     0.000319

     Writing all to output data dir ./ZnO_ANN.save/

     init_run     :      3.29s CPU      3.38s WALL (       1 calls)
     electrons    :    197.81s CPU    201.65s WALL (       1 calls)
     forces       :      1.00s CPU      1.01s WALL (       1 calls)

     Called by init_run:
     wfcinit      :      2.40s CPU      2.45s WALL (       1 calls)
     potinit      :      0.24s CPU      0.25s WALL (       1 calls)
     hinit0       :      0.58s CPU      0.60s WALL (       1 calls)

     Called by electrons:
     c_bands      :    178.25s CPU    181.59s WALL (      26 calls)
     sum_band     :     17.80s CPU     18.25s WALL (      26 calls)
     v_of_rho     :      0.37s CPU      0.40s WALL (      27 calls)
     newd         :      1.35s CPU      1.37s WALL (      27 calls)
     mix_rho      :      0.06s CPU      0.07s WALL (      26 calls)

     Called by c_bands:
     init_us_2    :      1.17s CPU      1.18s WALL (    6048 calls)
     init_us_2:cp :      1.15s CPU      1.17s WALL (    6048 calls)
     cegterg      :    174.54s CPU    177.82s WALL (    2912 calls)

     Called by *egterg:
     cdiaghg      :     22.54s CPU     22.76s WALL (   20897 calls)
     h_psi        :    101.50s CPU    103.89s WALL (   21009 calls)
     s_psi        :     10.72s CPU     10.83s WALL (   21009 calls)
     g_psi        :      0.33s CPU      0.33s WALL (   17985 calls)

     Called by h_psi:
     h_psi:calbec :     12.73s CPU     13.21s WALL (   21009 calls)
     vloc_psi     :     77.67s CPU     79.47s WALL (   21009 calls)
     add_vuspsi   :     10.76s CPU     10.87s WALL (   21009 calls)

     General routines
     calbec       :     16.78s CPU     17.41s WALL (   24369 calls)
     fft          :      0.48s CPU      0.52s WALL (     360 calls)
     ffts         :      0.08s CPU      0.08s WALL (      53 calls)
     fftw         :     80.15s CPU     82.01s WALL (  411308 calls)
     interpolate  :      0.09s CPU      0.09s WALL (      27 calls)

     Parallel routines

     PWSCF        :   3m22.85s CPU   3m26.95s WALL


   This run was terminated on:  15:59:57  24Jun2025            

=------------------------------------------------------------------------------=
   JOB DONE.
=------------------------------------------------------------------------------=
Note: The following floating-point exceptions are signalling: IEEE_INVALID_FLAG
