
     Program PWSCF v.7.2 starts on 24Jun2025 at 18:46:59 

     This program is part of the open-source Quantum ESPRESSO suite
     for quantum simulation of materials; please cite
         "P. Giannozzi et al., J. Phys.:Condens. Matter 21 395502 (2009);
         "P. Giannozzi et al., J. Phys.:Condens. Matter 29 465901 (2017);
         "P. Giannozzi et al., J. Chem. Phys. 152 154105 (2020);
          URL http://www.quantum-espresso.org", 
     in publications or presentations arising from this work. More details at
     http://www.quantum-espresso.org/quote

     Parallel version (MPI), running on     8 processors

     MPI processes distributed on     1 nodes
     90807 MiB available memory on the printing compute node when the environment starts

     Reading input from /home/jvc/QEspresso7.2/ZnO_DataBase/scf_025_NOSYM.in/scf-6.43-1.78-0.25-4.in

     Current dimensions of program PWSCF are:
     Max number of different atomic species (ntypx) = 10
     Max number of k-points (npk) =  40000
     Max angular momentum in pseudopotentials (lmaxx) =  4
     file Zn.upf: wavefunction(s)  3D renormalized

     R & G space division:  proc/nbgrp/npool/nimage =       8
     Subspace diagonalization in iterative solution of the eigenvalue problem:
     a serial algorithm will be used


     Parallelization info
     --------------------
     sticks:   dense  smooth     PW     G-vecs:    dense   smooth      PW
     Min         143      71     20                 6229     2189     360
     Max         145      73     21                 6232     2190     367
     Sum        1147     571    163                49835    17513    2899

     Using Slab Decomposition



     bravais-lattice index     =            0
     lattice parameter (alat)  =       6.4260  a.u.
     unit-cell volume          =     367.6779 (a.u.)^3
     number of atoms/cell      =            4
     number of atomic types    =            2
     number of electrons       =        36.00
     number of Kohn-Sham states=           18
     kinetic-energy cutoff     =      50.0000  Ry
     charge density cutoff     =     400.0000  Ry
     scf convergence threshold =      1.0E-08
     mixing beta               =       0.3000
     number of iterations used =            8  plain     mixing
     Exchange-correlation= PBE
                           (   1   4   3   4   0   0   0)

     celldm(1)=   6.425974  celldm(2)=   0.000000  celldm(3)=   0.000000
     celldm(4)=   0.000000  celldm(5)=   0.000000  celldm(6)=   0.000000

     crystal axes: (cart. coord. in units of alat)
               a(1) = (   1.000000   0.000000   0.000000 )  
               a(2) = (  -0.500000   0.866025   0.000000 )  
               a(3) = (   0.000000   0.000000   1.600000 )  

     reciprocal axes: (cart. coord. in units 2 pi/alat)
               b(1) = (  1.000000  0.577350 -0.000000 )  
               b(2) = (  0.000000  1.154701  0.000000 )  
               b(3) = (  0.000000 -0.000000  0.625000 )  


     PseudoPot. # 1 for Zn read from file:
     ./pseudos/Zn.upf
     MD5 check sum: 7f56cabf9682ed8c977c2f7d0c5985c5
     Pseudo is Ultrasoft + core correction, Zval = 12.0
     Generated using &quot;atomic&quot; code by A. Dal Corso  v.6.2.2
     Using radial grid of 1201 points,  6 beta functions with: 
                l(1) =   0
                l(2) =   0
                l(3) =   1
                l(4) =   1
                l(5) =   2
                l(6) =   2
     Q(r) pseudized with 0 coefficients 


     PseudoPot. # 2 for O  read from file:
     ./pseudos/O.upf
     MD5 check sum: 91400c9766925bcf19f520983a725ff0
     Pseudo is Ultrasoft + core correction, Zval =  6.0
     Generated using &quot;atomic&quot; code by A. Dal Corso  v.6.3MaX
     Using radial grid of 1095 points,  4 beta functions with: 
                l(1) =   0
                l(2) =   0
                l(3) =   1
                l(4) =   1
     Q(r) pseudized with 0 coefficients 


     atomic species   valence    mass     pseudopotential
        Zn            12.00    63.38000     Zn( 1.00)
        O              6.00    15.99900     O ( 1.00)

     No symmetry found



   Cartesian axes

     site n.     atom                  positions (alat units)
         1           Zn  tau(   1) = (   0.4042152   0.1733667   0.8956176  )
         2           Zn  tau(   2) = (   0.1589660   0.4465246  -0.0192225  )
         3           O   tau(   3) = (   0.5832946   0.4183029   1.6224495  )
         4           O   tau(   4) = (  -0.0701133   0.4357664   0.7576576  )

     number of k points=   112

     Number of k-points >= 100: set verbosity='high' to print them.

     Dense  grid:    49835 G-vectors     FFT dimensions: (  45,  45,  72)

     Smooth grid:    17513 G-vectors     FFT dimensions: (  30,  30,  48)

     Estimated max dynamical RAM per process >      34.06 MB

     Estimated total dynamical RAM >     272.46 MB

     Check: negative core charge=   -0.000002

     Initial potential from superposition of free atoms

     starting charge      35.9925, renormalised to      36.0000
     Starting wfcs are   26 randomized atomic wfcs

     total cpu time spent up to now is        4.4 secs

     Self-consistent Calculation

     iteration #  1     ecut=    50.00 Ry     beta= 0.30
     Davidson diagonalization with overlap
     ethr =  1.00E-02,  avg # of iterations =  2.0

     total cpu time spent up to now is       10.0 secs

     total energy              =    -361.11117585 Ry
     estimated scf accuracy    <       0.95300274 Ry

     iteration #  2     ecut=    50.00 Ry     beta= 0.30
     Davidson diagonalization with overlap
     ethr =  2.65E-03,  avg # of iterations =  2.1

     total cpu time spent up to now is       16.4 secs

     total energy              =    -361.24739157 Ry
     estimated scf accuracy    <       0.10945721 Ry

     iteration #  3     ecut=    50.00 Ry     beta= 0.30
     Davidson diagonalization with overlap
     ethr =  3.04E-04,  avg # of iterations =  6.1

     total cpu time spent up to now is       27.2 secs

     total energy              =    -361.29455669 Ry
     estimated scf accuracy    <       0.13215721 Ry

     iteration #  4     ecut=    50.00 Ry     beta= 0.30
     Davidson diagonalization with overlap
     ethr =  3.04E-04,  avg # of iterations =  4.4

     total cpu time spent up to now is       35.8 secs

     total energy              =    -361.34467601 Ry
     estimated scf accuracy    <       0.02832098 Ry

     iteration #  5     ecut=    50.00 Ry     beta= 0.30
     Davidson diagonalization with overlap
     ethr =  7.87E-05,  avg # of iterations =  3.7

     total cpu time spent up to now is       42.2 secs

     total energy              =    -361.33080098 Ry
     estimated scf accuracy    <       0.04604261 Ry

     iteration #  6     ecut=    50.00 Ry     beta= 0.30
     Davidson diagonalization with overlap
     ethr =  7.87E-05,  avg # of iterations =  2.1

     total cpu time spent up to now is       47.9 secs

     total energy              =    -361.32310048 Ry
     estimated scf accuracy    <       0.01484005 Ry

     iteration #  7     ecut=    50.00 Ry     beta= 0.30
     Davidson diagonalization with overlap
     ethr =  4.12E-05,  avg # of iterations =  7.1

     total cpu time spent up to now is       59.7 secs

     total energy              =    -361.32839983 Ry
     estimated scf accuracy    <       0.03141158 Ry

     iteration #  8     ecut=    50.00 Ry     beta= 0.30
     Davidson diagonalization with overlap
     ethr =  4.12E-05,  avg # of iterations =  4.6

     total cpu time spent up to now is       68.2 secs

     total energy              =    -361.33514028 Ry
     estimated scf accuracy    <       0.00012812 Ry

     iteration #  9     ecut=    50.00 Ry     beta= 0.30
     Davidson diagonalization with overlap
     ethr =  3.56E-07,  avg # of iterations = 10.7

     total cpu time spent up to now is       86.2 secs

     total energy              =    -361.33522964 Ry
     estimated scf accuracy    <       0.00180798 Ry

     iteration # 10     ecut=    50.00 Ry     beta= 0.30
     Davidson diagonalization with overlap
     ethr =  3.56E-07,  avg # of iterations =  6.9

     total cpu time spent up to now is       98.8 secs

     total energy              =    -361.33531779 Ry
     estimated scf accuracy    <       0.00016969 Ry

     iteration # 11     ecut=    50.00 Ry     beta= 0.30
     Davidson diagonalization with overlap
     ethr =  3.56E-07,  avg # of iterations =  5.0

     total cpu time spent up to now is      107.5 secs

     total energy              =    -361.33537745 Ry
     estimated scf accuracy    <       0.00001444 Ry

     iteration # 12     ecut=    50.00 Ry     beta= 0.30
     Davidson diagonalization with overlap
     ethr =  4.01E-08,  avg # of iterations =  4.0

     total cpu time spent up to now is      114.0 secs

     total energy              =    -361.33537108 Ry
     estimated scf accuracy    <       0.00001883 Ry

     iteration # 13     ecut=    50.00 Ry     beta= 0.30
     Davidson diagonalization with overlap
     ethr =  4.01E-08,  avg # of iterations =  4.6

     total cpu time spent up to now is      121.2 secs

     total energy              =    -361.33537456 Ry
     estimated scf accuracy    <       0.00000090 Ry

     iteration # 14     ecut=    50.00 Ry     beta= 0.30
     Davidson diagonalization with overlap
     ethr =  2.50E-09,  avg # of iterations =  6.0

     total cpu time spent up to now is      131.5 secs

     total energy              =    -361.33537522 Ry
     estimated scf accuracy    <       0.00000038 Ry

     iteration # 15     ecut=    50.00 Ry     beta= 0.30
     Davidson diagonalization with overlap
     ethr =  1.06E-09,  avg # of iterations =  2.6

     total cpu time spent up to now is      137.3 secs

     total energy              =    -361.33537523 Ry
     estimated scf accuracy    <       0.00000014 Ry

     iteration # 16     ecut=    50.00 Ry     beta= 0.30
     Davidson diagonalization with overlap
     ethr =  3.75E-10,  avg # of iterations =  5.2

     total cpu time spent up to now is      145.4 secs

     total energy              =    -361.33537528 Ry
     estimated scf accuracy    <       0.00000001 Ry

     iteration # 17     ecut=    50.00 Ry     beta= 0.30
     Davidson diagonalization with overlap
     ethr =  3.12E-11,  avg # of iterations =  6.7

     total cpu time spent up to now is      156.5 secs

     total energy              =    -361.33537529 Ry
     estimated scf accuracy    <       0.00000003 Ry

     iteration # 18     ecut=    50.00 Ry     beta= 0.30
     Davidson diagonalization with overlap
     ethr =  3.12E-11,  avg # of iterations =  2.1

     total cpu time spent up to now is      162.1 secs

     total energy              =    -361.33537528 Ry
     estimated scf accuracy    <       0.00000002 Ry

     iteration # 19     ecut=    50.00 Ry     beta= 0.30
     Davidson diagonalization with overlap
     ethr =  3.12E-11,  avg # of iterations =  6.2

     total cpu time spent up to now is      173.2 secs

     total energy              =    -361.33537528 Ry
     estimated scf accuracy    <       0.00000001 Ry

     iteration # 20     ecut=    50.00 Ry     beta= 0.30
     Davidson diagonalization with overlap
     ethr =  3.12E-11,  avg # of iterations =  1.0

     total cpu time spent up to now is      178.2 secs

     End of self-consistent calculation

     Number of k-points >= 100: set verbosity='high' to print the bands.

     highest occupied level (ev):     5.4627

!    total energy              =    -361.33537528 Ry
     estimated scf accuracy    <          7.1E-09 Ry

     The total energy is the sum of the following terms:
     one-electron contribution =    -177.14257244 Ry
     hartree contribution      =     127.11435011 Ry
     xc contribution           =    -109.41759102 Ry
     ewald contribution        =    -201.88956193 Ry

     convergence has been achieved in  20 iterations

     Forces acting on atoms (cartesian axes, Ry/au):

     atom    1 type  1   force =     0.03834498   -0.02061177   -0.04468881
     atom    2 type  1   force =    -0.72430477    0.04631409   -0.02650396
     atom    3 type  2   force =     0.69686510   -0.04842384    0.02951121
     atom    4 type  2   force =    -0.01090532    0.02272151    0.04168156
     The non-local contrib.  to forces
     atom    1 type  1   force =     0.14768176   -0.14730851    0.31974603
     atom    2 type  1   force =    -0.83600855    0.06430556   -0.13486954
     atom    3 type  2   force =    -0.41284399    0.07817962   -0.48818044
     atom    4 type  2   force =     0.21619738   -0.08260364    0.68064080
     The ionic contribution  to forces
     atom    1 type  1   force =     1.48480257   -2.12184968   -3.19708244
     atom    2 type  1   force =    -9.05125563    1.72211345    3.52836012
     atom    3 type  2   force =     8.91880478   -0.47396157    4.06775708
     atom    4 type  2   force =    -1.35235172    0.87369780   -4.39903476
     The local contribution  to forces
     atom    1 type  1   force =    -1.58225113    2.23728419    2.85052173
     atom    2 type  1   force =     9.05230907   -1.72874046   -3.43292402
     atom    3 type  2   force =    -7.80867037    0.34782544   -3.55435152
     atom    4 type  2   force =     1.12712762   -0.76893574    3.76662639
     The core correction contribution to forces
     atom    1 type  1   force =    -0.01187428    0.01125157   -0.01779409
     atom    2 type  1   force =     0.11053630   -0.01135013    0.01283125
     atom    3 type  2   force =    -0.00041613   -0.00046910    0.00425409
     atom    4 type  2   force =    -0.00185792    0.00056246   -0.00651173
     The Hubbard contrib.    to forces
     atom    1 type  1   force =     0.00000000    0.00000000    0.00000000
     atom    2 type  1   force =     0.00000000    0.00000000    0.00000000
     atom    3 type  2   force =     0.00000000    0.00000000    0.00000000
     atom    4 type  2   force =     0.00000000    0.00000000    0.00000000
     The SCF correction term to forces
     atom    1 type  1   force =     0.00000050    0.00001024   -0.00007878
     atom    2 type  1   force =     0.00012848   -0.00001473    0.00009947
     atom    3 type  2   force =     0.00000525    0.00000136    0.00003325
     atom    4 type  2   force =    -0.00000624    0.00000021   -0.00003789

     Total force =     1.011220     Total SCF correction =     0.000189

     Writing all to output data dir ./ZnO_ANN.save/

     init_run     :      3.81s CPU      3.92s WALL (       1 calls)
     electrons    :    170.95s CPU    173.80s WALL (       1 calls)
     forces       :      1.32s CPU      1.33s WALL (       1 calls)

     Called by init_run:
     wfcinit      :      2.79s CPU      2.85s WALL (       1 calls)
     potinit      :      0.38s CPU      0.38s WALL (       1 calls)
     hinit0       :      0.57s CPU      0.58s WALL (       1 calls)

     Called by electrons:
     c_bands      :    153.65s CPU    156.11s WALL (      20 calls)
     sum_band     :     15.59s CPU     15.92s WALL (      20 calls)
     v_of_rho     :      0.41s CPU      0.44s WALL (      21 calls)
     newd         :      1.28s CPU      1.32s WALL (      21 calls)
     mix_rho      :      0.06s CPU      0.06s WALL (      20 calls)

     Called by c_bands:
     init_us_2    :      1.12s CPU      1.14s WALL (    4704 calls)
     init_us_2:cp :      1.11s CPU      1.13s WALL (    4704 calls)
     cegterg      :    150.00s CPU    152.40s WALL (    2240 calls)

     Called by *egterg:
     cdiaghg      :     13.55s CPU     13.62s WALL (   12645 calls)
     h_psi        :     88.16s CPU     90.00s WALL (   12757 calls)
     s_psi        :      9.69s CPU      9.76s WALL (   12757 calls)
     g_psi        :      0.31s CPU      0.32s WALL (   10405 calls)

     Called by h_psi:
     h_psi:calbec :     12.36s CPU     12.70s WALL (   12757 calls)
     vloc_psi     :     65.83s CPU     67.25s WALL (   12757 calls)
     add_vuspsi   :      9.71s CPU      9.80s WALL (   12757 calls)

     General routines
     calbec       :     16.54s CPU     16.96s WALL (   15445 calls)
     fft          :      0.56s CPU      0.61s WALL (     282 calls)
     ffts         :      0.15s CPU      0.15s WALL (      41 calls)
     fftw         :     66.83s CPU     68.28s WALL (  319780 calls)
     interpolate  :      0.17s CPU      0.17s WALL (      21 calls)

     Parallel routines

     PWSCF        :   2m56.84s CPU   3m 0.07s WALL


   This run was terminated on:  18:49:59  24Jun2025            

=------------------------------------------------------------------------------=
   JOB DONE.
=------------------------------------------------------------------------------=
Note: The following floating-point exceptions are signalling: IEEE_INVALID_FLAG
