
     Program PWSCF v.7.2 starts on 24Jun2025 at 20:47:56 

     This program is part of the open-source Quantum ESPRESSO suite
     for quantum simulation of materials; please cite
         "P. Giannozzi et al., J. Phys.:Condens. Matter 21 395502 (2009);
         "P. Giannozzi et al., J. Phys.:Condens. Matter 29 465901 (2017);
         "P. Giannozzi et al., J. Chem. Phys. 152 154105 (2020);
          URL http://www.quantum-espresso.org", 
     in publications or presentations arising from this work. More details at
     http://www.quantum-espresso.org/quote

     Parallel version (MPI), running on     8 processors

     MPI processes distributed on     1 nodes
     90600 MiB available memory on the printing compute node when the environment starts

     Reading input from /home/jvc/QEspresso7.2/ZnO_DataBase/scf_025_NOSYM.in/scf-6.80-1.58-0.25-3.in

     Current dimensions of program PWSCF are:
     Max number of different atomic species (ntypx) = 10
     Max number of k-points (npk) =  40000
     Max angular momentum in pseudopotentials (lmaxx) =  4
     file Zn.upf: wavefunction(s)  3D renormalized

     R & G space division:  proc/nbgrp/npool/nimage =       8
     Subspace diagonalization in iterative solution of the eigenvalue problem:
     a serial algorithm will be used


     Parallelization info
     --------------------
     sticks:   dense  smooth     PW     G-vecs:    dense   smooth      PW
     Min         160      81     24                 7354     2595     429
     Max         162      82     26                 7355     2598     432
     Sum        1285     649    199                58833    20773    3441

     Using Slab Decomposition



     bravais-lattice index     =            0
     lattice parameter (alat)  =       6.7967  a.u.
     unit-cell volume          =     435.0564 (a.u.)^3
     number of atoms/cell      =            4
     number of atomic types    =            2
     number of electrons       =        36.00
     number of Kohn-Sham states=           18
     kinetic-energy cutoff     =      50.0000  Ry
     charge density cutoff     =     400.0000  Ry
     scf convergence threshold =      1.0E-08
     mixing beta               =       0.3000
     number of iterations used =            8  plain     mixing
     Exchange-correlation= PBE
                           (   1   4   3   4   0   0   0)

     celldm(1)=   6.796704  celldm(2)=   0.000000  celldm(3)=   0.000000
     celldm(4)=   0.000000  celldm(5)=   0.000000  celldm(6)=   0.000000

     crystal axes: (cart. coord. in units of alat)
               a(1) = (   1.000000   0.000000   0.000000 )  
               a(2) = (  -0.500000   0.866025   0.000000 )  
               a(3) = (   0.000000   0.000000   1.600000 )  

     reciprocal axes: (cart. coord. in units 2 pi/alat)
               b(1) = (  1.000000  0.577350 -0.000000 )  
               b(2) = (  0.000000  1.154701  0.000000 )  
               b(3) = (  0.000000 -0.000000  0.625000 )  


     PseudoPot. # 1 for Zn read from file:
     ./pseudos/Zn.upf
     MD5 check sum: 7f56cabf9682ed8c977c2f7d0c5985c5
     Pseudo is Ultrasoft + core correction, Zval = 12.0
     Generated using &quot;atomic&quot; code by A. Dal Corso  v.6.2.2
     Using radial grid of 1201 points,  6 beta functions with: 
                l(1) =   0
                l(2) =   0
                l(3) =   1
                l(4) =   1
                l(5) =   2
                l(6) =   2
     Q(r) pseudized with 0 coefficients 


     PseudoPot. # 2 for O  read from file:
     ./pseudos/O.upf
     MD5 check sum: 91400c9766925bcf19f520983a725ff0
     Pseudo is Ultrasoft + core correction, Zval =  6.0
     Generated using &quot;atomic&quot; code by A. Dal Corso  v.6.3MaX
     Using radial grid of 1095 points,  4 beta functions with: 
                l(1) =   0
                l(2) =   0
                l(3) =   1
                l(4) =   1
     Q(r) pseudized with 0 coefficients 


     atomic species   valence    mass     pseudopotential
        Zn            12.00    63.38000     Zn( 1.00)
        O              6.00    15.99900     O ( 1.00)

     No symmetry found



   Cartesian axes

     site n.     atom                  positions (alat units)
         1           Zn  tau(   1) = (   0.8228258   0.1175965   1.1565098  )
         2           Zn  tau(   2) = (   0.0486906   0.4528956  -0.2025055  )
         3           O   tau(   3) = (   0.4933128   0.4195251   1.0570589  )
         4           O   tau(   4) = (  -0.2126961   0.7422132   0.8684417  )

     number of k points=   112

     Number of k-points >= 100: set verbosity='high' to print them.

     Dense  grid:    58833 G-vectors     FFT dimensions: (  45,  45,  72)

     Smooth grid:    20773 G-vectors     FFT dimensions: (  32,  32,  50)

     Estimated max dynamical RAM per process >      39.41 MB

     Estimated total dynamical RAM >     315.24 MB

     Check: negative core charge=   -0.000003

     Initial potential from superposition of free atoms

     starting charge      35.9925, renormalised to      36.0000
     Starting wfcs are   26 randomized atomic wfcs

     total cpu time spent up to now is        4.7 secs

     Self-consistent Calculation

     iteration #  1     ecut=    50.00 Ry     beta= 0.30
     Davidson diagonalization with overlap
     ethr =  1.00E-02,  avg # of iterations =  2.0

     total cpu time spent up to now is       11.0 secs

     total energy              =    -360.43042014 Ry
     estimated scf accuracy    <       0.75569335 Ry

     iteration #  2     ecut=    50.00 Ry     beta= 0.30
     Davidson diagonalization with overlap
     ethr =  2.10E-03,  avg # of iterations =  6.2

     total cpu time spent up to now is       19.9 secs

     total energy              =    -360.69023128 Ry
     estimated scf accuracy    <       0.17654524 Ry

     iteration #  3     ecut=    50.00 Ry     beta= 0.30
     Davidson diagonalization with overlap
     ethr =  4.90E-04,  avg # of iterations =  3.4

     total cpu time spent up to now is       26.8 secs

     total energy              =    -360.66647180 Ry
     estimated scf accuracy    <       0.08719736 Ry

     iteration #  4     ecut=    50.00 Ry     beta= 0.30
     Davidson diagonalization with overlap
     ethr =  2.42E-04,  avg # of iterations =  9.0

     total cpu time spent up to now is       39.3 secs

     total energy              =    -360.72091028 Ry
     estimated scf accuracy    <       0.19003298 Ry

     iteration #  5     ecut=    50.00 Ry     beta= 0.30
     Davidson diagonalization with overlap
     ethr =  2.42E-04,  avg # of iterations =  1.3

     total cpu time spent up to now is       44.9 secs

     total energy              =    -360.63635534 Ry
     estimated scf accuracy    <       0.12910474 Ry

     iteration #  6     ecut=    50.00 Ry     beta= 0.30
     Davidson diagonalization with overlap
     c_bands:  1 eigenvalues not converged
     c_bands:  1 eigenvalues not converged
     c_bands:  1 eigenvalues not converged
     c_bands:  1 eigenvalues not converged
     c_bands:  1 eigenvalues not converged
     ethr =  2.42E-04,  avg # of iterations = 11.7

     total cpu time spent up to now is       57.9 secs

     total energy              =    -360.70049101 Ry
     estimated scf accuracy    <       0.69724965 Ry

     iteration #  7     ecut=    50.00 Ry     beta= 0.30
     Davidson diagonalization with overlap
     ethr =  2.42E-04,  avg # of iterations =  6.4

     total cpu time spent up to now is       66.4 secs

     total energy              =    -360.71218101 Ry
     estimated scf accuracy    <       0.19109468 Ry

     iteration #  8     ecut=    50.00 Ry     beta= 0.30
     Davidson diagonalization with overlap
     ethr =  2.42E-04,  avg # of iterations =  1.9

     total cpu time spent up to now is       72.2 secs

     total energy              =    -360.69434461 Ry
     estimated scf accuracy    <       0.14081065 Ry

     iteration #  9     ecut=    50.00 Ry     beta= 0.30
     Davidson diagonalization with overlap
     ethr =  2.42E-04,  avg # of iterations =  3.8

     total cpu time spent up to now is       79.0 secs

     total energy              =    -360.69969594 Ry
     estimated scf accuracy    <       0.03387954 Ry

     iteration # 10     ecut=    50.00 Ry     beta= 0.30
     Davidson diagonalization with overlap
     c_bands:  1 eigenvalues not converged
     c_bands:  1 eigenvalues not converged
     c_bands:  1 eigenvalues not converged
     ethr =  9.41E-05,  avg # of iterations =  7.3

     total cpu time spent up to now is       87.9 secs

     total energy              =    -360.71868049 Ry
     estimated scf accuracy    <       0.00619772 Ry

     iteration # 11     ecut=    50.00 Ry     beta= 0.30
     Davidson diagonalization with overlap
     ethr =  1.72E-05,  avg # of iterations =  7.8

     total cpu time spent up to now is       96.4 secs

     total energy              =    -360.72257635 Ry
     estimated scf accuracy    <       0.02763165 Ry

     iteration # 12     ecut=    50.00 Ry     beta= 0.30
     Davidson diagonalization with overlap
     ethr =  1.72E-05,  avg # of iterations =  1.5

     total cpu time spent up to now is      101.7 secs

     total energy              =    -360.72040569 Ry
     estimated scf accuracy    <       0.03116914 Ry

     iteration # 13     ecut=    50.00 Ry     beta= 0.30
     Davidson diagonalization with overlap
     ethr =  1.72E-05,  avg # of iterations =  1.1

     total cpu time spent up to now is      106.9 secs

     total energy              =    -360.71982874 Ry
     estimated scf accuracy    <       0.02724949 Ry

     iteration # 14     ecut=    50.00 Ry     beta= 0.30
     Davidson diagonalization with overlap
     ethr =  1.72E-05,  avg # of iterations =  1.2

     total cpu time spent up to now is      112.0 secs

     total energy              =    -360.71968540 Ry
     estimated scf accuracy    <       0.02442690 Ry

     iteration # 15     ecut=    50.00 Ry     beta= 0.30
     Davidson diagonalization with overlap
     ethr =  1.72E-05,  avg # of iterations =  1.0

     total cpu time spent up to now is      117.1 secs

     total energy              =    -360.71974786 Ry
     estimated scf accuracy    <       0.02335764 Ry

     iteration # 16     ecut=    50.00 Ry     beta= 0.30
     Davidson diagonalization with overlap
     ethr =  1.72E-05,  avg # of iterations =  1.0

     total cpu time spent up to now is      122.2 secs

     total energy              =    -360.72039786 Ry
     estimated scf accuracy    <       0.02284082 Ry

     iteration # 17     ecut=    50.00 Ry     beta= 0.30
     Davidson diagonalization with overlap
     ethr =  1.72E-05,  avg # of iterations =  1.0

     total cpu time spent up to now is      127.3 secs

     total energy              =    -360.72043869 Ry
     estimated scf accuracy    <       0.02406641 Ry

     iteration # 18     ecut=    50.00 Ry     beta= 0.30
     Davidson diagonalization with overlap
     ethr =  1.72E-05,  avg # of iterations =  1.0

     total cpu time spent up to now is      132.6 secs

     total energy              =    -360.72236197 Ry
     estimated scf accuracy    <       0.02405038 Ry

     iteration # 19     ecut=    50.00 Ry     beta= 0.30
     Davidson diagonalization with overlap
     ethr =  1.72E-05,  avg # of iterations =  1.1

     total cpu time spent up to now is      138.0 secs

     total energy              =    -360.70552495 Ry
     estimated scf accuracy    <       0.02892783 Ry

     iteration # 20     ecut=    50.00 Ry     beta= 0.30
     Davidson diagonalization with overlap
     c_bands:  1 eigenvalues not converged
     c_bands:  1 eigenvalues not converged
     c_bands:  1 eigenvalues not converged
     c_bands:  1 eigenvalues not converged
     c_bands:  2 eigenvalues not converged
     c_bands:  1 eigenvalues not converged
     c_bands:  1 eigenvalues not converged
     c_bands:  1 eigenvalues not converged
     c_bands:  1 eigenvalues not converged
     c_bands:  2 eigenvalues not converged
     c_bands:  1 eigenvalues not converged
     c_bands:  1 eigenvalues not converged
     ethr =  1.72E-05,  avg # of iterations = 14.1

     total cpu time spent up to now is      155.9 secs

     total energy              =    -360.71059365 Ry
     estimated scf accuracy    <       0.06796472 Ry

     iteration # 21     ecut=    50.00 Ry     beta= 0.30
     Davidson diagonalization with overlap
     c_bands:  1 eigenvalues not converged
     ethr =  1.72E-05,  avg # of iterations =  8.4

     total cpu time spent up to now is      167.7 secs

     total energy              =    -360.71554980 Ry
     estimated scf accuracy    <       0.00435723 Ry

     iteration # 22     ecut=    50.00 Ry     beta= 0.30
     Davidson diagonalization with overlap
     c_bands:  1 eigenvalues not converged
     ethr =  1.21E-05,  avg # of iterations =  5.7

     total cpu time spent up to now is      175.7 secs

     total energy              =    -360.71690573 Ry
     estimated scf accuracy    <       0.00005569 Ry

     iteration # 23     ecut=    50.00 Ry     beta= 0.30
     Davidson diagonalization with overlap
     c_bands:  1 eigenvalues not converged
     c_bands:  2 eigenvalues not converged
     c_bands:  1 eigenvalues not converged
     c_bands:  1 eigenvalues not converged
     c_bands:  2 eigenvalues not converged
     c_bands:  2 eigenvalues not converged
     c_bands:  2 eigenvalues not converged
     c_bands:  1 eigenvalues not converged
     c_bands:  1 eigenvalues not converged
     c_bands:  1 eigenvalues not converged
     c_bands:  2 eigenvalues not converged
     c_bands:  2 eigenvalues not converged
     c_bands:  1 eigenvalues not converged
     c_bands:  1 eigenvalues not converged
     c_bands:  1 eigenvalues not converged
     c_bands:  1 eigenvalues not converged
     c_bands:  1 eigenvalues not converged
     c_bands:  1 eigenvalues not converged
     c_bands:  1 eigenvalues not converged
     c_bands:  2 eigenvalues not converged
     c_bands:  1 eigenvalues not converged
     c_bands:  1 eigenvalues not converged
     c_bands:  1 eigenvalues not converged
     c_bands:  1 eigenvalues not converged
     c_bands:  1 eigenvalues not converged
     c_bands:  1 eigenvalues not converged
     c_bands:  2 eigenvalues not converged
     c_bands:  1 eigenvalues not converged
     c_bands:  1 eigenvalues not converged
     c_bands:  2 eigenvalues not converged
     c_bands:  1 eigenvalues not converged
     c_bands:  1 eigenvalues not converged
     c_bands:  1 eigenvalues not converged
     c_bands:  1 eigenvalues not converged
     c_bands:  1 eigenvalues not converged
     c_bands:  1 eigenvalues not converged
     c_bands:  4 eigenvalues not converged
     c_bands:  5 eigenvalues not converged
     c_bands:  2 eigenvalues not converged
     c_bands:  1 eigenvalues not converged
     c_bands:  1 eigenvalues not converged
     c_bands:  1 eigenvalues not converged
     c_bands:  2 eigenvalues not converged
     c_bands:  1 eigenvalues not converged
     c_bands:  1 eigenvalues not converged
     c_bands:  2 eigenvalues not converged
     c_bands:  1 eigenvalues not converged
     c_bands:  2 eigenvalues not converged
     c_bands:  2 eigenvalues not converged
     c_bands:  1 eigenvalues not converged
     c_bands:  1 eigenvalues not converged
     c_bands:  1 eigenvalues not converged
     c_bands:  1 eigenvalues not converged
     c_bands:  2 eigenvalues not converged
     c_bands:  1 eigenvalues not converged
     c_bands:  1 eigenvalues not converged
     c_bands:  1 eigenvalues not converged
     c_bands:  1 eigenvalues not converged
     c_bands:  1 eigenvalues not converged
     c_bands:  1 eigenvalues not converged
     c_bands:  1 eigenvalues not converged
     ethr =  1.55E-07,  avg # of iterations = 18.3

     total cpu time spent up to now is      198.9 secs

     total energy              =    -360.71706196 Ry
     estimated scf accuracy    <       0.00284334 Ry

     iteration # 24     ecut=    50.00 Ry     beta= 0.30
     Davidson diagonalization with overlap
     c_bands:  1 eigenvalues not converged
     c_bands:  1 eigenvalues not converged
     c_bands:  1 eigenvalues not converged
     c_bands:  2 eigenvalues not converged
     c_bands:  1 eigenvalues not converged
     c_bands:  1 eigenvalues not converged
     c_bands:  1 eigenvalues not converged
     c_bands:  1 eigenvalues not converged
     c_bands:  1 eigenvalues not converged
     c_bands:  1 eigenvalues not converged
     c_bands:  1 eigenvalues not converged
     c_bands:  1 eigenvalues not converged
     c_bands:  1 eigenvalues not converged
     c_bands:  1 eigenvalues not converged
     c_bands:  1 eigenvalues not converged
     c_bands:  1 eigenvalues not converged
     c_bands:  1 eigenvalues not converged
     c_bands:  1 eigenvalues not converged
     ethr =  1.55E-07,  avg # of iterations = 14.6

     total cpu time spent up to now is      216.7 secs

     total energy              =    -360.71715715 Ry
     estimated scf accuracy    <       0.00028122 Ry

     iteration # 25     ecut=    50.00 Ry     beta= 0.30
     Davidson diagonalization with overlap
     c_bands:  1 eigenvalues not converged
     c_bands:  1 eigenvalues not converged
     c_bands:  1 eigenvalues not converged
     c_bands:  1 eigenvalues not converged
     c_bands:  1 eigenvalues not converged
     c_bands:  1 eigenvalues not converged
     ethr =  1.55E-07,  avg # of iterations = 11.6

     total cpu time spent up to now is      228.6 secs

     total energy              =    -360.71719509 Ry
     estimated scf accuracy    <       0.00005884 Ry

     iteration # 26     ecut=    50.00 Ry     beta= 0.30
     Davidson diagonalization with overlap
     c_bands:  1 eigenvalues not converged
     ethr =  1.55E-07,  avg # of iterations = 10.3

     total cpu time spent up to now is      240.5 secs

     total energy              =    -360.71725190 Ry
     estimated scf accuracy    <       0.00026598 Ry

     iteration # 27     ecut=    50.00 Ry     beta= 0.30
     Davidson diagonalization with overlap
     ethr =  1.55E-07,  avg # of iterations =  1.2

     total cpu time spent up to now is      246.0 secs

     total energy              =    -360.71719520 Ry
     estimated scf accuracy    <       0.00025270 Ry

     iteration # 28     ecut=    50.00 Ry     beta= 0.30
     Davidson diagonalization with overlap
     c_bands:  1 eigenvalues not converged
     ethr =  1.55E-07,  avg # of iterations =  7.8

     total cpu time spent up to now is      254.7 secs

     total energy              =    -360.71721546 Ry
     estimated scf accuracy    <       0.00003346 Ry

     iteration # 29     ecut=    50.00 Ry     beta= 0.30
     Davidson diagonalization with overlap
     ethr =  9.29E-08,  avg # of iterations =  2.3

     total cpu time spent up to now is      260.7 secs

     total energy              =    -360.71721076 Ry
     estimated scf accuracy    <       0.00002170 Ry

     iteration # 30     ecut=    50.00 Ry     beta= 0.30
     Davidson diagonalization with overlap
     ethr =  6.03E-08,  avg # of iterations =  7.4

     total cpu time spent up to now is      269.7 secs

     total energy              =    -360.71721879 Ry
     estimated scf accuracy    <       0.00000990 Ry

     iteration # 31     ecut=    50.00 Ry     beta= 0.30
     Davidson diagonalization with overlap
     ethr =  2.75E-08,  avg # of iterations =  2.0

     total cpu time spent up to now is      275.6 secs

     total energy              =    -360.71721765 Ry
     estimated scf accuracy    <       0.00000828 Ry

     iteration # 32     ecut=    50.00 Ry     beta= 0.30
     Davidson diagonalization with overlap
     ethr =  2.30E-08,  avg # of iterations =  2.5

     total cpu time spent up to now is      281.7 secs

     total energy              =    -360.71721782 Ry
     estimated scf accuracy    <       0.00000288 Ry

     iteration # 33     ecut=    50.00 Ry     beta= 0.30
     Davidson diagonalization with overlap
     ethr =  7.99E-09,  avg # of iterations =  5.6

     total cpu time spent up to now is      289.3 secs

     total energy              =    -360.71721847 Ry
     estimated scf accuracy    <       0.00000083 Ry

     iteration # 34     ecut=    50.00 Ry     beta= 0.30
     Davidson diagonalization with overlap
     ethr =  2.30E-09,  avg # of iterations =  6.1

     total cpu time spent up to now is      297.3 secs

     total energy              =    -360.71721870 Ry
     estimated scf accuracy    <       0.00000066 Ry

     iteration # 35     ecut=    50.00 Ry     beta= 0.30
     Davidson diagonalization with overlap
     ethr =  1.85E-09,  avg # of iterations =  2.5

     total cpu time spent up to now is      303.3 secs

     total energy              =    -360.71721875 Ry
     estimated scf accuracy    <       0.00000069 Ry

     iteration # 36     ecut=    50.00 Ry     beta= 0.30
     Davidson diagonalization with overlap
     ethr =  1.85E-09,  avg # of iterations =  1.2

     total cpu time spent up to now is      308.7 secs

     total energy              =    -360.71721869 Ry
     estimated scf accuracy    <       0.00000072 Ry

     iteration # 37     ecut=    50.00 Ry     beta= 0.30
     Davidson diagonalization with overlap
     ethr =  1.85E-09,  avg # of iterations =  1.3

     total cpu time spent up to now is      314.1 secs

     total energy              =    -360.71721851 Ry
     estimated scf accuracy    <       0.00000058 Ry

     iteration # 38     ecut=    50.00 Ry     beta= 0.30
     Davidson diagonalization with overlap
     ethr =  1.60E-09,  avg # of iterations =  2.2

     total cpu time spent up to now is      320.2 secs

     total energy              =    -360.71721844 Ry
     estimated scf accuracy    <       0.00000019 Ry

     iteration # 39     ecut=    50.00 Ry     beta= 0.30
     Davidson diagonalization with overlap
     c_bands:  1 eigenvalues not converged
     c_bands:  1 eigenvalues not converged
     c_bands:  1 eigenvalues not converged
     c_bands:  1 eigenvalues not converged
     c_bands:  1 eigenvalues not converged
     c_bands:  1 eigenvalues not converged
     c_bands:  1 eigenvalues not converged
     c_bands:  1 eigenvalues not converged
     c_bands:  1 eigenvalues not converged
     c_bands:  1 eigenvalues not converged
     c_bands:  1 eigenvalues not converged
     c_bands:  1 eigenvalues not converged
     ethr =  5.19E-10,  avg # of iterations = 10.7

     total cpu time spent up to now is      335.4 secs

     total energy              =    -360.71721856 Ry
     estimated scf accuracy    <       0.00000047 Ry

     iteration # 40     ecut=    50.00 Ry     beta= 0.30
     Davidson diagonalization with overlap
     ethr =  5.19E-10,  avg # of iterations =  6.9

     total cpu time spent up to now is      343.8 secs

     total energy              =    -360.71721861 Ry
     estimated scf accuracy    <       0.00000008 Ry

     iteration # 41     ecut=    50.00 Ry     beta= 0.30
     Davidson diagonalization with overlap
     ethr =  2.30E-10,  avg # of iterations =  3.7

     total cpu time spent up to now is      350.7 secs

     total energy              =    -360.71721861 Ry
     estimated scf accuracy    <       0.00000005 Ry

     iteration # 42     ecut=    50.00 Ry     beta= 0.30
     Davidson diagonalization with overlap
     ethr =  1.52E-10,  avg # of iterations =  3.1

     total cpu time spent up to now is      357.5 secs

     total energy              =    -360.71721861 Ry
     estimated scf accuracy    <       0.00000002 Ry

     iteration # 43     ecut=    50.00 Ry     beta= 0.30
     Davidson diagonalization with overlap
     ethr =  4.95E-11,  avg # of iterations =  8.3

     total cpu time spent up to now is      370.6 secs

     total energy              =    -360.71721862 Ry
     estimated scf accuracy    <       0.00000003 Ry

     iteration # 44     ecut=    50.00 Ry     beta= 0.30
     Davidson diagonalization with overlap
     ethr =  4.95E-11,  avg # of iterations =  1.2

     total cpu time spent up to now is      376.0 secs

     total energy              =    -360.71721862 Ry
     estimated scf accuracy    <       0.00000002 Ry

     iteration # 45     ecut=    50.00 Ry     beta= 0.30
     Davidson diagonalization with overlap
     ethr =  4.95E-11,  avg # of iterations =  4.0

     total cpu time spent up to now is      383.5 secs

     End of self-consistent calculation

     Number of k-points >= 100: set verbosity='high' to print the bands.

     highest occupied level (ev):     4.9528

!    total energy              =    -360.71721862 Ry
     estimated scf accuracy    <          2.6E-09 Ry

     The total energy is the sum of the following terms:
     one-electron contribution =    -336.28440960 Ry
     hartree contribution      =     203.22941548 Ry
     xc contribution           =    -109.52227785 Ry
     ewald contribution        =    -118.13994664 Ry

     convergence has been achieved in  45 iterations

     Forces acting on atoms (cartesian axes, Ry/au):

     atom    1 type  1   force =    -0.15639747   -0.69821006   -0.36981727
     atom    2 type  1   force =     0.34971744    0.51627186    0.47119527
     atom    3 type  2   force =    -0.15398123    0.19129928   -0.11826115
     atom    4 type  2   force =    -0.03933874   -0.00936108    0.01688315
     The non-local contrib.  to forces
     atom    1 type  1   force =     0.44614982   -0.03483825    0.03423266
     atom    2 type  1   force =    -0.20351832    0.05986604   -0.33948925
     atom    3 type  2   force =     0.73167593    0.24539891    0.27093770
     atom    4 type  2   force =    -0.41038915   -0.46751752    0.65246944
     The ionic contribution  to forces
     atom    1 type  1   force =    -2.03418284  -11.59829493   -6.77852580
     atom    2 type  1   force =     5.32204477    8.38688022   37.06715949
     atom    3 type  2   force =    -5.24564811    1.58129645  -10.46030584
     atom    4 type  2   force =     1.95778618    1.63011825  -19.82832786
     The local contribution  to forces
     atom    1 type  1   force =     1.45144984   10.87309854    6.35746931
     atom    2 type  1   force =    -4.75629767   -7.89492616  -36.22094676
     atom    3 type  2   force =     4.36601262   -1.63150849   10.07196546
     atom    4 type  2   force =    -1.59101378   -1.17729811   19.19792529
     The core correction contribution to forces
     atom    1 type  1   force =    -0.01983986    0.06183862    0.01692762
     atom    2 type  1   force =    -0.01250020   -0.03554745   -0.03558567
     atom    3 type  2   force =    -0.00602305   -0.00387539   -0.00086636
     atom    4 type  2   force =     0.00424831    0.00531821   -0.00514227
     The Hubbard contrib.    to forces
     atom    1 type  1   force =     0.00000000    0.00000000    0.00000000
     atom    2 type  1   force =     0.00000000    0.00000000    0.00000000
     atom    3 type  2   force =     0.00000000    0.00000000    0.00000000
     atom    4 type  2   force =     0.00000000    0.00000000    0.00000000
     The SCF correction term to forces
     atom    1 type  1   force =     0.00002068   -0.00001679    0.00010327
     atom    2 type  1   force =    -0.00001604   -0.00000355    0.00008178
     atom    3 type  2   force =    -0.00000351   -0.00001497    0.00003221
     atom    4 type  2   force =     0.00002480    0.00001533   -0.00001712

     Total force =     1.155767     Total SCF correction =     0.000144

     Writing all to output data dir ./ZnO_ANN.save/

     init_run     :      4.20s CPU      4.29s WALL (       1 calls)
     electrons    :    373.00s CPU    378.77s WALL (       1 calls)
     forces       :      1.56s CPU      1.57s WALL (       1 calls)

     Called by init_run:
     wfcinit      :      2.97s CPU      3.02s WALL (       1 calls)
     potinit      :      0.41s CPU      0.42s WALL (       1 calls)
     hinit0       :      0.71s CPU      0.72s WALL (       1 calls)

     Called by electrons:
     c_bands      :    330.85s CPU    335.81s WALL (      45 calls)
     sum_band     :     37.57s CPU     38.25s WALL (      45 calls)
     v_of_rho     :      0.92s CPU      0.99s WALL (      46 calls)
     newd         :      3.50s CPU      3.53s WALL (      46 calls)
     mix_rho      :      0.16s CPU      0.17s WALL (      45 calls)

     Called by c_bands:
     init_us_2    :      2.72s CPU      2.76s WALL (   10304 calls)
     init_us_2:cp :      2.69s CPU      2.74s WALL (   10304 calls)
     cegterg      :    321.05s CPU    325.89s WALL (    5041 calls)

     Called by *egterg:
     cdiaghg      :     31.43s CPU     31.69s WALL (   31122 calls)
     h_psi        :    178.05s CPU    181.63s WALL (   31234 calls)
     s_psi        :     20.77s CPU     20.91s WALL (   31234 calls)
     g_psi        :      0.69s CPU      0.70s WALL (   26081 calls)

     Called by h_psi:
     h_psi:calbec :     28.61s CPU     29.36s WALL (   31234 calls)
     vloc_psi     :    128.03s CPU    130.69s WALL (   31234 calls)
     add_vuspsi   :     20.82s CPU     21.00s WALL (   31234 calls)

     General routines
     calbec       :     38.59s CPU     39.54s WALL (   36722 calls)
     fft          :      1.35s CPU      1.45s WALL (     607 calls)
     ffts         :      0.14s CPU      0.15s WALL (      91 calls)
     fftw         :    131.68s CPU    134.38s WALL (  638658 calls)
     interpolate  :      0.18s CPU      0.19s WALL (      46 calls)

     Parallel routines

     PWSCF        :   6m19.50s CPU   6m25.63s WALL


   This run was terminated on:  20:54:21  24Jun2025            

=------------------------------------------------------------------------------=
   JOB DONE.
=------------------------------------------------------------------------------=
Note: The following floating-point exceptions are signalling: IEEE_INVALID_FLAG
