
     Program PWSCF v.7.2 starts on 24Jun2025 at 19: 6:53 

     This program is part of the open-source Quantum ESPRESSO suite
     for quantum simulation of materials; please cite
         "P. Giannozzi et al., J. Phys.:Condens. Matter 21 395502 (2009);
         "P. Giannozzi et al., J. Phys.:Condens. Matter 29 465901 (2017);
         "P. Giannozzi et al., J. Chem. Phys. 152 154105 (2020);
          URL http://www.quantum-espresso.org", 
     in publications or presentations arising from this work. More details at
     http://www.quantum-espresso.org/quote

     Parallel version (MPI), running on     8 processors

     MPI processes distributed on     1 nodes
     90780 MiB available memory on the printing compute node when the environment starts

     Reading input from /home/jvc/QEspresso7.2/ZnO_DataBase/scf_025_NOSYM.in/scf-6.55-1.55-0.25-4.in

     Current dimensions of program PWSCF are:
     Max number of different atomic species (ntypx) = 10
     Max number of k-points (npk) =  40000
     Max angular momentum in pseudopotentials (lmaxx) =  4
     file Zn.upf: wavefunction(s)  3D renormalized

     R & G space division:  proc/nbgrp/npool/nimage =       8
     Subspace diagonalization in iterative solution of the eigenvalue problem:
     a serial algorithm will be used


     Parallelization info
     --------------------
     sticks:   dense  smooth     PW     G-vecs:    dense   smooth      PW
     Min         147      72     23                 6576     2326     385
     Max         148      73     24                 6577     2335     388
     Sum        1177     583    187                52615    18665    3091

     Using Slab Decomposition



     bravais-lattice index     =            0
     lattice parameter (alat)  =       6.5496  a.u.
     unit-cell volume          =     389.3007 (a.u.)^3
     number of atoms/cell      =            4
     number of atomic types    =            2
     number of electrons       =        36.00
     number of Kohn-Sham states=           18
     kinetic-energy cutoff     =      50.0000  Ry
     charge density cutoff     =     400.0000  Ry
     scf convergence threshold =      1.0E-08
     mixing beta               =       0.3000
     number of iterations used =            8  plain     mixing
     Exchange-correlation= PBE
                           (   1   4   3   4   0   0   0)

     celldm(1)=   6.549551  celldm(2)=   0.000000  celldm(3)=   0.000000
     celldm(4)=   0.000000  celldm(5)=   0.000000  celldm(6)=   0.000000

     crystal axes: (cart. coord. in units of alat)
               a(1) = (   1.000000   0.000000   0.000000 )  
               a(2) = (  -0.500000   0.866025   0.000000 )  
               a(3) = (   0.000000   0.000000   1.600000 )  

     reciprocal axes: (cart. coord. in units 2 pi/alat)
               b(1) = (  1.000000  0.577350 -0.000000 )  
               b(2) = (  0.000000  1.154701  0.000000 )  
               b(3) = (  0.000000 -0.000000  0.625000 )  


     PseudoPot. # 1 for Zn read from file:
     ./pseudos/Zn.upf
     MD5 check sum: 7f56cabf9682ed8c977c2f7d0c5985c5
     Pseudo is Ultrasoft + core correction, Zval = 12.0
     Generated using &quot;atomic&quot; code by A. Dal Corso  v.6.2.2
     Using radial grid of 1201 points,  6 beta functions with: 
                l(1) =   0
                l(2) =   0
                l(3) =   1
                l(4) =   1
                l(5) =   2
                l(6) =   2
     Q(r) pseudized with 0 coefficients 


     PseudoPot. # 2 for O  read from file:
     ./pseudos/O.upf
     MD5 check sum: 91400c9766925bcf19f520983a725ff0
     Pseudo is Ultrasoft + core correction, Zval =  6.0
     Generated using &quot;atomic&quot; code by A. Dal Corso  v.6.3MaX
     Using radial grid of 1095 points,  4 beta functions with: 
                l(1) =   0
                l(2) =   0
                l(3) =   1
                l(4) =   1
     Q(r) pseudized with 0 coefficients 


     atomic species   valence    mass     pseudopotential
        Zn            12.00    63.38000     Zn( 1.00)
        O              6.00    15.99900     O ( 1.00)

     No symmetry found



   Cartesian axes

     site n.     atom                  positions (alat units)
         1           Zn  tau(   1) = (   0.7689214   0.0999296   0.5575508  )
         2           Zn  tau(   2) = (  -0.0535358   0.4677339   0.0170230  )
         3           O   tau(   3) = (   0.4707244   0.1320907   1.7558186  )
         4           O   tau(   4) = (   0.0047787   0.4078980   0.7389054  )

     number of k points=   112

     Number of k-points >= 100: set verbosity='high' to print them.

     Dense  grid:    52615 G-vectors     FFT dimensions: (  45,  45,  72)

     Smooth grid:    18665 G-vectors     FFT dimensions: (  30,  30,  48)

     Estimated max dynamical RAM per process >      35.72 MB

     Estimated total dynamical RAM >     285.77 MB

     Check: negative core charge=   -0.000002

     Initial potential from superposition of free atoms

     starting charge      35.9925, renormalised to      36.0000
     Starting wfcs are   26 randomized atomic wfcs

     total cpu time spent up to now is        4.6 secs

     Self-consistent Calculation

     iteration #  1     ecut=    50.00 Ry     beta= 0.30
     Davidson diagonalization with overlap
     ethr =  1.00E-02,  avg # of iterations =  2.0

     total cpu time spent up to now is       10.5 secs

     total energy              =    -361.00092075 Ry
     estimated scf accuracy    <       1.10974412 Ry

     iteration #  2     ecut=    50.00 Ry     beta= 0.30
     Davidson diagonalization with overlap
     ethr =  3.08E-03,  avg # of iterations =  2.2

     total cpu time spent up to now is       17.2 secs

     total energy              =    -361.12768739 Ry
     estimated scf accuracy    <       0.14188098 Ry

     iteration #  3     ecut=    50.00 Ry     beta= 0.30
     Davidson diagonalization with overlap
     ethr =  3.94E-04,  avg # of iterations =  9.3

     total cpu time spent up to now is       31.0 secs

     total energy              =    -361.20966143 Ry
     estimated scf accuracy    <       0.26744963 Ry

     iteration #  4     ecut=    50.00 Ry     beta= 0.30
     Davidson diagonalization with overlap
     ethr =  3.94E-04,  avg # of iterations =  5.8

     total cpu time spent up to now is       38.8 secs

     total energy              =    -361.24964482 Ry
     estimated scf accuracy    <       0.01561760 Ry

     iteration #  5     ecut=    50.00 Ry     beta= 0.30
     Davidson diagonalization with overlap
     c_bands:  1 eigenvalues not converged
     ethr =  4.34E-05,  avg # of iterations =  9.1

     total cpu time spent up to now is       54.6 secs

     total energy              =    -361.27138573 Ry
     estimated scf accuracy    <       0.09750453 Ry

     iteration #  6     ecut=    50.00 Ry     beta= 0.30
     Davidson diagonalization with overlap
     ethr =  4.34E-05,  avg # of iterations =  1.3

     total cpu time spent up to now is       59.9 secs

     total energy              =    -361.23899992 Ry
     estimated scf accuracy    <       0.07207483 Ry

     iteration #  7     ecut=    50.00 Ry     beta= 0.30
     Davidson diagonalization with overlap
     c_bands:  1 eigenvalues not converged
     ethr =  4.34E-05,  avg # of iterations =  7.9

     total cpu time spent up to now is       72.7 secs

     total energy              =    -361.25924171 Ry
     estimated scf accuracy    <       0.00493065 Ry

     iteration #  8     ecut=    50.00 Ry     beta= 0.30
     Davidson diagonalization with overlap
     ethr =  1.37E-05,  avg # of iterations =  2.8

     total cpu time spent up to now is       78.9 secs

     total energy              =    -361.25859769 Ry
     estimated scf accuracy    <       0.00506262 Ry

     iteration #  9     ecut=    50.00 Ry     beta= 0.30
     Davidson diagonalization with overlap
     ethr =  1.37E-05,  avg # of iterations =  1.2

     total cpu time spent up to now is       84.2 secs

     total energy              =    -361.25758499 Ry
     estimated scf accuracy    <       0.00319699 Ry

     iteration # 10     ecut=    50.00 Ry     beta= 0.30
     Davidson diagonalization with overlap
     ethr =  8.88E-06,  avg # of iterations =  2.8

     total cpu time spent up to now is       90.8 secs

     total energy              =    -361.25796874 Ry
     estimated scf accuracy    <       0.00032827 Ry

     iteration # 11     ecut=    50.00 Ry     beta= 0.30
     Davidson diagonalization with overlap
     c_bands:  1 eigenvalues not converged
     ethr =  9.12E-07,  avg # of iterations =  8.1

     total cpu time spent up to now is      103.9 secs

     total energy              =    -361.25826504 Ry
     estimated scf accuracy    <       0.00048646 Ry

     iteration # 12     ecut=    50.00 Ry     beta= 0.30
     Davidson diagonalization with overlap
     ethr =  9.12E-07,  avg # of iterations =  2.8

     total cpu time spent up to now is      110.2 secs

     total energy              =    -361.25821218 Ry
     estimated scf accuracy    <       0.00011426 Ry

     iteration # 13     ecut=    50.00 Ry     beta= 0.30
     Davidson diagonalization with overlap
     c_bands:  1 eigenvalues not converged
     c_bands:  1 eigenvalues not converged
     ethr =  3.17E-07,  avg # of iterations = 10.9

     total cpu time spent up to now is      126.3 secs

     total energy              =    -361.25850364 Ry
     estimated scf accuracy    <       0.00089614 Ry

     iteration # 14     ecut=    50.00 Ry     beta= 0.30
     Davidson diagonalization with overlap
     ethr =  3.17E-07,  avg # of iterations =  1.6

     total cpu time spent up to now is      131.7 secs

     total energy              =    -361.25836247 Ry
     estimated scf accuracy    <       0.00086693 Ry

     iteration # 15     ecut=    50.00 Ry     beta= 0.30
     Davidson diagonalization with overlap
     ethr =  3.17E-07,  avg # of iterations =  5.8

     total cpu time spent up to now is      139.2 secs

     total energy              =    -361.25833534 Ry
     estimated scf accuracy    <       0.00035766 Ry

     iteration # 16     ecut=    50.00 Ry     beta= 0.30
     Davidson diagonalization with overlap
     ethr =  3.17E-07,  avg # of iterations =  2.2

     total cpu time spent up to now is      144.9 secs

     total energy              =    -361.25830029 Ry
     estimated scf accuracy    <       0.00021912 Ry

     iteration # 17     ecut=    50.00 Ry     beta= 0.30
     Davidson diagonalization with overlap
     ethr =  3.17E-07,  avg # of iterations =  4.5

     total cpu time spent up to now is      152.0 secs

     total energy              =    -361.25831087 Ry
     estimated scf accuracy    <       0.00003961 Ry

     iteration # 18     ecut=    50.00 Ry     beta= 0.30
     Davidson diagonalization with overlap
     ethr =  1.10E-07,  avg # of iterations =  6.2

     total cpu time spent up to now is      160.7 secs

     total energy              =    -361.25833055 Ry
     estimated scf accuracy    <       0.00000630 Ry

     iteration # 19     ecut=    50.00 Ry     beta= 0.30
     Davidson diagonalization with overlap
     ethr =  1.75E-08,  avg # of iterations =  5.1

     total cpu time spent up to now is      168.1 secs

     total energy              =    -361.25833087 Ry
     estimated scf accuracy    <       0.00000529 Ry

     iteration # 20     ecut=    50.00 Ry     beta= 0.30
     Davidson diagonalization with overlap
     c_bands:  1 eigenvalues not converged
     ethr =  1.47E-08,  avg # of iterations =  7.6

     total cpu time spent up to now is      178.3 secs

     total energy              =    -361.25832966 Ry
     estimated scf accuracy    <       0.00001829 Ry

     iteration # 21     ecut=    50.00 Ry     beta= 0.30
     Davidson diagonalization with overlap
     c_bands:  1 eigenvalues not converged
     ethr =  1.47E-08,  avg # of iterations =  5.6

     total cpu time spent up to now is      186.2 secs

     total energy              =    -361.25833114 Ry
     estimated scf accuracy    <       0.00000265 Ry

     iteration # 22     ecut=    50.00 Ry     beta= 0.30
     Davidson diagonalization with overlap
     ethr =  7.36E-09,  avg # of iterations =  2.2

     total cpu time spent up to now is      192.1 secs

     total energy              =    -361.25833044 Ry
     estimated scf accuracy    <       0.00000215 Ry

     iteration # 23     ecut=    50.00 Ry     beta= 0.30
     Davidson diagonalization with overlap
     ethr =  5.97E-09,  avg # of iterations =  5.3

     total cpu time spent up to now is      200.2 secs

     total energy              =    -361.25833117 Ry
     estimated scf accuracy    <       0.00000002 Ry

     iteration # 24     ecut=    50.00 Ry     beta= 0.30
     Davidson diagonalization with overlap
     c_bands:  1 eigenvalues not converged
     c_bands:  1 eigenvalues not converged
     c_bands:  1 eigenvalues not converged
     c_bands:  1 eigenvalues not converged
     c_bands:  1 eigenvalues not converged
     c_bands:  1 eigenvalues not converged
     ethr =  5.94E-11,  avg # of iterations = 11.5

     total cpu time spent up to now is      217.0 secs

     total energy              =    -361.25833125 Ry
     estimated scf accuracy    <       0.00000005 Ry

     iteration # 25     ecut=    50.00 Ry     beta= 0.30
     Davidson diagonalization with overlap
     ethr =  5.94E-11,  avg # of iterations =  8.8

     total cpu time spent up to now is      228.9 secs

     total energy              =    -361.25833133 Ry
     estimated scf accuracy    <       0.00000004 Ry

     iteration # 26     ecut=    50.00 Ry     beta= 0.30
     Davidson diagonalization with overlap
     c_bands:  1 eigenvalues not converged
     ethr =  5.94E-11,  avg # of iterations = 10.4

     total cpu time spent up to now is      245.2 secs

     total energy              =    -361.25833127 Ry
     estimated scf accuracy    <       0.00000047 Ry

     iteration # 27     ecut=    50.00 Ry     beta= 0.30
     Davidson diagonalization with overlap
     ethr =  5.94E-11,  avg # of iterations =  7.2

     total cpu time spent up to now is      256.9 secs

     total energy              =    -361.25833125 Ry
     estimated scf accuracy    <       0.00000013 Ry

     iteration # 28     ecut=    50.00 Ry     beta= 0.30
     Davidson diagonalization with overlap
     c_bands:  1 eigenvalues not converged
     ethr =  5.94E-11,  avg # of iterations =  8.2

     total cpu time spent up to now is      268.6 secs

     End of self-consistent calculation

     Number of k-points >= 100: set verbosity='high' to print the bands.

     highest occupied level (ev):     5.5625

!    total energy              =    -361.25833127 Ry
     estimated scf accuracy    <          7.8E-10 Ry

     The total energy is the sum of the following terms:
     one-electron contribution =    -231.71541128 Ry
     hartree contribution      =     153.54397680 Ry
     xc contribution           =    -109.57562620 Ry
     ewald contribution        =    -173.51127058 Ry

     convergence has been achieved in  28 iterations

     Forces acting on atoms (cartesian axes, Ry/au):

     atom    1 type  1   force =    -0.27776977   -0.45566772   -0.02584481
     atom    2 type  1   force =     0.01799857   -0.01287655   -0.04641080
     atom    3 type  2   force =    -0.08799347    0.01906847   -0.19716295
     atom    4 type  2   force =     0.34776468    0.44947580    0.26941856
     The non-local contrib.  to forces
     atom    1 type  1   force =    -0.28863943   -0.80873230   -0.32822368
     atom    2 type  1   force =     0.05883312   -0.27826130   -0.30135883
     atom    3 type  2   force =     0.49735927   -0.34256602   -0.18342766
     atom    4 type  2   force =    -0.44051017   -0.46014902   -0.59523366
     The ionic contribution  to forces
     atom    1 type  1   force =    -2.22930472   -9.26109153   16.73367398
     atom    2 type  1   force =     0.97114924    0.11904331  -23.37465336
     atom    3 type  2   force =    -4.70379638    2.20525410   -9.38180062
     atom    4 type  2   force =     5.96195186    6.93679412   16.02278000
     The local contribution  to forces
     atom    1 type  1   force =     2.20676075    9.51606241  -16.44005216
     atom    2 type  1   force =    -1.00611638    0.13036098   23.60127606
     atom    3 type  2   force =     4.12214258   -1.84646172    9.36480009
     atom    4 type  2   force =    -5.17556303   -6.02867076  -15.16155545
     The core correction contribution to forces
     atom    1 type  1   force =     0.03338650    0.09806599    0.00872399
     atom    2 type  1   force =    -0.00586617    0.01598241    0.02831112
     atom    3 type  2   force =    -0.00369650    0.00285169    0.00326957
     atom    4 type  2   force =     0.00189162    0.00150982    0.00343154
     The Hubbard contrib.    to forces
     atom    1 type  1   force =     0.00000000    0.00000000    0.00000000
     atom    2 type  1   force =     0.00000000    0.00000000    0.00000000
     atom    3 type  2   force =     0.00000000    0.00000000    0.00000000
     atom    4 type  2   force =     0.00000000    0.00000000    0.00000000
     The SCF correction term to forces
     atom    1 type  1   force =     0.00003113    0.00003361    0.00003984
     atom    2 type  1   force =     0.00000275    0.00000395    0.00002099
     atom    3 type  2   force =     0.00000156   -0.00000367    0.00000246
     atom    4 type  2   force =    -0.00000161   -0.00000246    0.00000291

     Total force =     0.854772     Total SCF correction =     0.000065

     Writing all to output data dir ./ZnO_ANN.save/

     init_run     :      4.00s CPU      4.10s WALL (       1 calls)
     electrons    :    259.58s CPU    264.08s WALL (       1 calls)
     forces       :      1.32s CPU      1.34s WALL (       1 calls)

     Called by init_run:
     wfcinit      :      2.88s CPU      2.93s WALL (       1 calls)
     potinit      :      0.38s CPU      0.39s WALL (       1 calls)
     hinit0       :      0.65s CPU      0.66s WALL (       1 calls)

     Called by electrons:
     c_bands      :    234.14s CPU    238.07s WALL (      28 calls)
     sum_band     :     22.90s CPU     23.40s WALL (      28 calls)
     v_of_rho     :      0.57s CPU      0.61s WALL (      29 calls)
     newd         :      1.90s CPU      1.94s WALL (      29 calls)
     mix_rho      :      0.09s CPU      0.10s WALL (      28 calls)

     Called by c_bands:
     init_us_2    :      1.76s CPU      1.78s WALL (    6496 calls)
     init_us_2:cp :      1.73s CPU      1.76s WALL (    6496 calls)
     cegterg      :    228.80s CPU    232.65s WALL (    3136 calls)

     Called by *egterg:
     cdiaghg      :     24.07s CPU     24.26s WALL (   20914 calls)
     h_psi        :    132.90s CPU    135.80s WALL (   21026 calls)
     s_psi        :     17.64s CPU     17.77s WALL (   21026 calls)
     g_psi        :      0.49s CPU      0.49s WALL (   17778 calls)

     Called by h_psi:
     h_psi:calbec :     18.44s CPU     19.01s WALL (   21026 calls)
     vloc_psi     :     96.30s CPU     98.50s WALL (   21026 calls)
     add_vuspsi   :     17.71s CPU     17.86s WALL (   21026 calls)

     General routines
     calbec       :     24.14s CPU     24.86s WALL (   24610 calls)
     fft          :      0.62s CPU      0.68s WALL (     386 calls)
     ffts         :      0.16s CPU      0.16s WALL (      57 calls)
     fftw         :     96.14s CPU     98.33s WALL (  455754 calls)
     interpolate  :      0.17s CPU      0.18s WALL (      29 calls)

     Parallel routines

     PWSCF        :   4m25.64s CPU   4m30.57s WALL


   This run was terminated on:  19:11:24  24Jun2025            

=------------------------------------------------------------------------------=
   JOB DONE.
=------------------------------------------------------------------------------=
Note: The following floating-point exceptions are signalling: IEEE_INVALID_FLAG
