
     Program PWSCF v.7.2 starts on 24Jun2025 at 15: 7:24 

     This program is part of the open-source Quantum ESPRESSO suite
     for quantum simulation of materials; please cite
         "P. Giannozzi et al., J. Phys.:Condens. Matter 21 395502 (2009);
         "P. Giannozzi et al., J. Phys.:Condens. Matter 29 465901 (2017);
         "P. Giannozzi et al., J. Chem. Phys. 152 154105 (2020);
          URL http://www.quantum-espresso.org", 
     in publications or presentations arising from this work. More details at
     http://www.quantum-espresso.org/quote

     Parallel version (MPI), running on     8 processors

     MPI processes distributed on     1 nodes
     91272 MiB available memory on the printing compute node when the environment starts

     Reading input from /home/jvc/QEspresso7.2/ZnO_DataBase/scf_025_NOSYM.in/scf-5.68-1.74-0.25-4.in

     Current dimensions of program PWSCF are:
     Max number of different atomic species (ntypx) = 10
     Max number of k-points (npk) =  40000
     Max angular momentum in pseudopotentials (lmaxx) =  4
     file Zn.upf: wavefunction(s)  3D renormalized

     R & G space division:  proc/nbgrp/npool/nimage =       8
     Subspace diagonalization in iterative solution of the eigenvalue problem:
     a serial algorithm will be used


     Parallelization info
     --------------------
     sticks:   dense  smooth     PW     G-vecs:    dense   smooth      PW
     Min         111      54     16                 4279     1514     257
     Max         112      55     18                 4284     1519     260
     Sum         889     439    139                34245    12143    2069

     Using Slab Decomposition



     bravais-lattice index     =            0
     lattice parameter (alat)  =       5.6845  a.u.
     unit-cell volume          =     254.5253 (a.u.)^3
     number of atoms/cell      =            4
     number of atomic types    =            2
     number of electrons       =        36.00
     number of Kohn-Sham states=           18
     kinetic-energy cutoff     =      50.0000  Ry
     charge density cutoff     =     400.0000  Ry
     scf convergence threshold =      1.0E-08
     mixing beta               =       0.3000
     number of iterations used =            8  plain     mixing
     Exchange-correlation= PBE
                           (   1   4   3   4   0   0   0)

     celldm(1)=   5.684516  celldm(2)=   0.000000  celldm(3)=   0.000000
     celldm(4)=   0.000000  celldm(5)=   0.000000  celldm(6)=   0.000000

     crystal axes: (cart. coord. in units of alat)
               a(1) = (   1.000000   0.000000   0.000000 )  
               a(2) = (  -0.500000   0.866025   0.000000 )  
               a(3) = (   0.000000   0.000000   1.600000 )  

     reciprocal axes: (cart. coord. in units 2 pi/alat)
               b(1) = (  1.000000  0.577350 -0.000000 )  
               b(2) = (  0.000000  1.154701  0.000000 )  
               b(3) = (  0.000000 -0.000000  0.625000 )  


     PseudoPot. # 1 for Zn read from file:
     ./pseudos/Zn.upf
     MD5 check sum: 7f56cabf9682ed8c977c2f7d0c5985c5
     Pseudo is Ultrasoft + core correction, Zval = 12.0
     Generated using &quot;atomic&quot; code by A. Dal Corso  v.6.2.2
     Using radial grid of 1201 points,  6 beta functions with: 
                l(1) =   0
                l(2) =   0
                l(3) =   1
                l(4) =   1
                l(5) =   2
                l(6) =   2
     Q(r) pseudized with 0 coefficients 


     PseudoPot. # 2 for O  read from file:
     ./pseudos/O.upf
     MD5 check sum: 91400c9766925bcf19f520983a725ff0
     Pseudo is Ultrasoft + core correction, Zval =  6.0
     Generated using &quot;atomic&quot; code by A. Dal Corso  v.6.3MaX
     Using radial grid of 1095 points,  4 beta functions with: 
                l(1) =   0
                l(2) =   0
                l(3) =   1
                l(4) =   1
     Q(r) pseudized with 0 coefficients 


     atomic species   valence    mass     pseudopotential
        Zn            12.00    63.38000     Zn( 1.00)
        O              6.00    15.99900     O ( 1.00)

     No symmetry found



   Cartesian axes

     site n.     atom                  positions (alat units)
         1           Zn  tau(   1) = (   0.6444225   0.2677204   0.8360420  )
         2           Zn  tau(   2) = (  -0.0697881   0.5083570   0.0507488  )
         3           O   tau(   3) = (   0.3558612   0.4009440   1.4346654  )
         4           O   tau(   4) = (  -0.2977508   0.7443610   0.2568422  )

     number of k points=   112

     Number of k-points >= 100: set verbosity='high' to print them.

     Dense  grid:    34245 G-vectors     FFT dimensions: (  40,  40,  60)

     Smooth grid:    12143 G-vectors     FFT dimensions: (  25,  25,  45)

     Estimated max dynamical RAM per process >      24.48 MB

     Estimated total dynamical RAM >     195.83 MB

     Check: negative core charge=   -0.000002

     Initial potential from superposition of free atoms

     starting charge      35.9925, renormalised to      36.0000
     Starting wfcs are   26 randomized atomic wfcs

     total cpu time spent up to now is        3.3 secs

     Self-consistent Calculation

     iteration #  1     ecut=    50.00 Ry     beta= 0.30
     Davidson diagonalization with overlap
     ethr =  1.00E-02,  avg # of iterations =  2.8

     total cpu time spent up to now is        7.9 secs

     total energy              =    -359.48001835 Ry
     estimated scf accuracy    <       1.61484920 Ry

     iteration #  2     ecut=    50.00 Ry     beta= 0.30
     Davidson diagonalization with overlap
     ethr =  4.49E-03,  avg # of iterations =  3.6

     total cpu time spent up to now is       12.8 secs

     total energy              =    -359.67748945 Ry
     estimated scf accuracy    <       0.15266458 Ry

     iteration #  3     ecut=    50.00 Ry     beta= 0.30
     Davidson diagonalization with overlap
     c_bands:  1 eigenvalues not converged
     c_bands:  1 eigenvalues not converged
     ethr =  4.24E-04,  avg # of iterations = 10.5

     total cpu time spent up to now is       23.1 secs

     total energy              =    -360.02938728 Ry
     estimated scf accuracy    <       0.59423817 Ry

     iteration #  4     ecut=    50.00 Ry     beta= 0.30
     Davidson diagonalization with overlap
     ethr =  4.24E-04,  avg # of iterations =  1.9

     total cpu time spent up to now is       27.0 secs

     total energy              =    -359.63001538 Ry
     estimated scf accuracy    <       0.72066470 Ry

     iteration #  5     ecut=    50.00 Ry     beta= 0.30
     Davidson diagonalization with overlap
     ethr =  4.24E-04,  avg # of iterations = 10.9

     total cpu time spent up to now is       37.7 secs

     total energy              =    -359.88107175 Ry
     estimated scf accuracy    <       0.32066738 Ry

     iteration #  6     ecut=    50.00 Ry     beta= 0.30
     Davidson diagonalization with overlap
     ethr =  4.24E-04,  avg # of iterations =  1.5

     total cpu time spent up to now is       41.4 secs

     total energy              =    -359.82855657 Ry
     estimated scf accuracy    <       0.18693884 Ry

     iteration #  7     ecut=    50.00 Ry     beta= 0.30
     Davidson diagonalization with overlap
     ethr =  4.24E-04,  avg # of iterations =  4.9

     total cpu time spent up to now is       46.6 secs

     total energy              =    -359.86843055 Ry
     estimated scf accuracy    <       0.00078848 Ry

     iteration #  8     ecut=    50.00 Ry     beta= 0.30
     Davidson diagonalization with overlap
     c_bands:  1 eigenvalues not converged
     c_bands:  3 eigenvalues not converged
     c_bands:  1 eigenvalues not converged
     c_bands:  2 eigenvalues not converged
     c_bands:  2 eigenvalues not converged
     c_bands:  2 eigenvalues not converged
     c_bands:  1 eigenvalues not converged
     c_bands:  1 eigenvalues not converged
     c_bands:  2 eigenvalues not converged
     c_bands:  2 eigenvalues not converged
     c_bands:  2 eigenvalues not converged
     c_bands:  2 eigenvalues not converged
     c_bands:  1 eigenvalues not converged
     c_bands:  2 eigenvalues not converged
     c_bands:  1 eigenvalues not converged
     c_bands:  1 eigenvalues not converged
     c_bands:  1 eigenvalues not converged
     c_bands:  1 eigenvalues not converged
     c_bands:  2 eigenvalues not converged
     c_bands:  2 eigenvalues not converged
     c_bands:  2 eigenvalues not converged
     c_bands:  2 eigenvalues not converged
     c_bands:  1 eigenvalues not converged
     c_bands:  1 eigenvalues not converged
     c_bands:  1 eigenvalues not converged
     c_bands:  1 eigenvalues not converged
     c_bands:  2 eigenvalues not converged
     c_bands:  1 eigenvalues not converged
     c_bands:  1 eigenvalues not converged
     c_bands:  1 eigenvalues not converged
     c_bands:  1 eigenvalues not converged
     c_bands:  1 eigenvalues not converged
     ethr =  2.19E-06,  avg # of iterations = 16.7

     total cpu time spent up to now is       63.0 secs

     total energy              =    -359.86679427 Ry
     estimated scf accuracy    <       0.02832672 Ry

     iteration #  9     ecut=    50.00 Ry     beta= 0.30
     Davidson diagonalization with overlap
     c_bands:  1 eigenvalues not converged
     c_bands:  1 eigenvalues not converged
     c_bands:  1 eigenvalues not converged
     c_bands:  1 eigenvalues not converged
     c_bands:  1 eigenvalues not converged
     c_bands:  2 eigenvalues not converged
     c_bands:  1 eigenvalues not converged
     c_bands:  1 eigenvalues not converged
     c_bands:  1 eigenvalues not converged
     c_bands:  1 eigenvalues not converged
     c_bands:  2 eigenvalues not converged
     c_bands:  2 eigenvalues not converged
     c_bands:  1 eigenvalues not converged
     c_bands:  1 eigenvalues not converged
     c_bands:  2 eigenvalues not converged
     c_bands:  1 eigenvalues not converged
     c_bands:  1 eigenvalues not converged
     c_bands:  1 eigenvalues not converged
     c_bands:  1 eigenvalues not converged
     ethr =  2.19E-06,  avg # of iterations = 15.9

     total cpu time spent up to now is       78.4 secs

     total energy              =    -359.87385259 Ry
     estimated scf accuracy    <       0.00337230 Ry

     iteration # 10     ecut=    50.00 Ry     beta= 0.30
     Davidson diagonalization with overlap
     ethr =  2.19E-06,  avg # of iterations =  2.0

     total cpu time spent up to now is       82.2 secs

     total energy              =    -359.87324816 Ry
     estimated scf accuracy    <       0.00223856 Ry

     iteration # 11     ecut=    50.00 Ry     beta= 0.30
     Davidson diagonalization with overlap
     ethr =  2.19E-06,  avg # of iterations =  6.2

     total cpu time spent up to now is       88.1 secs

     total energy              =    -359.87364417 Ry
     estimated scf accuracy    <       0.00002590 Ry

     iteration # 12     ecut=    50.00 Ry     beta= 0.30
     Davidson diagonalization with overlap
     c_bands:  1 eigenvalues not converged
     c_bands:  1 eigenvalues not converged
     c_bands:  2 eigenvalues not converged
     c_bands:  1 eigenvalues not converged
     ethr =  7.19E-08,  avg # of iterations = 12.8

     total cpu time spent up to now is       98.3 secs

     total energy              =    -359.87366535 Ry
     estimated scf accuracy    <       0.00016801 Ry

     iteration # 13     ecut=    50.00 Ry     beta= 0.30
     Davidson diagonalization with overlap
     c_bands:  1 eigenvalues not converged
     ethr =  7.19E-08,  avg # of iterations =  8.3

     total cpu time spent up to now is      105.2 secs

     total energy              =    -359.87367639 Ry
     estimated scf accuracy    <       0.00003514 Ry

     iteration # 14     ecut=    50.00 Ry     beta= 0.30
     Davidson diagonalization with overlap
     ethr =  7.19E-08,  avg # of iterations =  1.4

     total cpu time spent up to now is      108.7 secs

     total energy              =    -359.87366519 Ry
     estimated scf accuracy    <       0.00002130 Ry

     iteration # 15     ecut=    50.00 Ry     beta= 0.30
     Davidson diagonalization with overlap
     ethr =  5.92E-08,  avg # of iterations =  7.4

     total cpu time spent up to now is      116.0 secs

     total energy              =    -359.87367628 Ry
     estimated scf accuracy    <       0.00001999 Ry

     iteration # 16     ecut=    50.00 Ry     beta= 0.30
     Davidson diagonalization with overlap
     ethr =  5.55E-08,  avg # of iterations =  1.3

     total cpu time spent up to now is      119.6 secs

     total energy              =    -359.87367461 Ry
     estimated scf accuracy    <       0.00000902 Ry

     iteration # 17     ecut=    50.00 Ry     beta= 0.30
     Davidson diagonalization with overlap
     ethr =  2.51E-08,  avg # of iterations =  4.2

     total cpu time spent up to now is      124.5 secs

     total energy              =    -359.87367720 Ry
     estimated scf accuracy    <       0.00000064 Ry

     iteration # 18     ecut=    50.00 Ry     beta= 0.30
     Davidson diagonalization with overlap
     ethr =  1.78E-09,  avg # of iterations =  6.8

     total cpu time spent up to now is      130.6 secs

     total energy              =    -359.87367766 Ry
     estimated scf accuracy    <       0.00000123 Ry

     iteration # 19     ecut=    50.00 Ry     beta= 0.30
     Davidson diagonalization with overlap
     ethr =  1.78E-09,  avg # of iterations =  2.2

     total cpu time spent up to now is      134.5 secs

     total energy              =    -359.87367773 Ry
     estimated scf accuracy    <       0.00000156 Ry

     iteration # 20     ecut=    50.00 Ry     beta= 0.30
     Davidson diagonalization with overlap
     ethr =  1.78E-09,  avg # of iterations =  7.1

     total cpu time spent up to now is      141.3 secs

     total energy              =    -359.87367785 Ry
     estimated scf accuracy    <       0.00000361 Ry

     iteration # 21     ecut=    50.00 Ry     beta= 0.30
     Davidson diagonalization with overlap
     ethr =  1.78E-09,  avg # of iterations =  2.3

     total cpu time spent up to now is      145.2 secs

     total energy              =    -359.87367748 Ry
     estimated scf accuracy    <       0.00000303 Ry

     iteration # 22     ecut=    50.00 Ry     beta= 0.30
     Davidson diagonalization with overlap
     ethr =  1.78E-09,  avg # of iterations =  3.4

     total cpu time spent up to now is      149.6 secs

     total energy              =    -359.87367740 Ry
     estimated scf accuracy    <       0.00000186 Ry

     iteration # 23     ecut=    50.00 Ry     beta= 0.30
     Davidson diagonalization with overlap
     ethr =  1.78E-09,  avg # of iterations =  1.9

     total cpu time spent up to now is      153.5 secs

     total energy              =    -359.87367732 Ry
     estimated scf accuracy    <       0.00000132 Ry

     iteration # 24     ecut=    50.00 Ry     beta= 0.30
     Davidson diagonalization with overlap
     ethr =  1.78E-09,  avg # of iterations =  2.0

     total cpu time spent up to now is      157.4 secs

     total energy              =    -359.87367728 Ry
     estimated scf accuracy    <       0.00000089 Ry

     iteration # 25     ecut=    50.00 Ry     beta= 0.30
     Davidson diagonalization with overlap
     ethr =  1.78E-09,  avg # of iterations =  2.0

     total cpu time spent up to now is      161.3 secs

     total energy              =    -359.87367709 Ry
     estimated scf accuracy    <       0.00000061 Ry

     iteration # 26     ecut=    50.00 Ry     beta= 0.30
     Davidson diagonalization with overlap
     ethr =  1.70E-09,  avg # of iterations =  6.2

     total cpu time spent up to now is      167.2 secs

     total energy              =    -359.87367733 Ry
     estimated scf accuracy    <       0.00000014 Ry

     iteration # 27     ecut=    50.00 Ry     beta= 0.30
     Davidson diagonalization with overlap
     ethr =  3.93E-10,  avg # of iterations =  2.3

     total cpu time spent up to now is      171.2 secs

     total energy              =    -359.87367732 Ry
     estimated scf accuracy    <       0.00000012 Ry

     iteration # 28     ecut=    50.00 Ry     beta= 0.30
     Davidson diagonalization with overlap
     ethr =  3.39E-10,  avg # of iterations =  1.6

     total cpu time spent up to now is      174.9 secs

     total energy              =    -359.87367730 Ry
     estimated scf accuracy    <       0.00000009 Ry

     iteration # 29     ecut=    50.00 Ry     beta= 0.30
     Davidson diagonalization with overlap
     ethr =  2.45E-10,  avg # of iterations =  4.3

     total cpu time spent up to now is      179.5 secs

     total energy              =    -359.87367731 Ry
     estimated scf accuracy    <       0.00000002 Ry

     iteration # 30     ecut=    50.00 Ry     beta= 0.30
     Davidson diagonalization with overlap
     ethr =  5.84E-11,  avg # of iterations =  6.1

     total cpu time spent up to now is      185.0 secs

     total energy              =    -359.87367732 Ry
     estimated scf accuracy    <       0.00000001 Ry

     iteration # 31     ecut=    50.00 Ry     beta= 0.30
     Davidson diagonalization with overlap
     ethr =  3.16E-11,  avg # of iterations =  5.6

     total cpu time spent up to now is      190.3 secs

     total energy              =    -359.87367732 Ry
     estimated scf accuracy    <       0.00000001 Ry

     iteration # 32     ecut=    50.00 Ry     beta= 0.30
     Davidson diagonalization with overlap
     ethr =  3.16E-11,  avg # of iterations =  1.5

     total cpu time spent up to now is      193.9 secs

     total energy              =    -359.87367732 Ry
     estimated scf accuracy    <       0.00000001 Ry

     iteration # 33     ecut=    50.00 Ry     beta= 0.30
     Davidson diagonalization with overlap
     ethr =  2.82E-11,  avg # of iterations =  1.8

     total cpu time spent up to now is      197.7 secs

     End of self-consistent calculation

     Number of k-points >= 100: set verbosity='high' to print the bands.

     highest occupied level (ev):    12.7417

!    total energy              =    -359.87367731 Ry
     estimated scf accuracy    <          5.5E-09 Ry

     The total energy is the sum of the following terms:
     one-electron contribution =    -148.92561111 Ry
     hartree contribution      =     119.00670159 Ry
     xc contribution           =    -110.43684744 Ry
     ewald contribution        =    -219.51792035 Ry

     convergence has been achieved in  33 iterations

     Forces acting on atoms (cartesian axes, Ry/au):

     atom    1 type  1   force =    -0.02385595   -0.00461478   -0.00715195
     atom    2 type  1   force =     1.47770132   -1.82887724   -1.46895357
     atom    3 type  2   force =     0.46985166   -0.17772945   -0.57742298
     atom    4 type  2   force =    -1.92369703    2.01122147    2.05352850
     The non-local contrib.  to forces
     atom    1 type  1   force =     0.20256585   -0.05634563   -0.08982314
     atom    2 type  1   force =    -0.34358145   -0.22274082   -0.02158899
     atom    3 type  2   force =    -0.38771346    0.06258829   -0.34325711
     atom    4 type  2   force =     0.51166918   -0.61763739    0.34432146
     The ionic contribution  to forces
     atom    1 type  1   force =     0.53961355   -1.80850688    0.77271993
     atom    2 type  1   force =     7.30337926   -9.45778234   -7.10411750
     atom    3 type  2   force =     4.05839550   -1.89053890  -10.55801931
     atom    4 type  2   force =   -11.90138831   13.15682812   16.88941689
     The local contribution  to forces
     atom    1 type  1   force =    -0.75550310    1.85240494   -0.69586914
     atom    2 type  1   force =    -5.39996109    7.69195793    5.54784996
     atom    3 type  2   force =    -3.20211991    1.64966339   10.31762010
     atom    4 type  2   force =     9.46301510  -10.52554618  -15.16858373
     The core correction contribution to forces
     atom    1 type  1   force =    -0.01051751    0.00781950    0.00570757
     atom    2 type  1   force =    -0.08219982    0.15970935    0.10906859
     atom    3 type  2   force =     0.00128887    0.00055840    0.00620171
     atom    4 type  2   force =     0.00301742   -0.00241519   -0.01151081
     The Hubbard contrib.    to forces
     atom    1 type  1   force =     0.00000000    0.00000000    0.00000000
     atom    2 type  1   force =     0.00000000    0.00000000    0.00000000
     atom    3 type  2   force =     0.00000000    0.00000000    0.00000000
     atom    4 type  2   force =     0.00000000    0.00000000    0.00000000
     The SCF correction term to forces
     atom    1 type  1   force =    -0.00001193    0.00001487    0.00010679
     atom    2 type  1   force =     0.00006724   -0.00001978   -0.00017167
     atom    3 type  2   force =     0.00000349    0.00000095    0.00002561
     atom    4 type  2   force =    -0.00000760   -0.00000630   -0.00012134

     Total force =     4.498358     Total SCF correction =     0.000248

     Writing all to output data dir ./ZnO_ANN.save/

     init_run     :      2.78s CPU      2.87s WALL (       1 calls)
     electrons    :    190.30s CPU    194.34s WALL (       1 calls)
     forces       :      0.93s CPU      0.95s WALL (       1 calls)

     Called by init_run:
     wfcinit      :      1.96s CPU      2.02s WALL (       1 calls)
     potinit      :      0.20s CPU      0.21s WALL (       1 calls)
     hinit0       :      0.56s CPU      0.57s WALL (       1 calls)

     Called by electrons:
     c_bands      :    170.85s CPU    174.37s WALL (      33 calls)
     sum_band     :     17.45s CPU     17.91s WALL (      33 calls)
     v_of_rho     :      0.45s CPU      0.49s WALL (      34 calls)
     newd         :      1.48s CPU      1.51s WALL (      34 calls)
     mix_rho      :      0.07s CPU      0.08s WALL (      33 calls)

     Called by c_bands:
     init_us_2    :      1.19s CPU      1.21s WALL (    7616 calls)
     init_us_2:cp :      1.17s CPU      1.19s WALL (    7616 calls)
     cegterg      :    166.65s CPU    170.10s WALL (    3696 calls)

     Called by *egterg:
     cdiaghg      :     22.59s CPU     22.81s WALL (   22644 calls)
     h_psi        :     90.29s CPU     92.76s WALL (   22756 calls)
     s_psi        :      9.52s CPU      9.65s WALL (   22756 calls)
     g_psi        :      0.33s CPU      0.34s WALL (   18948 calls)

     Called by h_psi:
     h_psi:calbec :     13.34s CPU     13.86s WALL (   22756 calls)
     vloc_psi     :     67.11s CPU     68.93s WALL (   22756 calls)
     add_vuspsi   :      9.53s CPU      9.66s WALL (   22756 calls)

     General routines
     calbec       :     17.81s CPU     18.49s WALL (   26900 calls)
     fft          :      0.68s CPU      0.73s WALL (     451 calls)
     ffts         :      0.06s CPU      0.06s WALL (      67 calls)
     fftw         :     68.83s CPU     70.69s WALL (  493146 calls)
     interpolate  :      0.07s CPU      0.08s WALL (      34 calls)

     Parallel routines

     PWSCF        :   3m14.70s CPU   3m18.99s WALL


   This run was terminated on:  15:10:43  24Jun2025            

=------------------------------------------------------------------------------=
   JOB DONE.
=------------------------------------------------------------------------------=
Note: The following floating-point exceptions are signalling: IEEE_INVALID_FLAG
