
     Program PWSCF v.7.2 starts on 24Jun2025 at 16:36:16 

     This program is part of the open-source Quantum ESPRESSO suite
     for quantum simulation of materials; please cite
         "P. Giannozzi et al., J. Phys.:Condens. Matter 21 395502 (2009);
         "P. Giannozzi et al., J. Phys.:Condens. Matter 29 465901 (2017);
         "P. Giannozzi et al., J. Chem. Phys. 152 154105 (2020);
          URL http://www.quantum-espresso.org", 
     in publications or presentations arising from this work. More details at
     http://www.quantum-espresso.org/quote

     Parallel version (MPI), running on     8 processors

     MPI processes distributed on     1 nodes
     91054 MiB available memory on the printing compute node when the environment starts

     Reading input from /home/jvc/QEspresso7.2/ZnO_DataBase/scf_025_NOSYM.in/scf-6.06-1.71-0.25-3.in

     Current dimensions of program PWSCF are:
     Max number of different atomic species (ntypx) = 10
     Max number of k-points (npk) =  40000
     Max angular momentum in pseudopotentials (lmaxx) =  4
     file Zn.upf: wavefunction(s)  3D renormalized

     R & G space division:  proc/nbgrp/npool/nimage =       8
     Subspace diagonalization in iterative solution of the eigenvalue problem:
     a serial algorithm will be used


     Parallelization info
     --------------------
     sticks:   dense  smooth     PW     G-vecs:    dense   smooth      PW
     Min         126      63     18                 5206     1840     312
     Max         127      65     19                 5211     1843     317
     Sum        1015     511    151                41671    14737    2527

     Using Slab Decomposition



     bravais-lattice index     =            0
     lattice parameter (alat)  =       6.0552  a.u.
     unit-cell volume          =     307.6421 (a.u.)^3
     number of atoms/cell      =            4
     number of atomic types    =            2
     number of electrons       =        36.00
     number of Kohn-Sham states=           18
     kinetic-energy cutoff     =      50.0000  Ry
     charge density cutoff     =     400.0000  Ry
     scf convergence threshold =      1.0E-08
     mixing beta               =       0.3000
     number of iterations used =            8  plain     mixing
     Exchange-correlation= PBE
                           (   1   4   3   4   0   0   0)

     celldm(1)=   6.055245  celldm(2)=   0.000000  celldm(3)=   0.000000
     celldm(4)=   0.000000  celldm(5)=   0.000000  celldm(6)=   0.000000

     crystal axes: (cart. coord. in units of alat)
               a(1) = (   1.000000   0.000000   0.000000 )  
               a(2) = (  -0.500000   0.866025   0.000000 )  
               a(3) = (   0.000000   0.000000   1.600000 )  

     reciprocal axes: (cart. coord. in units 2 pi/alat)
               b(1) = (  1.000000  0.577350 -0.000000 )  
               b(2) = (  0.000000  1.154701  0.000000 )  
               b(3) = (  0.000000 -0.000000  0.625000 )  


     PseudoPot. # 1 for Zn read from file:
     ./pseudos/Zn.upf
     MD5 check sum: 7f56cabf9682ed8c977c2f7d0c5985c5
     Pseudo is Ultrasoft + core correction, Zval = 12.0
     Generated using &quot;atomic&quot; code by A. Dal Corso  v.6.2.2
     Using radial grid of 1201 points,  6 beta functions with: 
                l(1) =   0
                l(2) =   0
                l(3) =   1
                l(4) =   1
                l(5) =   2
                l(6) =   2
     Q(r) pseudized with 0 coefficients 


     PseudoPot. # 2 for O  read from file:
     ./pseudos/O.upf
     MD5 check sum: 91400c9766925bcf19f520983a725ff0
     Pseudo is Ultrasoft + core correction, Zval =  6.0
     Generated using &quot;atomic&quot; code by A. Dal Corso  v.6.3MaX
     Using radial grid of 1095 points,  4 beta functions with: 
                l(1) =   0
                l(2) =   0
                l(3) =   1
                l(4) =   1
     Q(r) pseudized with 0 coefficients 


     atomic species   valence    mass     pseudopotential
        Zn            12.00    63.38000     Zn( 1.00)
        O              6.00    15.99900     O ( 1.00)

     No symmetry found



   Cartesian axes

     site n.     atom                  positions (alat units)
         1           Zn  tau(   1) = (   0.4915670   0.3458359   0.8693067  )
         2           Zn  tau(   2) = (   0.0326564   0.3678951  -0.1299804  )
         3           O   tau(   3) = (   0.5204032   0.1868014   1.4202249  )
         4           O   tau(   4) = (   0.1547967   0.5909506   0.5551399  )

     number of k points=   112

     Number of k-points >= 100: set verbosity='high' to print them.

     Dense  grid:    41671 G-vectors     FFT dimensions: (  40,  40,  64)

     Smooth grid:    14737 G-vectors     FFT dimensions: (  27,  27,  45)

     Estimated max dynamical RAM per process >      28.83 MB

     Estimated total dynamical RAM >     230.62 MB

     Check: negative core charge=   -0.000002

     Initial potential from superposition of free atoms

     starting charge      35.9925, renormalised to      36.0000
     Starting wfcs are   26 randomized atomic wfcs

     total cpu time spent up to now is        3.9 secs

     Self-consistent Calculation

     iteration #  1     ecut=    50.00 Ry     beta= 0.30
     Davidson diagonalization with overlap
     ethr =  1.00E-02,  avg # of iterations =  2.0

     total cpu time spent up to now is        8.9 secs

     total energy              =    -361.19415733 Ry
     estimated scf accuracy    <       0.84780699 Ry

     iteration #  2     ecut=    50.00 Ry     beta= 0.30
     Davidson diagonalization with overlap
     ethr =  2.36E-03,  avg # of iterations =  2.2

     total cpu time spent up to now is       14.8 secs

     total energy              =    -361.31956687 Ry
     estimated scf accuracy    <       0.10387734 Ry

     iteration #  3     ecut=    50.00 Ry     beta= 0.30
     Davidson diagonalization with overlap
     ethr =  2.89E-04,  avg # of iterations =  6.8

     total cpu time spent up to now is       25.6 secs

     total energy              =    -361.36647033 Ry
     estimated scf accuracy    <       0.10646248 Ry

     iteration #  4     ecut=    50.00 Ry     beta= 0.30
     Davidson diagonalization with overlap
     ethr =  2.89E-04,  avg # of iterations =  5.3

     total cpu time spent up to now is       33.0 secs

     total energy              =    -361.39929244 Ry
     estimated scf accuracy    <       0.03669435 Ry

     iteration #  5     ecut=    50.00 Ry     beta= 0.30
     Davidson diagonalization with overlap
     ethr =  1.02E-04,  avg # of iterations =  1.6

     total cpu time spent up to now is       37.8 secs

     total energy              =    -361.38999034 Ry
     estimated scf accuracy    <       0.01793219 Ry

     iteration #  6     ecut=    50.00 Ry     beta= 0.30
     Davidson diagonalization with overlap
     ethr =  4.98E-05,  avg # of iterations =  6.8

     total cpu time spent up to now is       46.4 secs

     total energy              =    -361.39969261 Ry
     estimated scf accuracy    <       0.02736356 Ry

     iteration #  7     ecut=    50.00 Ry     beta= 0.30
     Davidson diagonalization with overlap
     ethr =  4.98E-05,  avg # of iterations =  1.9

     total cpu time spent up to now is       51.3 secs

     total energy              =    -361.39344347 Ry
     estimated scf accuracy    <       0.01388102 Ry

     iteration #  8     ecut=    50.00 Ry     beta= 0.30
     Davidson diagonalization with overlap
     ethr =  3.86E-05,  avg # of iterations =  5.8

     total cpu time spent up to now is       59.3 secs

     total energy              =    -361.40506737 Ry
     estimated scf accuracy    <       0.00913469 Ry

     iteration #  9     ecut=    50.00 Ry     beta= 0.30
     Davidson diagonalization with overlap
     ethr =  2.54E-05,  avg # of iterations =  2.2

     total cpu time spent up to now is       64.3 secs

     total energy              =    -361.40106001 Ry
     estimated scf accuracy    <       0.01535075 Ry

     iteration # 10     ecut=    50.00 Ry     beta= 0.30
     Davidson diagonalization with overlap
     ethr =  2.54E-05,  avg # of iterations =  1.8

     total cpu time spent up to now is       69.3 secs

     total energy              =    -361.39958663 Ry
     estimated scf accuracy    <       0.00793534 Ry

     iteration # 11     ecut=    50.00 Ry     beta= 0.30
     Davidson diagonalization with overlap
     ethr =  2.20E-05,  avg # of iterations =  2.9

     total cpu time spent up to now is       74.7 secs

     total energy              =    -361.40033991 Ry
     estimated scf accuracy    <       0.00177189 Ry

     iteration # 12     ecut=    50.00 Ry     beta= 0.30
     Davidson diagonalization with overlap
     ethr =  4.92E-06,  avg # of iterations =  5.3

     total cpu time spent up to now is       81.2 secs

     total energy              =    -361.40084675 Ry
     estimated scf accuracy    <       0.00028655 Ry

     iteration # 13     ecut=    50.00 Ry     beta= 0.30
     Davidson diagonalization with overlap
     ethr =  7.96E-07,  avg # of iterations =  3.5

     total cpu time spent up to now is       87.4 secs

     total energy              =    -361.40108249 Ry
     estimated scf accuracy    <       0.00026913 Ry

     iteration # 14     ecut=    50.00 Ry     beta= 0.30
     Davidson diagonalization with overlap
     ethr =  7.48E-07,  avg # of iterations =  5.7

     total cpu time spent up to now is       94.2 secs

     total energy              =    -361.40080017 Ry
     estimated scf accuracy    <       0.00136020 Ry

     iteration # 15     ecut=    50.00 Ry     beta= 0.30
     Davidson diagonalization with overlap
     ethr =  7.48E-07,  avg # of iterations =  5.7

     total cpu time spent up to now is      100.9 secs

     total energy              =    -361.40101912 Ry
     estimated scf accuracy    <       0.00021760 Ry

     iteration # 16     ecut=    50.00 Ry     beta= 0.30
     Davidson diagonalization with overlap
     ethr =  6.04E-07,  avg # of iterations =  4.8

     total cpu time spent up to now is      107.1 secs

     total energy              =    -361.40093893 Ry
     estimated scf accuracy    <       0.00085876 Ry

     iteration # 17     ecut=    50.00 Ry     beta= 0.30
     Davidson diagonalization with overlap
     ethr =  6.04E-07,  avg # of iterations =  1.1

     total cpu time spent up to now is      111.6 secs

     total energy              =    -361.40104658 Ry
     estimated scf accuracy    <       0.00064428 Ry

     iteration # 18     ecut=    50.00 Ry     beta= 0.30
     Davidson diagonalization with overlap
     ethr =  6.04E-07,  avg # of iterations =  1.2

     total cpu time spent up to now is      116.1 secs

     total energy              =    -361.40095261 Ry
     estimated scf accuracy    <       0.00083166 Ry

     iteration # 19     ecut=    50.00 Ry     beta= 0.30
     Davidson diagonalization with overlap
     ethr =  6.04E-07,  avg # of iterations =  1.1

     total cpu time spent up to now is      120.6 secs

     total energy              =    -361.40060086 Ry
     estimated scf accuracy    <       0.00066125 Ry

     iteration # 20     ecut=    50.00 Ry     beta= 0.30
     Davidson diagonalization with overlap
     ethr =  6.04E-07,  avg # of iterations =  9.6

     total cpu time spent up to now is      132.4 secs

     total energy              =    -361.40094974 Ry
     estimated scf accuracy    <       0.00055851 Ry

     iteration # 21     ecut=    50.00 Ry     beta= 0.30
     Davidson diagonalization with overlap
     ethr =  6.04E-07,  avg # of iterations =  1.0

     total cpu time spent up to now is      136.9 secs

     total energy              =    -361.40063690 Ry
     estimated scf accuracy    <       0.00045388 Ry

     iteration # 22     ecut=    50.00 Ry     beta= 0.30
     Davidson diagonalization with overlap
     c_bands:  1 eigenvalues not converged
     ethr =  6.04E-07,  avg # of iterations =  8.5

     total cpu time spent up to now is      149.2 secs

     total energy              =    -361.40081749 Ry
     estimated scf accuracy    <       0.00051921 Ry

     iteration # 23     ecut=    50.00 Ry     beta= 0.30
     Davidson diagonalization with overlap
     ethr =  6.04E-07,  avg # of iterations =  3.9

     total cpu time spent up to now is      155.0 secs

     total energy              =    -361.40081976 Ry
     estimated scf accuracy    <       0.00011253 Ry

     iteration # 24     ecut=    50.00 Ry     beta= 0.30
     Davidson diagonalization with overlap
     ethr =  3.13E-07,  avg # of iterations =  5.3

     total cpu time spent up to now is      161.9 secs

     total energy              =    -361.40086431 Ry
     estimated scf accuracy    <       0.00000136 Ry

     iteration # 25     ecut=    50.00 Ry     beta= 0.30
     Davidson diagonalization with overlap
     c_bands:  2 eigenvalues not converged
     c_bands:  1 eigenvalues not converged
     c_bands:  1 eigenvalues not converged
     ethr =  3.78E-09,  avg # of iterations = 13.2

     total cpu time spent up to now is      180.1 secs

     total energy              =    -361.40086158 Ry
     estimated scf accuracy    <       0.00005671 Ry

     iteration # 26     ecut=    50.00 Ry     beta= 0.30
     Davidson diagonalization with overlap
     ethr =  3.78E-09,  avg # of iterations = 10.5

     total cpu time spent up to now is      194.3 secs

     total energy              =    -361.40086396 Ry
     estimated scf accuracy    <       0.00000702 Ry

     iteration # 27     ecut=    50.00 Ry     beta= 0.30
     Davidson diagonalization with overlap
     ethr =  3.78E-09,  avg # of iterations =  5.9

     total cpu time spent up to now is      201.3 secs

     total energy              =    -361.40086429 Ry
     estimated scf accuracy    <       0.00000098 Ry

     iteration # 28     ecut=    50.00 Ry     beta= 0.30
     Davidson diagonalization with overlap
     ethr =  2.72E-09,  avg # of iterations =  2.1

     total cpu time spent up to now is      206.2 secs

     total energy              =    -361.40086412 Ry
     estimated scf accuracy    <       0.00000047 Ry

     iteration # 29     ecut=    50.00 Ry     beta= 0.30
     Davidson diagonalization with overlap
     ethr =  1.30E-09,  avg # of iterations =  6.1

     total cpu time spent up to now is      214.1 secs

     total energy              =    -361.40086447 Ry
     estimated scf accuracy    <       0.00000033 Ry

     iteration # 30     ecut=    50.00 Ry     beta= 0.30
     Davidson diagonalization with overlap
     ethr =  9.09E-10,  avg # of iterations =  1.2

     total cpu time spent up to now is      218.5 secs

     total energy              =    -361.40086435 Ry
     estimated scf accuracy    <       0.00000034 Ry

     iteration # 31     ecut=    50.00 Ry     beta= 0.30
     Davidson diagonalization with overlap
     ethr =  9.09E-10,  avg # of iterations =  2.3

     total cpu time spent up to now is      223.6 secs

     total energy              =    -361.40086433 Ry
     estimated scf accuracy    <       0.00000010 Ry

     iteration # 32     ecut=    50.00 Ry     beta= 0.30
     Davidson diagonalization with overlap
     ethr =  2.69E-10,  avg # of iterations =  7.0

     total cpu time spent up to now is      231.6 secs

     total energy              =    -361.40086440 Ry
     estimated scf accuracy    <       0.00000009 Ry

     iteration # 33     ecut=    50.00 Ry     beta= 0.30
     Davidson diagonalization with overlap
     ethr =  2.48E-10,  avg # of iterations =  1.0

     total cpu time spent up to now is      236.0 secs

     total energy              =    -361.40086439 Ry
     estimated scf accuracy    <       0.00000007 Ry

     iteration # 34     ecut=    50.00 Ry     beta= 0.30
     Davidson diagonalization with overlap
     ethr =  1.87E-10,  avg # of iterations =  2.6

     total cpu time spent up to now is      241.0 secs

     total energy              =    -361.40086438 Ry
     estimated scf accuracy    <       0.00000002 Ry

     iteration # 35     ecut=    50.00 Ry     beta= 0.30
     Davidson diagonalization with overlap
     ethr =  5.30E-11,  avg # of iterations =  7.0

     total cpu time spent up to now is      249.0 secs

     total energy              =    -361.40086440 Ry
     estimated scf accuracy    <       0.00000002 Ry

     iteration # 36     ecut=    50.00 Ry     beta= 0.30
     Davidson diagonalization with overlap
     ethr =  5.30E-11,  avg # of iterations =  1.4

     total cpu time spent up to now is      253.5 secs

     total energy              =    -361.40086440 Ry
     estimated scf accuracy    <       0.00000003 Ry

     iteration # 37     ecut=    50.00 Ry     beta= 0.30
     Davidson diagonalization with overlap
     ethr =  5.30E-11,  avg # of iterations =  1.0

     total cpu time spent up to now is      257.9 secs

     total energy              =    -361.40086439 Ry
     estimated scf accuracy    <       0.00000002 Ry

     iteration # 38     ecut=    50.00 Ry     beta= 0.30
     Davidson diagonalization with overlap
     ethr =  5.30E-11,  avg # of iterations =  1.9

     total cpu time spent up to now is      262.7 secs

     total energy              =    -361.40086439 Ry
     estimated scf accuracy    <       0.00000001 Ry

     iteration # 39     ecut=    50.00 Ry     beta= 0.30
     Davidson diagonalization with overlap
     ethr =  2.87E-11,  avg # of iterations =  5.9

     total cpu time spent up to now is      269.2 secs

     End of self-consistent calculation

     Number of k-points >= 100: set verbosity='high' to print the bands.

     highest occupied level (ev):     8.3522

!    total energy              =    -361.40086439 Ry
     estimated scf accuracy    <          5.7E-10 Ry

     The total energy is the sum of the following terms:
     one-electron contribution =    -160.48628248 Ry
     hartree contribution      =     121.55843713 Ry
     xc contribution           =    -109.68298820 Ry
     ewald contribution        =    -212.79003085 Ry

     convergence has been achieved in  39 iterations

     Forces acting on atoms (cartesian axes, Ry/au):

     atom    1 type  1   force =     0.12589801   -0.08785486   -0.07994657
     atom    2 type  1   force =    -0.08743136    0.11528084    0.14940759
     atom    3 type  2   force =     0.10062284   -0.11748475    0.00290264
     atom    4 type  2   force =    -0.13908949    0.09005876   -0.07236365
     The non-local contrib.  to forces
     atom    1 type  1   force =     0.52995101   -0.22624666    0.52786176
     atom    2 type  1   force =    -0.13982485    0.26417507   -0.16137207
     atom    3 type  2   force =    -0.00779787    0.54749008   -0.70047785
     atom    4 type  2   force =     0.36671181   -0.39066736    0.72301511
     The ionic contribution  to forces
     atom    1 type  1   force =     4.29824510   -1.00269929  -11.29471944
     atom    2 type  1   force =    -2.08414280    2.14726931   11.40171365
     atom    3 type  2   force =     1.36780421   -4.36406095    7.03523271
     atom    4 type  2   force =    -3.58190650    3.21949093   -7.14222692
     The local contribution  to forces
     atom    1 type  1   force =    -4.65492538    1.12407009   10.69473615
     atom    2 type  1   force =     2.12123562   -2.26404513  -11.08050571
     atom    3 type  2   force =    -1.25883983    3.70325911   -6.33788942
     atom    4 type  2   force =     3.07849154   -2.74170638    6.35276386
     The core correction contribution to forces
     atom    1 type  1   force =    -0.04737312    0.01702199   -0.00777616
     atom    2 type  1   force =     0.01530379   -0.03212568   -0.01047261
     atom    3 type  2   force =    -0.00054499   -0.00416863    0.00601444
     atom    4 type  2   force =    -0.00238000    0.00293625   -0.00588519
     The Hubbard contrib.    to forces
     atom    1 type  1   force =     0.00000000    0.00000000    0.00000000
     atom    2 type  1   force =     0.00000000    0.00000000    0.00000000
     atom    3 type  2   force =     0.00000000    0.00000000    0.00000000
     atom    4 type  2   force =     0.00000000    0.00000000    0.00000000
     The SCF correction term to forces
     atom    1 type  1   force =     0.00000029   -0.00000053   -0.00004738
     atom    2 type  1   force =    -0.00000323    0.00000773    0.00004583
     atom    3 type  2   force =     0.00000121   -0.00000389    0.00002425
     atom    4 type  2   force =    -0.00000646    0.00000579   -0.00002901

     Total force =     0.360341     Total SCF correction =     0.000077

     Writing all to output data dir ./ZnO_ANN.save/

     init_run     :      3.31s CPU      3.41s WALL (       1 calls)
     electrons    :    260.53s CPU    265.34s WALL (       1 calls)
     forces       :      1.04s CPU      1.06s WALL (       1 calls)

     Called by init_run:
     wfcinit      :      2.44s CPU      2.51s WALL (       1 calls)
     potinit      :      0.26s CPU      0.26s WALL (       1 calls)
     hinit0       :      0.53s CPU      0.55s WALL (       1 calls)

     Called by electrons:
     c_bands      :    230.71s CPU    234.84s WALL (      39 calls)
     sum_band     :     27.08s CPU     27.69s WALL (      39 calls)
     v_of_rho     :      0.53s CPU      0.59s WALL (      40 calls)
     newd         :      2.09s CPU      2.12s WALL (      40 calls)
     mix_rho      :      0.10s CPU      0.11s WALL (      39 calls)

     Called by c_bands:
     init_us_2    :      1.80s CPU      1.83s WALL (    8960 calls)
     init_us_2:cp :      1.77s CPU      1.81s WALL (    8960 calls)
     cegterg      :    224.71s CPU    228.73s WALL (    4368 calls)

     Called by *egterg:
     cdiaghg      :     24.33s CPU     24.53s WALL (   22896 calls)
     h_psi        :    134.28s CPU    137.28s WALL (   23008 calls)
     s_psi        :     14.84s CPU     14.98s WALL (   23008 calls)
     g_psi        :      0.42s CPU      0.43s WALL (   18528 calls)

     Called by h_psi:
     h_psi:calbec :     17.50s CPU     18.07s WALL (   23008 calls)
     vloc_psi     :    101.44s CPU    103.74s WALL (   23008 calls)
     add_vuspsi   :     14.90s CPU     15.03s WALL (   23008 calls)

     General routines
     calbec       :     23.81s CPU     24.55s WALL (   27824 calls)
     fft          :      0.71s CPU      0.78s WALL (     529 calls)
     ffts         :      0.09s CPU      0.09s WALL (      79 calls)
     fftw         :    106.80s CPU    109.25s WALL (  546382 calls)
     interpolate  :      0.10s CPU      0.11s WALL (      40 calls)

     Parallel routines

     PWSCF        :   4m25.58s CPU   4m30.66s WALL


   This run was terminated on:  16:40:47  24Jun2025            

=------------------------------------------------------------------------------=
   JOB DONE.
=------------------------------------------------------------------------------=
Note: The following floating-point exceptions are signalling: IEEE_INVALID_FLAG
