
     Program PWSCF v.7.2 starts on 24Jun2025 at 16:17:16 

     This program is part of the open-source Quantum ESPRESSO suite
     for quantum simulation of materials; please cite
         "P. Giannozzi et al., J. Phys.:Condens. Matter 21 395502 (2009);
         "P. Giannozzi et al., J. Phys.:Condens. Matter 29 465901 (2017);
         "P. Giannozzi et al., J. Chem. Phys. 152 154105 (2020);
          URL http://www.quantum-espresso.org", 
     in publications or presentations arising from this work. More details at
     http://www.quantum-espresso.org/quote

     Parallel version (MPI), running on     8 processors

     MPI processes distributed on     1 nodes
     91070 MiB available memory on the printing compute node when the environment starts

     Reading input from /home/jvc/QEspresso7.2/ZnO_DataBase/scf_025_NOSYM.in/scf-6.06-1.52-0.25-2.in

     Current dimensions of program PWSCF are:
     Max number of different atomic species (ntypx) = 10
     Max number of k-points (npk) =  40000
     Max angular momentum in pseudopotentials (lmaxx) =  4
     file Zn.upf: wavefunction(s)  3D renormalized

     R & G space division:  proc/nbgrp/npool/nimage =       8
     Subspace diagonalization in iterative solution of the eigenvalue problem:
     a serial algorithm will be used


     Parallelization info
     --------------------
     sticks:   dense  smooth     PW     G-vecs:    dense   smooth      PW
     Min         126      63     18                 5206     1840     312
     Max         127      65     19                 5211     1843     317
     Sum        1015     511    151                41671    14737    2527

     Using Slab Decomposition



     bravais-lattice index     =            0
     lattice parameter (alat)  =       6.0552  a.u.
     unit-cell volume          =     307.6421 (a.u.)^3
     number of atoms/cell      =            4
     number of atomic types    =            2
     number of electrons       =        36.00
     number of Kohn-Sham states=           18
     kinetic-energy cutoff     =      50.0000  Ry
     charge density cutoff     =     400.0000  Ry
     scf convergence threshold =      1.0E-08
     mixing beta               =       0.3000
     number of iterations used =            8  plain     mixing
     Exchange-correlation= PBE
                           (   1   4   3   4   0   0   0)

     celldm(1)=   6.055245  celldm(2)=   0.000000  celldm(3)=   0.000000
     celldm(4)=   0.000000  celldm(5)=   0.000000  celldm(6)=   0.000000

     crystal axes: (cart. coord. in units of alat)
               a(1) = (   1.000000   0.000000   0.000000 )  
               a(2) = (  -0.500000   0.866025   0.000000 )  
               a(3) = (   0.000000   0.000000   1.600000 )  

     reciprocal axes: (cart. coord. in units 2 pi/alat)
               b(1) = (  1.000000  0.577350 -0.000000 )  
               b(2) = (  0.000000  1.154701  0.000000 )  
               b(3) = (  0.000000 -0.000000  0.625000 )  


     PseudoPot. # 1 for Zn read from file:
     ./pseudos/Zn.upf
     MD5 check sum: 7f56cabf9682ed8c977c2f7d0c5985c5
     Pseudo is Ultrasoft + core correction, Zval = 12.0
     Generated using &quot;atomic&quot; code by A. Dal Corso  v.6.2.2
     Using radial grid of 1201 points,  6 beta functions with: 
                l(1) =   0
                l(2) =   0
                l(3) =   1
                l(4) =   1
                l(5) =   2
                l(6) =   2
     Q(r) pseudized with 0 coefficients 


     PseudoPot. # 2 for O  read from file:
     ./pseudos/O.upf
     MD5 check sum: 91400c9766925bcf19f520983a725ff0
     Pseudo is Ultrasoft + core correction, Zval =  6.0
     Generated using &quot;atomic&quot; code by A. Dal Corso  v.6.3MaX
     Using radial grid of 1095 points,  4 beta functions with: 
                l(1) =   0
                l(2) =   0
                l(3) =   1
                l(4) =   1
     Q(r) pseudized with 0 coefficients 


     atomic species   valence    mass     pseudopotential
        Zn            12.00    63.38000     Zn( 1.00)
        O              6.00    15.99900     O ( 1.00)

     No symmetry found



   Cartesian axes

     site n.     atom                  positions (alat units)
         1           Zn  tau(   1) = (   0.5268514   0.2362464   0.7424539  )
         2           Zn  tau(   2) = (   0.0185400   0.3730326  -0.0314396  )
         3           O   tau(   3) = (   0.3016638   0.4530804   1.5249502  )
         4           O   tau(   4) = (  -0.1686389   0.5753091   0.3300776  )

     number of k points=   112

     Number of k-points >= 100: set verbosity='high' to print them.

     Dense  grid:    41671 G-vectors     FFT dimensions: (  40,  40,  64)

     Smooth grid:    14737 G-vectors     FFT dimensions: (  27,  27,  45)

     Estimated max dynamical RAM per process >      28.83 MB

     Estimated total dynamical RAM >     230.62 MB

     Check: negative core charge=   -0.000002

     Initial potential from superposition of free atoms

     starting charge      35.9925, renormalised to      36.0000
     Starting wfcs are   26 randomized atomic wfcs

     total cpu time spent up to now is        3.9 secs

     Self-consistent Calculation

     iteration #  1     ecut=    50.00 Ry     beta= 0.30
     Davidson diagonalization with overlap
     ethr =  1.00E-02,  avg # of iterations =  4.2

     total cpu time spent up to now is       10.4 secs

     total energy              =    -357.25588738 Ry
     estimated scf accuracy    <       1.23353350 Ry

     iteration #  2     ecut=    50.00 Ry     beta= 0.30
     Davidson diagonalization with overlap
     ethr =  3.43E-03,  avg # of iterations =  2.8

     total cpu time spent up to now is       16.2 secs

     total energy              =    -357.26326633 Ry
     estimated scf accuracy    <       0.28624974 Ry

     iteration #  3     ecut=    50.00 Ry     beta= 0.30
     Davidson diagonalization with overlap
     ethr =  7.95E-04,  avg # of iterations =  8.1

     total cpu time spent up to now is       27.5 secs

     total energy              =    -357.49151276 Ry
     estimated scf accuracy    <       0.38583352 Ry

     iteration #  4     ecut=    50.00 Ry     beta= 0.30
     Davidson diagonalization with overlap
     ethr =  7.95E-04,  avg # of iterations =  1.9

     total cpu time spent up to now is       32.4 secs

     total energy              =    -357.37460410 Ry
     estimated scf accuracy    <       0.16142691 Ry

     iteration #  5     ecut=    50.00 Ry     beta= 0.30
     Davidson diagonalization with overlap
     c_bands:  1 eigenvalues not converged
     c_bands:  1 eigenvalues not converged
     c_bands:  1 eigenvalues not converged
     ethr =  4.48E-04,  avg # of iterations = 12.5

     total cpu time spent up to now is       47.8 secs

     total energy              =    -357.62005537 Ry
     estimated scf accuracy    <       1.30995624 Ry

     iteration #  6     ecut=    50.00 Ry     beta= 0.30
     Davidson diagonalization with overlap
     ethr =  4.48E-04,  avg # of iterations =  2.6

     total cpu time spent up to now is       53.2 secs

     total energy              =    -357.39295629 Ry
     estimated scf accuracy    <       0.82629750 Ry

     iteration #  7     ecut=    50.00 Ry     beta= 0.30
     Davidson diagonalization with overlap
     ethr =  4.48E-04,  avg # of iterations =  7.9

     total cpu time spent up to now is       62.9 secs

     total energy              =    -357.51532559 Ry
     estimated scf accuracy    <       0.03589555 Ry

     iteration #  8     ecut=    50.00 Ry     beta= 0.30
     Davidson diagonalization with overlap
     ethr =  9.97E-05,  avg # of iterations =  4.0

     total cpu time spent up to now is       68.5 secs

     total energy              =    -357.54677846 Ry
     estimated scf accuracy    <       0.02385496 Ry

     iteration #  9     ecut=    50.00 Ry     beta= 0.30
     Davidson diagonalization with overlap
     ethr =  6.63E-05,  avg # of iterations =  9.5

     total cpu time spent up to now is       78.1 secs

     total energy              =    -357.51204458 Ry
     estimated scf accuracy    <       0.23143739 Ry

     iteration # 10     ecut=    50.00 Ry     beta= 0.30
     Davidson diagonalization with overlap
     ethr =  6.63E-05,  avg # of iterations =  7.3

     total cpu time spent up to now is       86.3 secs

     total energy              =    -357.50712371 Ry
     estimated scf accuracy    <       0.05491871 Ry

     iteration # 11     ecut=    50.00 Ry     beta= 0.30
     Davidson diagonalization with overlap
     ethr =  6.63E-05,  avg # of iterations =  7.2

     total cpu time spent up to now is       93.8 secs

     total energy              =    -357.51684260 Ry
     estimated scf accuracy    <       0.00038948 Ry

     iteration # 12     ecut=    50.00 Ry     beta= 0.30
     Davidson diagonalization with overlap
     c_bands:  1 eigenvalues not converged
     c_bands:  1 eigenvalues not converged
     c_bands:  1 eigenvalues not converged
     c_bands:  1 eigenvalues not converged
     c_bands:  1 eigenvalues not converged
     c_bands:  1 eigenvalues not converged
     c_bands:  1 eigenvalues not converged
     c_bands:  1 eigenvalues not converged
     c_bands:  1 eigenvalues not converged
     c_bands:  1 eigenvalues not converged
     c_bands:  1 eigenvalues not converged
     c_bands:  1 eigenvalues not converged
     c_bands:  1 eigenvalues not converged
     ethr =  1.08E-06,  avg # of iterations = 11.8

     total cpu time spent up to now is      107.0 secs

     total energy              =    -357.51832744 Ry
     estimated scf accuracy    <       0.00048364 Ry

     iteration # 13     ecut=    50.00 Ry     beta= 0.30
     Davidson diagonalization with overlap
     ethr =  1.08E-06,  avg # of iterations =  2.9

     total cpu time spent up to now is      112.3 secs

     total energy              =    -357.51786451 Ry
     estimated scf accuracy    <       0.00091305 Ry

     iteration # 14     ecut=    50.00 Ry     beta= 0.30
     Davidson diagonalization with overlap
     c_bands:  1 eigenvalues not converged
     c_bands:  1 eigenvalues not converged
     ethr =  1.08E-06,  avg # of iterations = 11.9

     total cpu time spent up to now is      123.1 secs

     total energy              =    -357.51832928 Ry
     estimated scf accuracy    <       0.00088594 Ry

     iteration # 15     ecut=    50.00 Ry     beta= 0.30
     Davidson diagonalization with overlap
     ethr =  1.08E-06,  avg # of iterations =  2.3

     total cpu time spent up to now is      128.1 secs

     total energy              =    -357.51802119 Ry
     estimated scf accuracy    <       0.00109123 Ry

     iteration # 16     ecut=    50.00 Ry     beta= 0.30
     Davidson diagonalization with overlap
     ethr =  1.08E-06,  avg # of iterations =  5.6

     total cpu time spent up to now is      134.2 secs

     total energy              =    -357.51809395 Ry
     estimated scf accuracy    <       0.00014820 Ry

     iteration # 17     ecut=    50.00 Ry     beta= 0.30
     Davidson diagonalization with overlap
     ethr =  4.12E-07,  avg # of iterations =  5.1

     total cpu time spent up to now is      140.5 secs

     total energy              =    -357.51813304 Ry
     estimated scf accuracy    <       0.00003722 Ry

     iteration # 18     ecut=    50.00 Ry     beta= 0.30
     Davidson diagonalization with overlap
     ethr =  1.03E-07,  avg # of iterations =  3.3

     total cpu time spent up to now is      146.0 secs

     total energy              =    -357.51815996 Ry
     estimated scf accuracy    <       0.00003247 Ry

     iteration # 19     ecut=    50.00 Ry     beta= 0.30
     Davidson diagonalization with overlap
     c_bands:  1 eigenvalues not converged
     c_bands:  1 eigenvalues not converged
     c_bands:  1 eigenvalues not converged
     c_bands:  1 eigenvalues not converged
     ethr =  9.02E-08,  avg # of iterations = 11.7

     total cpu time spent up to now is      157.9 secs

     total energy              =    -357.51818292 Ry
     estimated scf accuracy    <       0.00042798 Ry

     iteration # 20     ecut=    50.00 Ry     beta= 0.30
     Davidson diagonalization with overlap
     ethr =  9.02E-08,  avg # of iterations =  2.9

     total cpu time spent up to now is      162.8 secs

     total energy              =    -357.51813026 Ry
     estimated scf accuracy    <       0.00034576 Ry

     iteration # 21     ecut=    50.00 Ry     beta= 0.30
     Davidson diagonalization with overlap
     c_bands:  1 eigenvalues not converged
     ethr =  9.02E-08,  avg # of iterations =  8.2

     total cpu time spent up to now is      170.1 secs

     total energy              =    -357.51813974 Ry
     estimated scf accuracy    <       0.00008448 Ry

     iteration # 22     ecut=    50.00 Ry     beta= 0.30
     Davidson diagonalization with overlap
     ethr =  9.02E-08,  avg # of iterations =  1.5

     total cpu time spent up to now is      174.6 secs

     total energy              =    -357.51813722 Ry
     estimated scf accuracy    <       0.00006383 Ry

     iteration # 23     ecut=    50.00 Ry     beta= 0.30
     Davidson diagonalization with overlap
     ethr =  9.02E-08,  avg # of iterations =  1.3

     total cpu time spent up to now is      179.0 secs

     total energy              =    -357.51813160 Ry
     estimated scf accuracy    <       0.00004793 Ry

     iteration # 24     ecut=    50.00 Ry     beta= 0.30
     Davidson diagonalization with overlap
     ethr =  9.02E-08,  avg # of iterations =  2.3

     total cpu time spent up to now is      184.0 secs

     total energy              =    -357.51812918 Ry
     estimated scf accuracy    <       0.00002624 Ry

     iteration # 25     ecut=    50.00 Ry     beta= 0.30
     Davidson diagonalization with overlap
     ethr =  7.29E-08,  avg # of iterations =  4.9

     total cpu time spent up to now is      189.8 secs

     total energy              =    -357.51813262 Ry
     estimated scf accuracy    <       0.00000270 Ry

     iteration # 26     ecut=    50.00 Ry     beta= 0.30
     Davidson diagonalization with overlap
     c_bands:  1 eigenvalues not converged
     c_bands:  1 eigenvalues not converged
     c_bands:  1 eigenvalues not converged
     ethr =  7.50E-09,  avg # of iterations = 12.6

     total cpu time spent up to now is      201.4 secs

     total energy              =    -357.51813556 Ry
     estimated scf accuracy    <       0.00000708 Ry

     iteration # 27     ecut=    50.00 Ry     beta= 0.30
     Davidson diagonalization with overlap
     ethr =  7.50E-09,  avg # of iterations =  2.1

     total cpu time spent up to now is      206.3 secs

     total energy              =    -357.51813502 Ry
     estimated scf accuracy    <       0.00000432 Ry

     iteration # 28     ecut=    50.00 Ry     beta= 0.30
     Davidson diagonalization with overlap
     ethr =  7.50E-09,  avg # of iterations =  5.5

     total cpu time spent up to now is      212.4 secs

     total energy              =    -357.51813552 Ry
     estimated scf accuracy    <       0.00000071 Ry

     iteration # 29     ecut=    50.00 Ry     beta= 0.30
     Davidson diagonalization with overlap
     ethr =  1.96E-09,  avg # of iterations =  5.5

     total cpu time spent up to now is      218.3 secs

     total energy              =    -357.51813562 Ry
     estimated scf accuracy    <       0.00000046 Ry

     iteration # 30     ecut=    50.00 Ry     beta= 0.30
     Davidson diagonalization with overlap
     ethr =  1.29E-09,  avg # of iterations =  1.8

     total cpu time spent up to now is      223.1 secs

     total energy              =    -357.51813570 Ry
     estimated scf accuracy    <       0.00000039 Ry

     iteration # 31     ecut=    50.00 Ry     beta= 0.30
     Davidson diagonalization with overlap
     ethr =  1.09E-09,  avg # of iterations =  3.8

     total cpu time spent up to now is      228.4 secs

     total energy              =    -357.51813548 Ry
     estimated scf accuracy    <       0.00000076 Ry

     iteration # 32     ecut=    50.00 Ry     beta= 0.30
     Davidson diagonalization with overlap
     ethr =  1.09E-09,  avg # of iterations =  7.4

     total cpu time spent up to now is      235.1 secs

     total energy              =    -357.51813559 Ry
     estimated scf accuracy    <       0.00000010 Ry

     iteration # 33     ecut=    50.00 Ry     beta= 0.30
     Davidson diagonalization with overlap
     ethr =  2.74E-10,  avg # of iterations =  8.6

     total cpu time spent up to now is      244.9 secs

     total energy              =    -357.51813571 Ry
     estimated scf accuracy    <       0.00000037 Ry

     iteration # 34     ecut=    50.00 Ry     beta= 0.30
     Davidson diagonalization with overlap
     ethr =  2.74E-10,  avg # of iterations =  7.2

     total cpu time spent up to now is      251.5 secs

     total energy              =    -357.51813563 Ry
     estimated scf accuracy    <       0.00000085 Ry

     iteration # 35     ecut=    50.00 Ry     beta= 0.30
     Davidson diagonalization with overlap
     ethr =  2.74E-10,  avg # of iterations =  4.6

     total cpu time spent up to now is      257.1 secs

     total energy              =    -357.51813557 Ry
     estimated scf accuracy    <       0.00000049 Ry

     iteration # 36     ecut=    50.00 Ry     beta= 0.30
     Davidson diagonalization with overlap
     ethr =  2.74E-10,  avg # of iterations =  7.3

     total cpu time spent up to now is      263.7 secs

     total energy              =    -357.51813557 Ry
     estimated scf accuracy    <       0.00000012 Ry

     iteration # 37     ecut=    50.00 Ry     beta= 0.30
     Davidson diagonalization with overlap
     ethr =  2.74E-10,  avg # of iterations =  4.1

     total cpu time spent up to now is      269.5 secs

     total energy              =    -357.51813558 Ry
     estimated scf accuracy    <       0.00000002 Ry

     iteration # 38     ecut=    50.00 Ry     beta= 0.30
     Davidson diagonalization with overlap
     c_bands:  1 eigenvalues not converged
     c_bands:  1 eigenvalues not converged
     c_bands:  1 eigenvalues not converged
     ethr =  5.46E-11,  avg # of iterations = 12.0

     total cpu time spent up to now is      280.1 secs

     total energy              =    -357.51813559 Ry
     estimated scf accuracy    <       0.00000004 Ry

     iteration # 39     ecut=    50.00 Ry     beta= 0.30
     Davidson diagonalization with overlap
     ethr =  5.46E-11,  avg # of iterations =  6.3

     total cpu time spent up to now is      286.2 secs

     End of self-consistent calculation

     Number of k-points >= 100: set verbosity='high' to print the bands.

     highest occupied level (ev):    10.5145

!    total energy              =    -357.51813559 Ry
     estimated scf accuracy    <          4.3E-09 Ry

     The total energy is the sum of the following terms:
     one-electron contribution =    -197.74190009 Ry
     hartree contribution      =     138.36048210 Ry
     xc contribution           =    -110.68665673 Ry
     ewald contribution        =    -187.45006087 Ry

     convergence has been achieved in  39 iterations

     Forces acting on atoms (cartesian axes, Ry/au):

     atom    1 type  1   force =    -0.00086344   -0.01277547    0.02169794
     atom    2 type  1   force =    -9.20215260   -2.95253669    0.86899011
     atom    3 type  2   force =     9.49922503    2.62452995   -1.60536438
     atom    4 type  2   force =    -0.29620899    0.34078221    0.71467634
     The non-local contrib.  to forces
     atom    1 type  1   force =    -0.15011330   -0.16324236    0.00364805
     atom    2 type  1   force =     1.72505055    0.39580905   -0.38917283
     atom    3 type  2   force =    -0.74957118   -0.39040195   -0.24339177
     atom    4 type  2   force =     0.18821847   -0.49348529   -0.23840175
     The ionic contribution  to forces
     atom    1 type  1   force =    -0.87181484   -1.44255858   12.14905998
     atom    2 type  1   force =   -30.72903863  -15.30552451  -11.96277118
     atom    3 type  2   force =    35.68439435   10.26015351  -11.92567147
     atom    4 type  2   force =    -4.08354089    6.48792958   11.73938267
     The local contribution  to forces
     atom    1 type  1   force =     1.01065368    1.58388623  -12.11574765
     atom    2 type  1   force =    19.34370457   11.77443782   13.22287288
     atom    3 type  2   force =   -25.41524245   -7.24139291   10.55644375
     atom    4 type  2   force =     3.59847610   -5.65547117  -10.78429761
     The core correction contribution to forces
     atom    1 type  1   force =     0.01046601    0.00914050   -0.01524285
     atom    2 type  1   force =     0.45792660    0.18266428   -0.00195273
     atom    3 type  2   force =    -0.02029102   -0.00380867    0.00720870
     atom    4 type  2   force =     0.00066439    0.00184244   -0.00188951
     The Hubbard contrib.    to forces
     atom    1 type  1   force =     0.00000000    0.00000000    0.00000000
     atom    2 type  1   force =     0.00000000    0.00000000    0.00000000
     atom    3 type  2   force =     0.00000000    0.00000000    0.00000000
     atom    4 type  2   force =     0.00000000    0.00000000    0.00000000
     The SCF correction term to forces
     atom    1 type  1   force =    -0.00000801    0.00001777   -0.00002298
     atom    2 type  1   force =     0.00025129    0.00009570    0.00001058
     atom    3 type  2   force =    -0.00001769   -0.00000102    0.00004302
     atom    4 type  2   force =     0.00001991   -0.00001432   -0.00012085

     Total force =    13.948768     Total SCF correction =     0.000301

     Writing all to output data dir ./ZnO_ANN.save/

     init_run     :      3.39s CPU      3.48s WALL (       1 calls)
     electrons    :    277.14s CPU    282.31s WALL (       1 calls)
     forces       :      1.07s CPU      1.08s WALL (       1 calls)

     Called by init_run:
     wfcinit      :      2.46s CPU      2.53s WALL (       1 calls)
     potinit      :      0.25s CPU      0.26s WALL (       1 calls)
     hinit0       :      0.59s CPU      0.60s WALL (       1 calls)

     Called by electrons:
     c_bands      :    247.37s CPU    251.81s WALL (      39 calls)
     sum_band     :     27.00s CPU     27.67s WALL (      39 calls)
     v_of_rho     :      0.56s CPU      0.60s WALL (      40 calls)
     newd         :      2.10s CPU      2.12s WALL (      40 calls)
     mix_rho      :      0.10s CPU      0.11s WALL (      39 calls)

     Called by c_bands:
     init_us_2    :      1.76s CPU      1.79s WALL (    8960 calls)
     init_us_2:cp :      1.73s CPU      1.77s WALL (    8960 calls)
     cegterg      :    241.44s CPU    245.79s WALL (    4368 calls)

     Called by *egterg:
     cdiaghg      :     31.78s CPU     32.11s WALL (   30394 calls)
     h_psi        :    138.40s CPU    141.55s WALL (   30506 calls)
     s_psi        :     15.09s CPU     15.24s WALL (   30506 calls)
     g_psi        :      0.45s CPU      0.46s WALL (   26026 calls)

     Called by h_psi:
     h_psi:calbec :     18.25s CPU     18.87s WALL (   30506 calls)
     vloc_psi     :    104.55s CPU    106.93s WALL (   30506 calls)
     add_vuspsi   :     15.08s CPU     15.24s WALL (   30506 calls)

     General routines
     calbec       :     24.52s CPU     25.32s WALL (   35322 calls)
     fft          :      0.82s CPU      0.87s WALL (     529 calls)
     ffts         :      0.09s CPU      0.09s WALL (      79 calls)
     fftw         :    109.60s CPU    112.14s WALL (  560426 calls)
     interpolate  :      0.10s CPU      0.11s WALL (      40 calls)

     Parallel routines

     PWSCF        :   4m42.34s CPU   4m47.77s WALL


   This run was terminated on:  16:22: 3  24Jun2025            

=------------------------------------------------------------------------------=
   JOB DONE.
=------------------------------------------------------------------------------=
Note: The following floating-point exceptions are signalling: IEEE_INVALID_FLAG
