
     Program PWSCF v.7.2 starts on 24Jun2025 at 15:24: 2 

     This program is part of the open-source Quantum ESPRESSO suite
     for quantum simulation of materials; please cite
         "P. Giannozzi et al., J. Phys.:Condens. Matter 21 395502 (2009);
         "P. Giannozzi et al., J. Phys.:Condens. Matter 29 465901 (2017);
         "P. Giannozzi et al., J. Chem. Phys. 152 154105 (2020);
          URL http://www.quantum-espresso.org", 
     in publications or presentations arising from this work. More details at
     http://www.quantum-espresso.org/quote

     Parallel version (MPI), running on     8 processors

     MPI processes distributed on     1 nodes
     91226 MiB available memory on the printing compute node when the environment starts

     Reading input from /home/jvc/QEspresso7.2/ZnO_DataBase/scf_025_NOSYM.in/scf-5.81-1.61-0.25-1.in

     Current dimensions of program PWSCF are:
     Max number of different atomic species (ntypx) = 10
     Max number of k-points (npk) =  40000
     Max angular momentum in pseudopotentials (lmaxx) =  4
     file Zn.upf: wavefunction(s)  3D renormalized

     R & G space division:  proc/nbgrp/npool/nimage =       8
     Subspace diagonalization in iterative solution of the eigenvalue problem:
     a serial algorithm will be used


     Parallelization info
     --------------------
     sticks:   dense  smooth     PW     G-vecs:    dense   smooth      PW
     Min         116      57     18                 4582     1619     281
     Max         117      58     20                 4585     1622     284
     Sum         931     463    151                36665    12971    2261

     Using Slab Decomposition



     bravais-lattice index     =            0
     lattice parameter (alat)  =       5.8081  a.u.
     unit-cell volume          =     271.4883 (a.u.)^3
     number of atoms/cell      =            4
     number of atomic types    =            2
     number of electrons       =        36.00
     number of Kohn-Sham states=           18
     kinetic-energy cutoff     =      50.0000  Ry
     charge density cutoff     =     400.0000  Ry
     scf convergence threshold =      1.0E-08
     mixing beta               =       0.3000
     number of iterations used =            8  plain     mixing
     Exchange-correlation= PBE
                           (   1   4   3   4   0   0   0)

     celldm(1)=   5.808092  celldm(2)=   0.000000  celldm(3)=   0.000000
     celldm(4)=   0.000000  celldm(5)=   0.000000  celldm(6)=   0.000000

     crystal axes: (cart. coord. in units of alat)
               a(1) = (   1.000000   0.000000   0.000000 )  
               a(2) = (  -0.500000   0.866025   0.000000 )  
               a(3) = (   0.000000   0.000000   1.600000 )  

     reciprocal axes: (cart. coord. in units 2 pi/alat)
               b(1) = (  1.000000  0.577350 -0.000000 )  
               b(2) = (  0.000000  1.154701  0.000000 )  
               b(3) = (  0.000000 -0.000000  0.625000 )  


     PseudoPot. # 1 for Zn read from file:
     ./pseudos/Zn.upf
     MD5 check sum: 7f56cabf9682ed8c977c2f7d0c5985c5
     Pseudo is Ultrasoft + core correction, Zval = 12.0
     Generated using &quot;atomic&quot; code by A. Dal Corso  v.6.2.2
     Using radial grid of 1201 points,  6 beta functions with: 
                l(1) =   0
                l(2) =   0
                l(3) =   1
                l(4) =   1
                l(5) =   2
                l(6) =   2
     Q(r) pseudized with 0 coefficients 


     PseudoPot. # 2 for O  read from file:
     ./pseudos/O.upf
     MD5 check sum: 91400c9766925bcf19f520983a725ff0
     Pseudo is Ultrasoft + core correction, Zval =  6.0
     Generated using &quot;atomic&quot; code by A. Dal Corso  v.6.3MaX
     Using radial grid of 1095 points,  4 beta functions with: 
                l(1) =   0
                l(2) =   0
                l(3) =   1
                l(4) =   1
     Q(r) pseudized with 0 coefficients 


     atomic species   valence    mass     pseudopotential
        Zn            12.00    63.38000     Zn( 1.00)
        O              6.00    15.99900     O ( 1.00)

     No symmetry found



   Cartesian axes

     site n.     atom                  positions (alat units)
         1           Zn  tau(   1) = (   0.5430818   0.4126641   0.7686028  )
         2           Zn  tau(   2) = (   0.1758944   0.3961476  -0.2146560  )
         3           O   tau(   3) = (   0.8257878   0.0876611   1.8027406  )
         4           O   tau(   4) = (  -0.1652773   0.7928303   0.6106366  )

     number of k points=   112

     Number of k-points >= 100: set verbosity='high' to print them.

     Dense  grid:    36665 G-vectors     FFT dimensions: (  40,  40,  60)

     Smooth grid:    12971 G-vectors     FFT dimensions: (  27,  27,  45)

     Estimated max dynamical RAM per process >      25.88 MB

     Estimated total dynamical RAM >     207.00 MB

     Check: negative core charge=   -0.000002

     Initial potential from superposition of free atoms

     starting charge      35.9925, renormalised to      36.0000
     Starting wfcs are   26 randomized atomic wfcs

     total cpu time spent up to now is        3.8 secs

     Self-consistent Calculation

     iteration #  1     ecut=    50.00 Ry     beta= 0.30
     Davidson diagonalization with overlap
     ethr =  1.00E-02,  avg # of iterations =  2.0

     total cpu time spent up to now is        8.6 secs

     total energy              =    -360.74654052 Ry
     estimated scf accuracy    <       1.10630086 Ry

     iteration #  2     ecut=    50.00 Ry     beta= 0.30
     Davidson diagonalization with overlap
     ethr =  3.07E-03,  avg # of iterations =  5.1

     total cpu time spent up to now is       15.1 secs

     total energy              =    -361.06909282 Ry
     estimated scf accuracy    <       0.08110411 Ry

     iteration #  3     ecut=    50.00 Ry     beta= 0.30
     Davidson diagonalization with overlap
     ethr =  2.25E-04,  avg # of iterations =  5.7

     total cpu time spent up to now is       22.9 secs

     total energy              =    -361.08046280 Ry
     estimated scf accuracy    <       0.05879821 Ry

     iteration #  4     ecut=    50.00 Ry     beta= 0.30
     Davidson diagonalization with overlap
     ethr =  1.63E-04,  avg # of iterations =  5.7

     total cpu time spent up to now is       29.9 secs

     total energy              =    -361.09610993 Ry
     estimated scf accuracy    <       0.01484093 Ry

     iteration #  5     ecut=    50.00 Ry     beta= 0.30
     Davidson diagonalization with overlap
     ethr =  4.12E-05,  avg # of iterations =  5.8

     total cpu time spent up to now is       36.7 secs

     total energy              =    -361.10025100 Ry
     estimated scf accuracy    <       0.00172738 Ry

     iteration #  6     ecut=    50.00 Ry     beta= 0.30
     Davidson diagonalization with overlap
     c_bands:  1 eigenvalues not converged
     ethr =  4.80E-06,  avg # of iterations =  7.6

     total cpu time spent up to now is       45.3 secs

     total energy              =    -361.10115074 Ry
     estimated scf accuracy    <       0.00062987 Ry

     iteration #  7     ecut=    50.00 Ry     beta= 0.30
     Davidson diagonalization with overlap
     ethr =  1.75E-06,  avg # of iterations =  6.2

     total cpu time spent up to now is       52.7 secs

     total energy              =    -361.10140960 Ry
     estimated scf accuracy    <       0.00014944 Ry

     iteration #  8     ecut=    50.00 Ry     beta= 0.30
     Davidson diagonalization with overlap
     ethr =  4.15E-07,  avg # of iterations =  5.1

     total cpu time spent up to now is       58.8 secs

     total energy              =    -361.10131566 Ry
     estimated scf accuracy    <       0.00026411 Ry

     iteration #  9     ecut=    50.00 Ry     beta= 0.30
     Davidson diagonalization with overlap
     c_bands:  1 eigenvalues not converged
     ethr =  4.15E-07,  avg # of iterations =  6.4

     total cpu time spent up to now is       66.8 secs

     total energy              =    -361.10139522 Ry
     estimated scf accuracy    <       0.00006640 Ry

     iteration # 10     ecut=    50.00 Ry     beta= 0.30
     Davidson diagonalization with overlap
     ethr =  1.84E-07,  avg # of iterations =  2.4

     total cpu time spent up to now is       71.5 secs

     total energy              =    -361.10137129 Ry
     estimated scf accuracy    <       0.00004507 Ry

     iteration # 11     ecut=    50.00 Ry     beta= 0.30
     Davidson diagonalization with overlap
     ethr =  1.25E-07,  avg # of iterations =  6.6

     total cpu time spent up to now is       80.1 secs

     total energy              =    -361.10139398 Ry
     estimated scf accuracy    <       0.00003816 Ry

     iteration # 12     ecut=    50.00 Ry     beta= 0.30
     Davidson diagonalization with overlap
     ethr =  1.06E-07,  avg # of iterations =  1.3

     total cpu time spent up to now is       84.5 secs

     total energy              =    -361.10138591 Ry
     estimated scf accuracy    <       0.00001872 Ry

     iteration # 13     ecut=    50.00 Ry     beta= 0.30
     Davidson diagonalization with overlap
     ethr =  5.20E-08,  avg # of iterations =  6.0

     total cpu time spent up to now is       92.5 secs

     total energy              =    -361.10139529 Ry
     estimated scf accuracy    <       0.00000723 Ry

     iteration # 14     ecut=    50.00 Ry     beta= 0.30
     Davidson diagonalization with overlap
     ethr =  2.01E-08,  avg # of iterations =  2.2

     total cpu time spent up to now is       97.2 secs

     total energy              =    -361.10139416 Ry
     estimated scf accuracy    <       0.00000444 Ry

     iteration # 15     ecut=    50.00 Ry     beta= 0.30
     Davidson diagonalization with overlap
     ethr =  1.23E-08,  avg # of iterations =  4.0

     total cpu time spent up to now is      103.0 secs

     total energy              =    -361.10139475 Ry
     estimated scf accuracy    <       0.00000041 Ry

     iteration # 16     ecut=    50.00 Ry     beta= 0.30
     Davidson diagonalization with overlap
     c_bands:  1 eigenvalues not converged
     c_bands:  1 eigenvalues not converged
     c_bands:  1 eigenvalues not converged
     ethr =  1.14E-09,  avg # of iterations = 10.8

     total cpu time spent up to now is      115.4 secs

     total energy              =    -361.10139545 Ry
     estimated scf accuracy    <       0.00000181 Ry

     iteration # 17     ecut=    50.00 Ry     beta= 0.30
     Davidson diagonalization with overlap
     ethr =  1.14E-09,  avg # of iterations =  1.8

     total cpu time spent up to now is      119.9 secs

     total energy              =    -361.10139516 Ry
     estimated scf accuracy    <       0.00000122 Ry

     iteration # 18     ecut=    50.00 Ry     beta= 0.30
     Davidson diagonalization with overlap
     ethr =  1.14E-09,  avg # of iterations =  5.7

     total cpu time spent up to now is      127.3 secs

     total energy              =    -361.10139532 Ry
     estimated scf accuracy    <       0.00000006 Ry

     iteration # 19     ecut=    50.00 Ry     beta= 0.30
     Davidson diagonalization with overlap
     ethr =  1.53E-10,  avg # of iterations =  7.6

     total cpu time spent up to now is      135.4 secs

     End of self-consistent calculation

     Number of k-points >= 100: set verbosity='high' to print the bands.

     highest occupied level (ev):    10.5643

!    total energy              =    -361.10139535 Ry
     estimated scf accuracy    <          7.0E-09 Ry

     The total energy is the sum of the following terms:
     one-electron contribution =    -126.99851533 Ry
     hartree contribution      =     107.09384709 Ry
     xc contribution           =    -109.57218884 Ry
     ewald contribution        =    -231.62453828 Ry

     convergence has been achieved in  19 iterations

     Forces acting on atoms (cartesian axes, Ry/au):

     atom    1 type  1   force =    -0.13544922   -0.18054788    0.03873313
     atom    2 type  1   force =    -0.01572394    0.01918990    0.13730784
     atom    3 type  2   force =    -0.01273141    0.00368601   -0.21720905
     atom    4 type  2   force =     0.16390458    0.15767197    0.04116809
     The non-local contrib.  to forces
     atom    1 type  1   force =    -0.24835943   -0.14447694    0.36940106
     atom    2 type  1   force =     0.16313475    0.12962335   -0.50786703
     atom    3 type  2   force =     0.06156851    0.19839239   -0.94214778
     atom    4 type  2   force =    -0.21079332   -0.00413036    1.14183659
     The ionic contribution  to forces
     atom    1 type  1   force =    -1.28509648   -0.82683339    4.18117739
     atom    2 type  1   force =    -0.39153246    0.68446044    2.85288003
     atom    3 type  2   force =    -0.70324970   -0.80352300   -2.27826628
     atom    4 type  2   force =     2.37987864    0.94589594   -4.75579114
     The local contribution  to forces
     atom    1 type  1   force =     1.36579066    0.77383322   -4.46776950
     atom    2 type  1   force =     0.22163714   -0.78736757   -2.22977198
     atom    3 type  2   force =     0.62926111    0.61059777    2.99351977
     atom    4 type  2   force =    -2.00610107   -0.78331363    3.66473065
     The core correction contribution to forces
     atom    1 type  1   force =     0.03226330    0.01694059   -0.04433977
     atom    2 type  1   force =    -0.00898403   -0.00753189    0.02219013
     atom    3 type  2   force =    -0.00031732   -0.00179205    0.00984617
     atom    4 type  2   force =     0.00091593   -0.00078166   -0.00963576
     The Hubbard contrib.    to forces
     atom    1 type  1   force =     0.00000000    0.00000000    0.00000000
     atom    2 type  1   force =     0.00000000    0.00000000    0.00000000
     atom    3 type  2   force =     0.00000000    0.00000000    0.00000000
     atom    4 type  2   force =     0.00000000    0.00000000    0.00000000
     The SCF correction term to forces
     atom    1 type  1   force =    -0.00005078   -0.00001021    0.00028084
     atom    2 type  1   force =     0.00001715    0.00000673   -0.00010641
     atom    3 type  2   force =     0.00000249    0.00001206   -0.00014403
     atom    4 type  2   force =     0.00000089    0.00000283    0.00004464

     Total force =     0.415558     Total SCF correction =     0.000341

     Writing all to output data dir ./ZnO_ANN.save/

     init_run     :      3.27s CPU      3.36s WALL (       1 calls)
     electrons    :    129.02s CPU    131.55s WALL (       1 calls)
     forces       :      0.96s CPU      0.97s WALL (       1 calls)

     Called by init_run:
     wfcinit      :      2.36s CPU      2.42s WALL (       1 calls)
     potinit      :      0.22s CPU      0.23s WALL (       1 calls)
     hinit0       :      0.61s CPU      0.63s WALL (       1 calls)

     Called by electrons:
     c_bands      :    115.03s CPU    117.20s WALL (      19 calls)
     sum_band     :     12.79s CPU     13.11s WALL (      19 calls)
     v_of_rho     :      0.27s CPU      0.29s WALL (      20 calls)
     newd         :      0.92s CPU      0.94s WALL (      20 calls)
     mix_rho      :      0.04s CPU      0.05s WALL (      19 calls)

     Called by c_bands:
     init_us_2    :      0.83s CPU      0.85s WALL (    4480 calls)
     init_us_2:cp :      0.82s CPU      0.83s WALL (    4480 calls)
     cegterg      :    112.52s CPU    114.65s WALL (    2128 calls)

     Called by *egterg:
     cdiaghg      :     14.58s CPU     14.72s WALL (   13117 calls)
     h_psi        :     68.91s CPU     70.53s WALL (   13229 calls)
     s_psi        :      7.61s CPU      7.69s WALL (   13229 calls)
     g_psi        :      0.20s CPU      0.20s WALL (   10989 calls)

     Called by h_psi:
     h_psi:calbec :      8.10s CPU      8.41s WALL (   13229 calls)
     vloc_psi     :     52.98s CPU     54.20s WALL (   13229 calls)
     add_vuspsi   :      7.60s CPU      7.70s WALL (   13229 calls)

     General routines
     calbec       :     11.04s CPU     11.45s WALL (   15805 calls)
     fft          :      0.41s CPU      0.43s WALL (     269 calls)
     ffts         :      0.08s CPU      0.08s WALL (      39 calls)
     fftw         :     55.01s CPU     56.29s WALL (  278398 calls)
     interpolate  :      0.08s CPU      0.08s WALL (      20 calls)

     Parallel routines

     PWSCF        :   2m13.97s CPU   2m16.76s WALL


   This run was terminated on:  15:26:19  24Jun2025            

=------------------------------------------------------------------------------=
   JOB DONE.
=------------------------------------------------------------------------------=
Note: The following floating-point exceptions are signalling: IEEE_INVALID_FLAG
