
     Program PWSCF v.7.2 starts on 24Jun2025 at 15:11:57 

     This program is part of the open-source Quantum ESPRESSO suite
     for quantum simulation of materials; please cite
         "P. Giannozzi et al., J. Phys.:Condens. Matter 21 395502 (2009);
         "P. Giannozzi et al., J. Phys.:Condens. Matter 29 465901 (2017);
         "P. Giannozzi et al., J. Chem. Phys. 152 154105 (2020);
          URL http://www.quantum-espresso.org", 
     in publications or presentations arising from this work. More details at
     http://www.quantum-espresso.org/quote

     Parallel version (MPI), running on     8 processors

     MPI processes distributed on     1 nodes
     91252 MiB available memory on the printing compute node when the environment starts

     Reading input from /home/jvc/QEspresso7.2/ZnO_DataBase/scf_025_NOSYM.in/scf-5.81-1.45-0.25-4.in

     Current dimensions of program PWSCF are:
     Max number of different atomic species (ntypx) = 10
     Max number of k-points (npk) =  40000
     Max angular momentum in pseudopotentials (lmaxx) =  4
     file Zn.upf: wavefunction(s)  3D renormalized

     R & G space division:  proc/nbgrp/npool/nimage =       8
     Subspace diagonalization in iterative solution of the eigenvalue problem:
     a serial algorithm will be used


     Parallelization info
     --------------------
     sticks:   dense  smooth     PW     G-vecs:    dense   smooth      PW
     Min         116      57     18                 4582     1619     281
     Max         117      58     20                 4585     1622     284
     Sum         931     463    151                36665    12971    2261

     Using Slab Decomposition



     bravais-lattice index     =            0
     lattice parameter (alat)  =       5.8081  a.u.
     unit-cell volume          =     271.4883 (a.u.)^3
     number of atoms/cell      =            4
     number of atomic types    =            2
     number of electrons       =        36.00
     number of Kohn-Sham states=           18
     kinetic-energy cutoff     =      50.0000  Ry
     charge density cutoff     =     400.0000  Ry
     scf convergence threshold =      1.0E-08
     mixing beta               =       0.3000
     number of iterations used =            8  plain     mixing
     Exchange-correlation= PBE
                           (   1   4   3   4   0   0   0)

     celldm(1)=   5.808092  celldm(2)=   0.000000  celldm(3)=   0.000000
     celldm(4)=   0.000000  celldm(5)=   0.000000  celldm(6)=   0.000000

     crystal axes: (cart. coord. in units of alat)
               a(1) = (   1.000000   0.000000   0.000000 )  
               a(2) = (  -0.500000   0.866025   0.000000 )  
               a(3) = (   0.000000   0.000000   1.600000 )  

     reciprocal axes: (cart. coord. in units 2 pi/alat)
               b(1) = (  1.000000  0.577350 -0.000000 )  
               b(2) = (  0.000000  1.154701  0.000000 )  
               b(3) = (  0.000000 -0.000000  0.625000 )  


     PseudoPot. # 1 for Zn read from file:
     ./pseudos/Zn.upf
     MD5 check sum: 7f56cabf9682ed8c977c2f7d0c5985c5
     Pseudo is Ultrasoft + core correction, Zval = 12.0
     Generated using &quot;atomic&quot; code by A. Dal Corso  v.6.2.2
     Using radial grid of 1201 points,  6 beta functions with: 
                l(1) =   0
                l(2) =   0
                l(3) =   1
                l(4) =   1
                l(5) =   2
                l(6) =   2
     Q(r) pseudized with 0 coefficients 


     PseudoPot. # 2 for O  read from file:
     ./pseudos/O.upf
     MD5 check sum: 91400c9766925bcf19f520983a725ff0
     Pseudo is Ultrasoft + core correction, Zval =  6.0
     Generated using &quot;atomic&quot; code by A. Dal Corso  v.6.3MaX
     Using radial grid of 1095 points,  4 beta functions with: 
                l(1) =   0
                l(2) =   0
                l(3) =   1
                l(4) =   1
     Q(r) pseudized with 0 coefficients 


     atomic species   valence    mass     pseudopotential
        Zn            12.00    63.38000     Zn( 1.00)
        O              6.00    15.99900     O ( 1.00)

     No symmetry found



   Cartesian axes

     site n.     atom                  positions (alat units)
         1           Zn  tau(   1) = (   0.6653276   0.1633848   0.6977098  )
         2           Zn  tau(   2) = (  -0.1807782   0.4695421  -0.2468662  )
         3           O   tau(   3) = (   0.7095275   0.3241090   1.1281840  )
         4           O   tau(   4) = (  -0.0716372   0.3655766   0.2112951  )

     number of k points=   112

     Number of k-points >= 100: set verbosity='high' to print them.

     Dense  grid:    36665 G-vectors     FFT dimensions: (  40,  40,  60)

     Smooth grid:    12971 G-vectors     FFT dimensions: (  27,  27,  45)

     Estimated max dynamical RAM per process >      25.88 MB

     Estimated total dynamical RAM >     207.00 MB

     Check: negative core charge=   -0.000002

     Initial potential from superposition of free atoms

     starting charge      35.9925, renormalised to      36.0000
     Starting wfcs are   26 randomized atomic wfcs

     total cpu time spent up to now is        3.8 secs

     Self-consistent Calculation

     iteration #  1     ecut=    50.00 Ry     beta= 0.30
     Davidson diagonalization with overlap
     ethr =  1.00E-02,  avg # of iterations =  5.0

     total cpu time spent up to now is       10.9 secs

     total energy              =    -355.68990826 Ry
     estimated scf accuracy    <       1.30562086 Ry

     iteration #  2     ecut=    50.00 Ry     beta= 0.30
     Davidson diagonalization with overlap
     ethr =  3.63E-03,  avg # of iterations =  2.5

     total cpu time spent up to now is       16.1 secs

     total energy              =    -355.62192657 Ry
     estimated scf accuracy    <       0.33778193 Ry

     iteration #  3     ecut=    50.00 Ry     beta= 0.30
     Davidson diagonalization with overlap
     ethr =  9.38E-04,  avg # of iterations =  6.6

     total cpu time spent up to now is       25.6 secs

     total energy              =    -355.85421037 Ry
     estimated scf accuracy    <       0.38801649 Ry

     iteration #  4     ecut=    50.00 Ry     beta= 0.30
     Davidson diagonalization with overlap
     ethr =  9.38E-04,  avg # of iterations =  2.1

     total cpu time spent up to now is       30.4 secs

     total energy              =    -355.81700041 Ry
     estimated scf accuracy    <       0.12688500 Ry

     iteration #  5     ecut=    50.00 Ry     beta= 0.30
     Davidson diagonalization with overlap
     ethr =  3.52E-04,  avg # of iterations =  9.9

     total cpu time spent up to now is       46.1 secs

     total energy              =    -355.79678088 Ry
     estimated scf accuracy    <       2.19714638 Ry

     iteration #  6     ecut=    50.00 Ry     beta= 0.30
     Davidson diagonalization with overlap
     ethr =  3.52E-04,  avg # of iterations =  6.4

     total cpu time spent up to now is       56.9 secs

     total energy              =    -356.01839661 Ry
     estimated scf accuracy    <       0.32894485 Ry

     iteration #  7     ecut=    50.00 Ry     beta= 0.30
     Davidson diagonalization with overlap
     ethr =  3.52E-04,  avg # of iterations =  1.0

     total cpu time spent up to now is       61.1 secs

     total energy              =    -355.85221467 Ry
     estimated scf accuracy    <       0.43326595 Ry

     iteration #  8     ecut=    50.00 Ry     beta= 0.30
     Davidson diagonalization with overlap
     ethr =  3.52E-04,  avg # of iterations =  4.8

     total cpu time spent up to now is       68.1 secs

     total energy              =    -355.88724859 Ry
     estimated scf accuracy    <       0.03707772 Ry

     iteration #  9     ecut=    50.00 Ry     beta= 0.30
     Davidson diagonalization with overlap
     ethr =  1.03E-04,  avg # of iterations =  3.4

     total cpu time spent up to now is       73.3 secs

     total energy              =    -355.89096088 Ry
     estimated scf accuracy    <       0.01380785 Ry

     iteration # 10     ecut=    50.00 Ry     beta= 0.30
     Davidson diagonalization with overlap
     ethr =  3.84E-05,  avg # of iterations =  4.6

     total cpu time spent up to now is       79.1 secs

     total energy              =    -355.89221836 Ry
     estimated scf accuracy    <       0.00564468 Ry

     iteration # 11     ecut=    50.00 Ry     beta= 0.30
     Davidson diagonalization with overlap
     ethr =  1.57E-05,  avg # of iterations =  4.0

     total cpu time spent up to now is       85.0 secs

     total energy              =    -355.89284173 Ry
     estimated scf accuracy    <       0.00180797 Ry

     iteration # 12     ecut=    50.00 Ry     beta= 0.30
     Davidson diagonalization with overlap
     ethr =  5.02E-06,  avg # of iterations =  5.3

     total cpu time spent up to now is       92.0 secs

     total energy              =    -355.89258404 Ry
     estimated scf accuracy    <       0.00135951 Ry

     iteration # 13     ecut=    50.00 Ry     beta= 0.30
     Davidson diagonalization with overlap
     c_bands:  1 eigenvalues not converged
     ethr =  3.78E-06,  avg # of iterations =  8.7

     total cpu time spent up to now is      102.2 secs

     total energy              =    -355.89441556 Ry
     estimated scf accuracy    <       0.00396980 Ry

     iteration # 14     ecut=    50.00 Ry     beta= 0.30
     Davidson diagonalization with overlap
     ethr =  3.78E-06,  avg # of iterations =  1.4

     total cpu time spent up to now is      106.7 secs

     total energy              =    -355.89419564 Ry
     estimated scf accuracy    <       0.00462805 Ry

     iteration # 15     ecut=    50.00 Ry     beta= 0.30
     Davidson diagonalization with overlap
     ethr =  3.78E-06,  avg # of iterations =  1.1

     total cpu time spent up to now is      110.9 secs

     total energy              =    -355.89351501 Ry
     estimated scf accuracy    <       0.00428110 Ry

     iteration # 16     ecut=    50.00 Ry     beta= 0.30
     Davidson diagonalization with overlap
     ethr =  3.78E-06,  avg # of iterations =  1.2

     total cpu time spent up to now is      115.2 secs

     total energy              =    -355.89308879 Ry
     estimated scf accuracy    <       0.00279552 Ry

     iteration # 17     ecut=    50.00 Ry     beta= 0.30
     Davidson diagonalization with overlap
     ethr =  3.78E-06,  avg # of iterations =  2.6

     total cpu time spent up to now is      120.3 secs

     total energy              =    -355.89314671 Ry
     estimated scf accuracy    <       0.00097080 Ry

     iteration # 18     ecut=    50.00 Ry     beta= 0.30
     Davidson diagonalization with overlap
     ethr =  2.70E-06,  avg # of iterations =  2.2

     total cpu time spent up to now is      124.9 secs

     total energy              =    -355.89300814 Ry
     estimated scf accuracy    <       0.00055784 Ry

     iteration # 19     ecut=    50.00 Ry     beta= 0.30
     Davidson diagonalization with overlap
     ethr =  1.55E-06,  avg # of iterations =  6.1

     total cpu time spent up to now is      131.6 secs

     total energy              =    -355.89317568 Ry
     estimated scf accuracy    <       0.00003280 Ry

     iteration # 20     ecut=    50.00 Ry     beta= 0.30
     Davidson diagonalization with overlap
     ethr =  9.11E-08,  avg # of iterations =  5.5

     total cpu time spent up to now is      139.0 secs

     total energy              =    -355.89318947 Ry
     estimated scf accuracy    <       0.00000388 Ry

     iteration # 21     ecut=    50.00 Ry     beta= 0.30
     Davidson diagonalization with overlap
     ethr =  1.08E-08,  avg # of iterations =  9.2

     total cpu time spent up to now is      149.1 secs

     total energy              =    -355.89319428 Ry
     estimated scf accuracy    <       0.00001106 Ry

     iteration # 22     ecut=    50.00 Ry     beta= 0.30
     Davidson diagonalization with overlap
     ethr =  1.08E-08,  avg # of iterations =  1.4

     total cpu time spent up to now is      153.5 secs

     total energy              =    -355.89319071 Ry
     estimated scf accuracy    <       0.00000887 Ry

     iteration # 23     ecut=    50.00 Ry     beta= 0.30
     Davidson diagonalization with overlap
     ethr =  1.08E-08,  avg # of iterations =  6.1

     total cpu time spent up to now is      160.7 secs

     total energy              =    -355.89319261 Ry
     estimated scf accuracy    <       0.00000026 Ry

     iteration # 24     ecut=    50.00 Ry     beta= 0.30
     Davidson diagonalization with overlap
     ethr =  7.23E-10,  avg # of iterations =  6.3

     total cpu time spent up to now is      167.4 secs

     total energy              =    -355.89319256 Ry
     estimated scf accuracy    <       0.00000037 Ry

     iteration # 25     ecut=    50.00 Ry     beta= 0.30
     Davidson diagonalization with overlap
     ethr =  7.23E-10,  avg # of iterations =  5.6

     total cpu time spent up to now is      173.5 secs

     total energy              =    -355.89319268 Ry
     estimated scf accuracy    <       0.00000009 Ry

     iteration # 26     ecut=    50.00 Ry     beta= 0.30
     Davidson diagonalization with overlap
     ethr =  2.57E-10,  avg # of iterations =  9.8

     total cpu time spent up to now is      184.9 secs

     total energy              =    -355.89319264 Ry
     estimated scf accuracy    <       0.00000097 Ry

     iteration # 27     ecut=    50.00 Ry     beta= 0.30
     Davidson diagonalization with overlap
     ethr =  2.57E-10,  avg # of iterations =  5.8

     total cpu time spent up to now is      192.1 secs

     total energy              =    -355.89319257 Ry
     estimated scf accuracy    <       0.00000030 Ry

     iteration # 28     ecut=    50.00 Ry     beta= 0.30
     Davidson diagonalization with overlap
     ethr =  2.57E-10,  avg # of iterations =  7.0

     total cpu time spent up to now is      199.8 secs

     End of self-consistent calculation

     Number of k-points >= 100: set verbosity='high' to print the bands.

     highest occupied level (ev):    12.3398

!    total energy              =    -355.89319261 Ry
     estimated scf accuracy    <          3.1E-09 Ry

     The total energy is the sum of the following terms:
     one-electron contribution =    -192.40906593 Ry
     hartree contribution      =     137.54873447 Ry
     xc contribution           =    -111.45044551 Ry
     ewald contribution        =    -189.58241564 Ry

     convergence has been achieved in  28 iterations

     Forces acting on atoms (cartesian axes, Ry/au):

     atom    1 type  1   force =    -0.12312984   -0.34534106   -0.95016913
     atom    2 type  1   force =     5.14191253    7.10192324   10.41705025
     atom    3 type  2   force =    -5.25964274   -6.68748870  -10.19082679
     atom    4 type  2   force =     0.24086006   -0.06909348    0.72394568
     The non-local contrib.  to forces
     atom    1 type  1   force =    -0.13672322   -0.52976458   -0.23614616
     atom    2 type  1   force =    -0.98126834   -1.06965377   -2.64887092
     atom    3 type  2   force =     0.07510709    0.05866150   -0.77642352
     atom    4 type  2   force =    -0.31279243    0.20283447    0.11666856
     The ionic contribution  to forces
     atom    1 type  1   force =    -4.26486454   -7.83728268  -18.94806962
     atom    2 type  1   force =    15.12748523   26.62680390   34.26863159
     atom    3 type  2   force =   -16.19752009  -18.01919112  -24.09484708
     atom    4 type  2   force =     5.33489940   -0.77033011    8.77428511
     The local contribution  to forces
     atom    1 type  1   force =     4.24461559    7.94637540   18.13658700
     atom    2 type  1   force =    -8.76462936  -18.07519305  -20.77597470
     atom    3 type  2   force =    10.85199732   11.25941497   14.65503195
     atom    4 type  2   force =    -4.78218407    0.49997426   -8.16155736
     The core correction contribution to forces
     atom    1 type  1   force =     0.03387160    0.07538387    0.09745646
     atom    2 type  1   force =    -0.23966747   -0.38007287   -0.42657923
     atom    3 type  2   force =     0.01077199    0.01362914    0.02548065
     atom    4 type  2   force =     0.00093644   -0.00156649   -0.00552652
     The Hubbard contrib.    to forces
     atom    1 type  1   force =     0.00000000    0.00000000    0.00000000
     atom    2 type  1   force =     0.00000000    0.00000000    0.00000000
     atom    3 type  2   force =     0.00000000    0.00000000    0.00000000
     atom    4 type  2   force =     0.00000000    0.00000000    0.00000000
     The SCF correction term to forces
     atom    1 type  1   force =    -0.00002783   -0.00005008    0.00000369
     atom    2 type  1   force =    -0.00000608    0.00004201   -0.00015598
     atom    3 type  2   force =     0.00000241   -0.00000019   -0.00006828
     atom    4 type  2   force =     0.00000218   -0.00000260    0.00007639

     Total force =    19.059248     Total SCF correction =     0.000200

     Writing all to output data dir ./ZnO_ANN.save/

     init_run     :      3.23s CPU      3.32s WALL (       1 calls)
     electrons    :    192.32s CPU    196.07s WALL (       1 calls)
     forces       :      0.94s CPU      0.96s WALL (       1 calls)

     Called by init_run:
     wfcinit      :      2.33s CPU      2.39s WALL (       1 calls)
     potinit      :      0.22s CPU      0.23s WALL (       1 calls)
     hinit0       :      0.61s CPU      0.62s WALL (       1 calls)

     Called by electrons:
     c_bands      :    171.80s CPU    175.02s WALL (      28 calls)
     sum_band     :     18.71s CPU     19.18s WALL (      28 calls)
     v_of_rho     :      0.39s CPU      0.42s WALL (      29 calls)
     newd         :      1.37s CPU      1.40s WALL (      29 calls)
     mix_rho      :      0.06s CPU      0.07s WALL (      28 calls)

     Called by c_bands:
     init_us_2    :      1.14s CPU      1.16s WALL (    6496 calls)
     init_us_2:cp :      1.12s CPU      1.14s WALL (    6496 calls)
     cegterg      :    167.93s CPU    171.07s WALL (    3136 calls)

     Called by *egterg:
     cdiaghg      :     19.86s CPU     20.02s WALL (   18337 calls)
     h_psi        :    101.45s CPU    103.79s WALL (   18449 calls)
     s_psi        :      9.91s CPU     10.01s WALL (   18449 calls)
     g_psi        :      0.30s CPU      0.30s WALL (   15201 calls)

     Called by h_psi:
     h_psi:calbec :     12.14s CPU     12.58s WALL (   18449 calls)
     vloc_psi     :     79.09s CPU     80.88s WALL (   18449 calls)
     add_vuspsi   :      9.91s CPU     10.03s WALL (   18449 calls)

     General routines
     calbec       :     16.33s CPU     16.90s WALL (   22033 calls)
     fft          :      0.59s CPU      0.64s WALL (     386 calls)
     ffts         :      0.08s CPU      0.08s WALL (      57 calls)
     fftw         :     82.77s CPU     84.67s WALL (  417598 calls)
     interpolate  :      0.09s CPU      0.09s WALL (      29 calls)

     Parallel routines

     PWSCF        :   3m17.21s CPU   3m21.23s WALL


   This run was terminated on:  15:15:18  24Jun2025            

=------------------------------------------------------------------------------=
   JOB DONE.
=------------------------------------------------------------------------------=
Note: The following floating-point exceptions are signalling: IEEE_INVALID_FLAG
