
     Program PWSCF v.7.2 starts on 24Jun2025 at 17:58:43 

     This program is part of the open-source Quantum ESPRESSO suite
     for quantum simulation of materials; please cite
         "P. Giannozzi et al., J. Phys.:Condens. Matter 21 395502 (2009);
         "P. Giannozzi et al., J. Phys.:Condens. Matter 29 465901 (2017);
         "P. Giannozzi et al., J. Chem. Phys. 152 154105 (2020);
          URL http://www.quantum-espresso.org", 
     in publications or presentations arising from this work. More details at
     http://www.quantum-espresso.org/quote

     Parallel version (MPI), running on     8 processors

     MPI processes distributed on     1 nodes
     90948 MiB available memory on the printing compute node when the environment starts

     Reading input from /home/jvc/QEspresso7.2/ZnO_DataBase/scf_025_NOSYM.in/scf-6.30-1.74-0.25-2.in

     Current dimensions of program PWSCF are:
     Max number of different atomic species (ntypx) = 10
     Max number of k-points (npk) =  40000
     Max angular momentum in pseudopotentials (lmaxx) =  4
     file Zn.upf: wavefunction(s)  3D renormalized

     R & G space division:  proc/nbgrp/npool/nimage =       8
     Subspace diagonalization in iterative solution of the eigenvalue problem:
     a serial algorithm will be used


     Parallelization info
     --------------------
     sticks:   dense  smooth     PW     G-vecs:    dense   smooth      PW
     Min         137      68     20                 5853     2068     346
     Max         138      69     21                 5856     2075     353
     Sum        1099     547    163                46835    16563    2791

     Using Slab Decomposition



     bravais-lattice index     =            0
     lattice parameter (alat)  =       6.3024  a.u.
     unit-cell volume          =     346.8711 (a.u.)^3
     number of atoms/cell      =            4
     number of atomic types    =            2
     number of electrons       =        36.00
     number of Kohn-Sham states=           18
     kinetic-energy cutoff     =      50.0000  Ry
     charge density cutoff     =     400.0000  Ry
     scf convergence threshold =      1.0E-08
     mixing beta               =       0.3000
     number of iterations used =            8  plain     mixing
     Exchange-correlation= PBE
                           (   1   4   3   4   0   0   0)

     celldm(1)=   6.302398  celldm(2)=   0.000000  celldm(3)=   0.000000
     celldm(4)=   0.000000  celldm(5)=   0.000000  celldm(6)=   0.000000

     crystal axes: (cart. coord. in units of alat)
               a(1) = (   1.000000   0.000000   0.000000 )  
               a(2) = (  -0.500000   0.866025   0.000000 )  
               a(3) = (   0.000000   0.000000   1.600000 )  

     reciprocal axes: (cart. coord. in units 2 pi/alat)
               b(1) = (  1.000000  0.577350 -0.000000 )  
               b(2) = (  0.000000  1.154701  0.000000 )  
               b(3) = (  0.000000 -0.000000  0.625000 )  


     PseudoPot. # 1 for Zn read from file:
     ./pseudos/Zn.upf
     MD5 check sum: 7f56cabf9682ed8c977c2f7d0c5985c5
     Pseudo is Ultrasoft + core correction, Zval = 12.0
     Generated using &quot;atomic&quot; code by A. Dal Corso  v.6.2.2
     Using radial grid of 1201 points,  6 beta functions with: 
                l(1) =   0
                l(2) =   0
                l(3) =   1
                l(4) =   1
                l(5) =   2
                l(6) =   2
     Q(r) pseudized with 0 coefficients 


     PseudoPot. # 2 for O  read from file:
     ./pseudos/O.upf
     MD5 check sum: 91400c9766925bcf19f520983a725ff0
     Pseudo is Ultrasoft + core correction, Zval =  6.0
     Generated using &quot;atomic&quot; code by A. Dal Corso  v.6.3MaX
     Using radial grid of 1095 points,  4 beta functions with: 
                l(1) =   0
                l(2) =   0
                l(3) =   1
                l(4) =   1
     Q(r) pseudized with 0 coefficients 


     atomic species   valence    mass     pseudopotential
        Zn            12.00    63.38000     Zn( 1.00)
        O              6.00    15.99900     O ( 1.00)

     No symmetry found



   Cartesian axes

     site n.     atom                  positions (alat units)
         1           Zn  tau(   1) = (   0.3730882   0.2865583   0.7108467  )
         2           Zn  tau(   2) = (   0.0033884   0.6806942   0.2476173  )
         3           O   tau(   3) = (   0.2842856   0.4474516   1.4214227  )
         4           O   tau(   4) = (  -0.1283803   0.7820104   0.5876582  )

     number of k points=   112

     Number of k-points >= 100: set verbosity='high' to print them.

     Dense  grid:    46835 G-vectors     FFT dimensions: (  45,  45,  72)

     Smooth grid:    16563 G-vectors     FFT dimensions: (  30,  30,  45)

     Estimated max dynamical RAM per process >      32.29 MB

     Estimated total dynamical RAM >     258.31 MB

     Check: negative core charge=   -0.000002

     Initial potential from superposition of free atoms

     starting charge      35.9925, renormalised to      36.0000
     Starting wfcs are   26 randomized atomic wfcs

     total cpu time spent up to now is        4.2 secs

     Self-consistent Calculation

     iteration #  1     ecut=    50.00 Ry     beta= 0.30
     Davidson diagonalization with overlap
     ethr =  1.00E-02,  avg # of iterations =  3.0

     total cpu time spent up to now is       10.1 secs

     total energy              =    -359.85169814 Ry
     estimated scf accuracy    <       1.45897783 Ry

     iteration #  2     ecut=    50.00 Ry     beta= 0.30
     Davidson diagonalization with overlap
     ethr =  4.05E-03,  avg # of iterations =  2.4

     total cpu time spent up to now is       16.3 secs

     total energy              =    -359.88175018 Ry
     estimated scf accuracy    <       0.30121771 Ry

     iteration #  3     ecut=    50.00 Ry     beta= 0.30
     Davidson diagonalization with overlap
     c_bands:  1 eigenvalues not converged
     ethr =  8.37E-04,  avg # of iterations =  8.9

     total cpu time spent up to now is       28.1 secs

     total energy              =    -359.92902463 Ry
     estimated scf accuracy    <       0.58087709 Ry

     iteration #  4     ecut=    50.00 Ry     beta= 0.30
     Davidson diagonalization with overlap
     c_bands:  1 eigenvalues not converged
     ethr =  8.37E-04,  avg # of iterations =  7.1

     total cpu time spent up to now is       38.3 secs

     total energy              =    -360.14294135 Ry
     estimated scf accuracy    <       0.23935032 Ry

     iteration #  5     ecut=    50.00 Ry     beta= 0.30
     Davidson diagonalization with overlap
     ethr =  6.65E-04,  avg # of iterations =  1.1

     total cpu time spent up to now is       43.0 secs

     total energy              =    -360.07548447 Ry
     estimated scf accuracy    <       0.11678775 Ry

     iteration #  6     ecut=    50.00 Ry     beta= 0.30
     Davidson diagonalization with overlap
     ethr =  3.24E-04,  avg # of iterations =  6.5

     total cpu time spent up to now is       52.2 secs

     total energy              =    -360.13283762 Ry
     estimated scf accuracy    <       0.14807873 Ry

     iteration #  7     ecut=    50.00 Ry     beta= 0.30
     Davidson diagonalization with overlap
     ethr =  3.24E-04,  avg # of iterations =  1.3

     total cpu time spent up to now is       57.1 secs

     total energy              =    -360.11591297 Ry
     estimated scf accuracy    <       0.08008192 Ry

     iteration #  8     ecut=    50.00 Ry     beta= 0.30
     Davidson diagonalization with overlap
     ethr =  2.22E-04,  avg # of iterations =  5.4

     total cpu time spent up to now is       63.5 secs

     total energy              =    -360.13636559 Ry
     estimated scf accuracy    <       0.00308911 Ry

     iteration #  9     ecut=    50.00 Ry     beta= 0.30
     Davidson diagonalization with overlap
     c_bands:  1 eigenvalues not converged
     c_bands:  1 eigenvalues not converged
     c_bands:  2 eigenvalues not converged
     c_bands:  1 eigenvalues not converged
     ethr =  8.58E-06,  avg # of iterations =  7.9

     total cpu time spent up to now is       72.9 secs

     total energy              =    -360.14257547 Ry
     estimated scf accuracy    <       0.01796159 Ry

     iteration # 10     ecut=    50.00 Ry     beta= 0.30
     Davidson diagonalization with overlap
     ethr =  8.58E-06,  avg # of iterations =  1.3

     total cpu time spent up to now is       77.8 secs

     total energy              =    -360.14058600 Ry
     estimated scf accuracy    <       0.01918777 Ry

     iteration # 11     ecut=    50.00 Ry     beta= 0.30
     Davidson diagonalization with overlap
     ethr =  8.58E-06,  avg # of iterations =  1.1

     total cpu time spent up to now is       82.6 secs

     total energy              =    -360.13364337 Ry
     estimated scf accuracy    <       0.01542880 Ry

     iteration # 12     ecut=    50.00 Ry     beta= 0.30
     Davidson diagonalization with overlap
     c_bands:  1 eigenvalues not converged
     c_bands:  1 eigenvalues not converged
     c_bands:  1 eigenvalues not converged
     c_bands:  2 eigenvalues not converged
     c_bands:  2 eigenvalues not converged
     ethr =  8.58E-06,  avg # of iterations = 10.2

     total cpu time spent up to now is       92.6 secs

     total energy              =    -360.13847963 Ry
     estimated scf accuracy    <       0.01180993 Ry

     iteration # 13     ecut=    50.00 Ry     beta= 0.30
     Davidson diagonalization with overlap
     ethr =  8.58E-06,  avg # of iterations =  4.3

     total cpu time spent up to now is       98.6 secs

     total energy              =    -360.13833693 Ry
     estimated scf accuracy    <       0.00491512 Ry

     iteration # 14     ecut=    50.00 Ry     beta= 0.30
     Davidson diagonalization with overlap
     ethr =  8.58E-06,  avg # of iterations =  5.0

     total cpu time spent up to now is      104.9 secs

     total energy              =    -360.13902731 Ry
     estimated scf accuracy    <       0.00159125 Ry

     iteration # 15     ecut=    50.00 Ry     beta= 0.30
     Davidson diagonalization with overlap
     ethr =  4.42E-06,  avg # of iterations =  2.0

     total cpu time spent up to now is      110.4 secs

     total energy              =    -360.14018948 Ry
     estimated scf accuracy    <       0.00192345 Ry

     iteration # 16     ecut=    50.00 Ry     beta= 0.30
     Davidson diagonalization with overlap
     c_bands:  1 eigenvalues not converged
     c_bands:  1 eigenvalues not converged
     c_bands:  1 eigenvalues not converged
     ethr =  4.42E-06,  avg # of iterations =  7.8

     total cpu time spent up to now is      118.9 secs

     total energy              =    -360.14041191 Ry
     estimated scf accuracy    <       0.01856774 Ry

     iteration # 17     ecut=    50.00 Ry     beta= 0.30
     Davidson diagonalization with overlap
     ethr =  4.42E-06,  avg # of iterations =  1.2

     total cpu time spent up to now is      123.7 secs

     total energy              =    -360.13328112 Ry
     estimated scf accuracy    <       0.01689651 Ry

     iteration # 18     ecut=    50.00 Ry     beta= 0.30
     Davidson diagonalization with overlap
     c_bands:  1 eigenvalues not converged
     c_bands:  2 eigenvalues not converged
     c_bands:  1 eigenvalues not converged
     c_bands:  1 eigenvalues not converged
     c_bands:  2 eigenvalues not converged
     c_bands:  2 eigenvalues not converged
     c_bands:  2 eigenvalues not converged
     c_bands:  2 eigenvalues not converged
     ethr =  4.42E-06,  avg # of iterations = 12.0

     total cpu time spent up to now is      136.4 secs

     total energy              =    -360.13868525 Ry
     estimated scf accuracy    <       0.00982890 Ry

     iteration # 19     ecut=    50.00 Ry     beta= 0.30
     Davidson diagonalization with overlap
     ethr =  4.42E-06,  avg # of iterations =  6.2

     total cpu time spent up to now is      143.2 secs

     total energy              =    -360.13853656 Ry
     estimated scf accuracy    <       0.00344782 Ry

     iteration # 20     ecut=    50.00 Ry     beta= 0.30
     Davidson diagonalization with overlap
     ethr =  4.42E-06,  avg # of iterations =  4.4

     total cpu time spent up to now is      149.4 secs

     total energy              =    -360.13860379 Ry
     estimated scf accuracy    <       0.00126792 Ry

     iteration # 21     ecut=    50.00 Ry     beta= 0.30
     Davidson diagonalization with overlap
     ethr =  3.52E-06,  avg # of iterations =  4.5

     total cpu time spent up to now is      155.4 secs

     total energy              =    -360.13869262 Ry
     estimated scf accuracy    <       0.00021741 Ry

     iteration # 22     ecut=    50.00 Ry     beta= 0.30
     Davidson diagonalization with overlap
     ethr =  6.04E-07,  avg # of iterations =  7.4

     total cpu time spent up to now is      163.5 secs

     total energy              =    -360.13880171 Ry
     estimated scf accuracy    <       0.00012216 Ry

     iteration # 23     ecut=    50.00 Ry     beta= 0.30
     Davidson diagonalization with overlap
     ethr =  3.39E-07,  avg # of iterations =  2.3

     total cpu time spent up to now is      168.9 secs

     total energy              =    -360.13879099 Ry
     estimated scf accuracy    <       0.00004057 Ry

     iteration # 24     ecut=    50.00 Ry     beta= 0.30
     Davidson diagonalization with overlap
     c_bands:  2 eigenvalues not converged
     ethr =  1.13E-07,  avg # of iterations =  7.8

     total cpu time spent up to now is      177.3 secs

     total energy              =    -360.13883291 Ry
     estimated scf accuracy    <       0.00009864 Ry

     iteration # 25     ecut=    50.00 Ry     beta= 0.30
     Davidson diagonalization with overlap
     ethr =  1.13E-07,  avg # of iterations =  1.0

     total cpu time spent up to now is      182.1 secs

     total energy              =    -360.13880811 Ry
     estimated scf accuracy    <       0.00009316 Ry

     iteration # 26     ecut=    50.00 Ry     beta= 0.30
     Davidson diagonalization with overlap
     ethr =  1.13E-07,  avg # of iterations =  6.5

     total cpu time spent up to now is      189.2 secs

     total energy              =    -360.13881922 Ry
     estimated scf accuracy    <       0.00000135 Ry

     iteration # 27     ecut=    50.00 Ry     beta= 0.30
     Davidson diagonalization with overlap
     ethr =  3.75E-09,  avg # of iterations =  6.5

     total cpu time spent up to now is      196.4 secs

     total energy              =    -360.13881991 Ry
     estimated scf accuracy    <       0.00000107 Ry

     iteration # 28     ecut=    50.00 Ry     beta= 0.30
     Davidson diagonalization with overlap
     ethr =  2.98E-09,  avg # of iterations =  1.3

     total cpu time spent up to now is      201.2 secs

     total energy              =    -360.13882020 Ry
     estimated scf accuracy    <       0.00000122 Ry

     iteration # 29     ecut=    50.00 Ry     beta= 0.30
     Davidson diagonalization with overlap
     ethr =  2.98E-09,  avg # of iterations =  3.9

     total cpu time spent up to now is      207.2 secs

     total energy              =    -360.13881882 Ry
     estimated scf accuracy    <       0.00000331 Ry

     iteration # 30     ecut=    50.00 Ry     beta= 0.30
     Davidson diagonalization with overlap
     c_bands:  1 eigenvalues not converged
     c_bands:  1 eigenvalues not converged
     ethr =  2.98E-09,  avg # of iterations =  8.0

     total cpu time spent up to now is      216.6 secs

     total energy              =    -360.13881977 Ry
     estimated scf accuracy    <       0.00000118 Ry

     iteration # 31     ecut=    50.00 Ry     beta= 0.30
     Davidson diagonalization with overlap
     ethr =  2.98E-09,  avg # of iterations =  1.1

     total cpu time spent up to now is      221.3 secs

     total energy              =    -360.13881961 Ry
     estimated scf accuracy    <       0.00000086 Ry

     iteration # 32     ecut=    50.00 Ry     beta= 0.30
     Davidson diagonalization with overlap
     ethr =  2.39E-09,  avg # of iterations =  2.4

     total cpu time spent up to now is      226.8 secs

     total energy              =    -360.13881962 Ry
     estimated scf accuracy    <       0.00000030 Ry

     iteration # 33     ecut=    50.00 Ry     beta= 0.30
     Davidson diagonalization with overlap
     ethr =  8.31E-10,  avg # of iterations =  6.5

     total cpu time spent up to now is      234.0 secs

     total energy              =    -360.13881970 Ry
     estimated scf accuracy    <       0.00000002 Ry

     iteration # 34     ecut=    50.00 Ry     beta= 0.30
     Davidson diagonalization with overlap
     ethr =  5.35E-11,  avg # of iterations =  6.2

     total cpu time spent up to now is      242.6 secs

     total energy              =    -360.13881972 Ry
     estimated scf accuracy    <       0.00000001 Ry

     iteration # 35     ecut=    50.00 Ry     beta= 0.30
     Davidson diagonalization with overlap
     ethr =  3.48E-11,  avg # of iterations =  1.5

     total cpu time spent up to now is      247.4 secs

     total energy              =    -360.13881971 Ry
     estimated scf accuracy    <       0.00000001 Ry

     iteration # 36     ecut=    50.00 Ry     beta= 0.30
     Davidson diagonalization with overlap
     ethr =  3.48E-11,  avg # of iterations =  5.0

     total cpu time spent up to now is      254.8 secs

     End of self-consistent calculation

     Number of k-points >= 100: set verbosity='high' to print the bands.

     highest occupied level (ev):     7.8336

!    total energy              =    -360.13881971 Ry
     estimated scf accuracy    <          2.9E-09 Ry

     The total energy is the sum of the following terms:
     one-electron contribution =    -230.37668016 Ry
     hartree contribution      =     152.72261984 Ry
     xc contribution           =    -110.06492803 Ry
     ewald contribution        =    -172.41983136 Ry

     convergence has been achieved in  36 iterations

     Forces acting on atoms (cartesian axes, Ry/au):

     atom    1 type  1   force =    -0.00526552    1.60811288    0.72998365
     atom    2 type  1   force =     0.72124365   -0.59901547   -2.04630946
     atom    3 type  2   force =     0.00285665   -0.00411362    0.01866166
     atom    4 type  2   force =    -0.71883478   -1.00498380    1.29766415
     The non-local contrib.  to forces
     atom    1 type  1   force =     0.09080330    1.05229453    0.02411751
     atom    2 type  1   force =     0.03230546    0.08427031    0.06378537
     atom    3 type  2   force =    -0.44253007    0.39274882    0.46610132
     atom    4 type  2   force =     0.33394438    0.48064721   -0.59936209
     The ionic contribution  to forces
     atom    1 type  1   force =     0.80358007   15.84428917   24.23145114
     atom    2 type  1   force =     4.00318233   -4.60754827  -31.25134156
     atom    3 type  2   force =     2.15619313   -1.30120121   -8.36287590
     atom    4 type  2   force =    -6.96295553   -9.93553969   15.38276632
     The local contribution  to forces
     atom    1 type  1   force =    -0.89478951  -15.09447106  -23.45739283
     atom    2 type  1   force =    -3.25496207    3.87812272   28.95353919
     atom    3 type  2   force =    -1.71490250    0.90813133    7.91904989
     atom    4 type  2   force =     5.90990327    8.44919570  -13.48510626
     The core correction contribution to forces
     atom    1 type  1   force =    -0.00485837   -0.19392646   -0.06811586
     atom    2 type  1   force =    -0.05924940    0.04611256    0.18759423
     atom    3 type  2   force =     0.00410613   -0.00381621   -0.00364306
     atom    4 type  2   force =     0.00026539    0.00070714   -0.00060991
     The Hubbard contrib.    to forces
     atom    1 type  1   force =     0.00000000    0.00000000    0.00000000
     atom    2 type  1   force =     0.00000000    0.00000000    0.00000000
     atom    3 type  2   force =     0.00000000    0.00000000    0.00000000
     atom    4 type  2   force =     0.00000000    0.00000000    0.00000000
     The SCF correction term to forces
     atom    1 type  1   force =    -0.00000479   -0.00007849   -0.00007208
     atom    2 type  1   force =    -0.00003644    0.00002201    0.00011754
     atom    3 type  2   force =    -0.00001383    0.00001843    0.00003364
     atom    4 type  2   force =     0.00000392    0.00000065   -0.00001966

     Total force =     3.375848     Total SCF correction =     0.000171

     Writing all to output data dir ./ZnO_ANN.save/

     init_run     :      3.66s CPU      3.75s WALL (       1 calls)
     electrons    :    246.64s CPU    250.65s WALL (       1 calls)
     forces       :      1.17s CPU      1.18s WALL (       1 calls)

     Called by init_run:
     wfcinit      :      2.67s CPU      2.73s WALL (       1 calls)
     potinit      :      0.32s CPU      0.32s WALL (       1 calls)
     hinit0       :      0.59s CPU      0.60s WALL (       1 calls)

     Called by electrons:
     c_bands      :    216.43s CPU    219.83s WALL (      36 calls)
     sum_band     :     27.24s CPU     27.76s WALL (      36 calls)
     v_of_rho     :      0.71s CPU      0.75s WALL (      37 calls)
     newd         :      2.16s CPU      2.20s WALL (      37 calls)
     mix_rho      :      0.10s CPU      0.12s WALL (      36 calls)

     Called by c_bands:
     init_us_2    :      1.81s CPU      1.83s WALL (    8288 calls)
     init_us_2:cp :      1.78s CPU      1.81s WALL (    8288 calls)
     cegterg      :    210.20s CPU    213.52s WALL (    4032 calls)

     Called by *egterg:
     cdiaghg      :     22.78s CPU     22.98s WALL (   23184 calls)
     h_psi        :    124.39s CPU    126.85s WALL (   23296 calls)
     s_psi        :     12.41s CPU     12.52s WALL (   23296 calls)
     g_psi        :      0.40s CPU      0.40s WALL (   19152 calls)

     Called by h_psi:
     h_psi:calbec :     16.99s CPU     17.45s WALL (   23296 calls)
     vloc_psi     :     94.59s CPU     96.48s WALL (   23296 calls)
     add_vuspsi   :     12.44s CPU     12.55s WALL (   23296 calls)

     General routines
     calbec       :     23.48s CPU     24.10s WALL (   27776 calls)
     fft          :      0.79s CPU      0.85s WALL (     490 calls)
     ffts         :      0.12s CPU      0.13s WALL (      73 calls)
     fftw         :     99.42s CPU    101.41s WALL (  479576 calls)
     interpolate  :      0.14s CPU      0.15s WALL (      37 calls)

     Parallel routines

     PWSCF        :   4m12.23s CPU   4m16.58s WALL


   This run was terminated on:  18: 2:59  24Jun2025            

=------------------------------------------------------------------------------=
   JOB DONE.
=------------------------------------------------------------------------------=
Note: The following floating-point exceptions are signalling: IEEE_INVALID_FLAG
