
     Program PWSCF v.7.2 starts on 24Jun2025 at 15:35:14 

     This program is part of the open-source Quantum ESPRESSO suite
     for quantum simulation of materials; please cite
         "P. Giannozzi et al., J. Phys.:Condens. Matter 21 395502 (2009);
         "P. Giannozzi et al., J. Phys.:Condens. Matter 29 465901 (2017);
         "P. Giannozzi et al., J. Chem. Phys. 152 154105 (2020);
          URL http://www.quantum-espresso.org", 
     in publications or presentations arising from this work. More details at
     http://www.quantum-espresso.org/quote

     Parallel version (MPI), running on     8 processors

     MPI processes distributed on     1 nodes
     91200 MiB available memory on the printing compute node when the environment starts

     Reading input from /home/jvc/QEspresso7.2/ZnO_DataBase/scf_025_NOSYM.in/scf-5.81-1.74-0.25-2.in

     Current dimensions of program PWSCF are:
     Max number of different atomic species (ntypx) = 10
     Max number of k-points (npk) =  40000
     Max angular momentum in pseudopotentials (lmaxx) =  4
     file Zn.upf: wavefunction(s)  3D renormalized

     R & G space division:  proc/nbgrp/npool/nimage =       8
     Subspace diagonalization in iterative solution of the eigenvalue problem:
     a serial algorithm will be used


     Parallelization info
     --------------------
     sticks:   dense  smooth     PW     G-vecs:    dense   smooth      PW
     Min         116      57     18                 4582     1619     281
     Max         117      58     20                 4585     1622     284
     Sum         931     463    151                36665    12971    2261

     Using Slab Decomposition



     bravais-lattice index     =            0
     lattice parameter (alat)  =       5.8081  a.u.
     unit-cell volume          =     271.4883 (a.u.)^3
     number of atoms/cell      =            4
     number of atomic types    =            2
     number of electrons       =        36.00
     number of Kohn-Sham states=           18
     kinetic-energy cutoff     =      50.0000  Ry
     charge density cutoff     =     400.0000  Ry
     scf convergence threshold =      1.0E-08
     mixing beta               =       0.3000
     number of iterations used =            8  plain     mixing
     Exchange-correlation= PBE
                           (   1   4   3   4   0   0   0)

     celldm(1)=   5.808092  celldm(2)=   0.000000  celldm(3)=   0.000000
     celldm(4)=   0.000000  celldm(5)=   0.000000  celldm(6)=   0.000000

     crystal axes: (cart. coord. in units of alat)
               a(1) = (   1.000000   0.000000   0.000000 )  
               a(2) = (  -0.500000   0.866025   0.000000 )  
               a(3) = (   0.000000   0.000000   1.600000 )  

     reciprocal axes: (cart. coord. in units 2 pi/alat)
               b(1) = (  1.000000  0.577350 -0.000000 )  
               b(2) = (  0.000000  1.154701  0.000000 )  
               b(3) = (  0.000000 -0.000000  0.625000 )  


     PseudoPot. # 1 for Zn read from file:
     ./pseudos/Zn.upf
     MD5 check sum: 7f56cabf9682ed8c977c2f7d0c5985c5
     Pseudo is Ultrasoft + core correction, Zval = 12.0
     Generated using &quot;atomic&quot; code by A. Dal Corso  v.6.2.2
     Using radial grid of 1201 points,  6 beta functions with: 
                l(1) =   0
                l(2) =   0
                l(3) =   1
                l(4) =   1
                l(5) =   2
                l(6) =   2
     Q(r) pseudized with 0 coefficients 


     PseudoPot. # 2 for O  read from file:
     ./pseudos/O.upf
     MD5 check sum: 91400c9766925bcf19f520983a725ff0
     Pseudo is Ultrasoft + core correction, Zval =  6.0
     Generated using &quot;atomic&quot; code by A. Dal Corso  v.6.3MaX
     Using radial grid of 1095 points,  4 beta functions with: 
                l(1) =   0
                l(2) =   0
                l(3) =   1
                l(4) =   1
     Q(r) pseudized with 0 coefficients 


     atomic species   valence    mass     pseudopotential
        Zn            12.00    63.38000     Zn( 1.00)
        O              6.00    15.99900     O ( 1.00)

     No symmetry found



   Cartesian axes

     site n.     atom                  positions (alat units)
         1           Zn  tau(   1) = (   0.4730615   0.1901410   0.4221170  )
         2           Zn  tau(   2) = (  -0.0476968   0.7585622  -0.0967475  )
         3           O   tau(   3) = (   0.5658817   0.2539356   1.7565669  )
         4           O   tau(   4) = (   0.1276909   0.4899051   0.3731834  )

     number of k points=   112

     Number of k-points >= 100: set verbosity='high' to print them.

     Dense  grid:    36665 G-vectors     FFT dimensions: (  40,  40,  60)

     Smooth grid:    12971 G-vectors     FFT dimensions: (  27,  27,  45)

     Estimated max dynamical RAM per process >      25.88 MB

     Estimated total dynamical RAM >     207.00 MB

     Check: negative core charge=   -0.000002

     Initial potential from superposition of free atoms

     starting charge      35.9925, renormalised to      36.0000
     Starting wfcs are   26 randomized atomic wfcs

     total cpu time spent up to now is        3.7 secs

     Self-consistent Calculation

     iteration #  1     ecut=    50.00 Ry     beta= 0.30
     Davidson diagonalization with overlap
     ethr =  1.00E-02,  avg # of iterations =  4.2

     total cpu time spent up to now is       10.8 secs

     total energy              =    -354.63407985 Ry
     estimated scf accuracy    <       1.28075035 Ry

     iteration #  2     ecut=    50.00 Ry     beta= 0.30
     Davidson diagonalization with overlap
     ethr =  3.56E-03,  avg # of iterations =  2.2

     total cpu time spent up to now is       16.6 secs

     total energy              =    -354.60776673 Ry
     estimated scf accuracy    <       0.36292113 Ry

     iteration #  3     ecut=    50.00 Ry     beta= 0.30
     Davidson diagonalization with overlap
     ethr =  1.01E-03,  avg # of iterations =  6.8

     total cpu time spent up to now is       26.2 secs

     total energy              =    -354.82152843 Ry
     estimated scf accuracy    <       0.16705760 Ry

     iteration #  4     ecut=    50.00 Ry     beta= 0.30
     Davidson diagonalization with overlap
     ethr =  4.64E-04,  avg # of iterations =  3.2

     total cpu time spent up to now is       31.6 secs

     total energy              =    -354.81385612 Ry
     estimated scf accuracy    <       0.04392853 Ry

     iteration #  5     ecut=    50.00 Ry     beta= 0.30
     Davidson diagonalization with overlap
     c_bands:  1 eigenvalues not converged
     ethr =  1.22E-04,  avg # of iterations = 11.8

     total cpu time spent up to now is       45.6 secs

     total energy              =    -354.80484348 Ry
     estimated scf accuracy    <       0.25828515 Ry

     iteration #  6     ecut=    50.00 Ry     beta= 0.30
     Davidson diagonalization with overlap
     ethr =  1.22E-04,  avg # of iterations =  8.9

     total cpu time spent up to now is       56.1 secs

     total energy              =    -354.84732012 Ry
     estimated scf accuracy    <       0.00350947 Ry

     iteration #  7     ecut=    50.00 Ry     beta= 0.30
     Davidson diagonalization with overlap
     c_bands:  1 eigenvalues not converged
     c_bands:  1 eigenvalues not converged
     ethr =  9.75E-06,  avg # of iterations = 10.8

     total cpu time spent up to now is       69.6 secs

     total energy              =    -354.84214505 Ry
     estimated scf accuracy    <       0.02070654 Ry

     iteration #  8     ecut=    50.00 Ry     beta= 0.30
     Davidson diagonalization with overlap
     c_bands:  1 eigenvalues not converged
     c_bands:  1 eigenvalues not converged
     ethr =  9.75E-06,  avg # of iterations = 10.8

     total cpu time spent up to now is       83.2 secs

     total energy              =    -354.84930057 Ry
     estimated scf accuracy    <       0.00581278 Ry

     iteration #  9     ecut=    50.00 Ry     beta= 0.30
     Davidson diagonalization with overlap
     ethr =  9.75E-06,  avg # of iterations =  1.5

     total cpu time spent up to now is       87.6 secs

     total energy              =    -354.84786588 Ry
     estimated scf accuracy    <       0.00317690 Ry

     iteration # 10     ecut=    50.00 Ry     beta= 0.30
     Davidson diagonalization with overlap
     ethr =  8.82E-06,  avg # of iterations =  6.1

     total cpu time spent up to now is       95.0 secs

     total energy              =    -354.84912446 Ry
     estimated scf accuracy    <       0.00020781 Ry

     iteration # 11     ecut=    50.00 Ry     beta= 0.30
     Davidson diagonalization with overlap
     ethr =  5.77E-07,  avg # of iterations =  8.1

     total cpu time spent up to now is      103.7 secs

     total energy              =    -354.84902160 Ry
     estimated scf accuracy    <       0.00073003 Ry

     iteration # 12     ecut=    50.00 Ry     beta= 0.30
     Davidson diagonalization with overlap
     ethr =  5.77E-07,  avg # of iterations =  5.8

     total cpu time spent up to now is      110.9 secs

     total energy              =    -354.84907080 Ry
     estimated scf accuracy    <       0.00006511 Ry

     iteration # 13     ecut=    50.00 Ry     beta= 0.30
     Davidson diagonalization with overlap
     ethr =  1.81E-07,  avg # of iterations =  7.8

     total cpu time spent up to now is      118.6 secs

     total energy              =    -354.84910429 Ry
     estimated scf accuracy    <       0.00001123 Ry

     iteration # 14     ecut=    50.00 Ry     beta= 0.30
     Davidson diagonalization with overlap
     ethr =  3.12E-08,  avg # of iterations =  5.8

     total cpu time spent up to now is      125.9 secs

     total energy              =    -354.84910147 Ry
     estimated scf accuracy    <       0.00002498 Ry

     iteration # 15     ecut=    50.00 Ry     beta= 0.30
     Davidson diagonalization with overlap
     ethr =  3.12E-08,  avg # of iterations =  6.0

     total cpu time spent up to now is      131.6 secs

     total energy              =    -354.84910117 Ry
     estimated scf accuracy    <       0.00000608 Ry

     iteration # 16     ecut=    50.00 Ry     beta= 0.30
     Davidson diagonalization with overlap
     ethr =  1.69E-08,  avg # of iterations =  5.0

     total cpu time spent up to now is      137.8 secs

     total energy              =    -354.84910255 Ry
     estimated scf accuracy    <       0.00000030 Ry

     iteration # 17     ecut=    50.00 Ry     beta= 0.30
     Davidson diagonalization with overlap
     c_bands:  1 eigenvalues not converged
     ethr =  8.37E-10,  avg # of iterations = 10.7

     total cpu time spent up to now is      149.4 secs

     total energy              =    -354.84910297 Ry
     estimated scf accuracy    <       0.00000023 Ry

     iteration # 18     ecut=    50.00 Ry     beta= 0.30
     Davidson diagonalization with overlap
     ethr =  6.42E-10,  avg # of iterations =  4.1

     total cpu time spent up to now is      155.0 secs

     total energy              =    -354.84910301 Ry
     estimated scf accuracy    <       0.00000001 Ry

     iteration # 19     ecut=    50.00 Ry     beta= 0.30
     Davidson diagonalization with overlap
     c_bands:  1 eigenvalues not converged
     c_bands:  1 eigenvalues not converged
     c_bands:  1 eigenvalues not converged
     c_bands:  1 eigenvalues not converged
     c_bands:  1 eigenvalues not converged
     c_bands:  1 eigenvalues not converged
     c_bands:  1 eigenvalues not converged
     c_bands:  1 eigenvalues not converged
     c_bands:  1 eigenvalues not converged
     c_bands:  1 eigenvalues not converged
     ethr =  3.64E-11,  avg # of iterations = 16.0

     total cpu time spent up to now is      172.2 secs

     total energy              =    -354.84910302 Ry
     estimated scf accuracy    <       0.00000039 Ry

     iteration # 20     ecut=    50.00 Ry     beta= 0.30
     Davidson diagonalization with overlap
     ethr =  3.64E-11,  avg # of iterations = 10.4

     total cpu time spent up to now is      184.9 secs

     total energy              =    -354.84910301 Ry
     estimated scf accuracy    <       0.00000007 Ry

     iteration # 21     ecut=    50.00 Ry     beta= 0.30
     Davidson diagonalization with overlap
     c_bands:  1 eigenvalues not converged
     ethr =  3.64E-11,  avg # of iterations = 13.6

     total cpu time spent up to now is      197.9 secs

     total energy              =    -354.84910303 Ry
     estimated scf accuracy    <       0.00000001 Ry

     iteration # 22     ecut=    50.00 Ry     beta= 0.30
     Davidson diagonalization with overlap
     ethr =  3.46E-11,  avg # of iterations =  4.9

     total cpu time spent up to now is      203.3 secs

     End of self-consistent calculation

     Number of k-points >= 100: set verbosity='high' to print the bands.

     highest occupied level (ev):    13.9855

!    total energy              =    -354.84910303 Ry
     estimated scf accuracy    <          1.0E-09 Ry

     The total energy is the sum of the following terms:
     one-electron contribution =    -297.20472269 Ry
     hartree contribution      =     188.81618586 Ry
     xc contribution           =    -112.06306950 Ry
     ewald contribution        =    -134.39749671 Ry

     convergence has been achieved in  22 iterations

     Forces acting on atoms (cartesian axes, Ry/au):

     atom    1 type  1   force =    -3.98912311   -3.40621372   13.73795313
     atom    2 type  1   force =    -0.30467729   -0.92899665   -1.29819908
     atom    3 type  2   force =     4.93984001    3.82625877  -12.74155866
     atom    4 type  2   force =    -0.64603962    0.50895160    0.30180460
     The non-local contrib.  to forces
     atom    1 type  1   force =     0.85531082    0.32379966   -2.77972404
     atom    2 type  1   force =    -0.17464911   -0.13926390    0.47778883
     atom    3 type  2   force =    -0.45690485   -0.77037872    0.04015359
     atom    4 type  2   force =     0.72018130   -0.13927635    0.18500089
     The ionic contribution  to forces
     atom    1 type  1   force =    -7.34517221   -9.48788990   74.87772146
     atom    2 type  1   force =    -4.46406205  -11.10198865  -50.47261720
     atom    3 type  2   force =    18.51434424   17.98622835  -39.14463305
     atom    4 type  2   force =    -6.70510998    2.60365021   14.73952878
     The local contribution  to forces
     atom    1 type  1   force =     2.36921518    5.58618526  -57.74491722
     atom    2 type  1   force =     4.28955416   10.21061619   48.57164702
     atom    3 type  2   force =   -13.10930434  -13.38600792   26.33665461
     atom    4 type  2   force =     5.34188903   -1.95488365  -14.61900656
     The core correction contribution to forces
     atom    1 type  1   force =     0.13153975    0.17165544   -0.61506566
     atom    2 type  1   force =     0.04447076    0.10163816    0.12486215
     atom    3 type  2   force =    -0.00827119   -0.00358560    0.02617634
     atom    4 type  2   force =    -0.00301094   -0.00052198   -0.00374191
     The Hubbard contrib.    to forces
     atom    1 type  1   force =     0.00000000    0.00000000    0.00000000
     atom    2 type  1   force =     0.00000000    0.00000000    0.00000000
     atom    3 type  2   force =     0.00000000    0.00000000    0.00000000
     atom    4 type  2   force =     0.00000000    0.00000000    0.00000000
     The SCF correction term to forces
     atom    1 type  1   force =    -0.00001378    0.00004375   -0.00007562
     atom    2 type  1   force =     0.00001181    0.00000948    0.00010591
     atom    3 type  2   force =    -0.00002098    0.00001061    0.00007565
     atom    4 type  2   force =     0.00001383   -0.00000869    0.00000919

     Total force =    20.519381     Total SCF correction =     0.000161

     Writing all to output data dir ./ZnO_ANN.save/

     init_run     :      3.21s CPU      3.28s WALL (       1 calls)
     electrons    :    195.97s CPU    199.52s WALL (       1 calls)
     forces       :      0.97s CPU      0.98s WALL (       1 calls)

     Called by init_run:
     wfcinit      :      2.35s CPU      2.40s WALL (       1 calls)
     potinit      :      0.24s CPU      0.24s WALL (       1 calls)
     hinit0       :      0.55s CPU      0.56s WALL (       1 calls)

     Called by electrons:
     c_bands      :    179.71s CPU    182.86s WALL (      22 calls)
     sum_band     :     14.85s CPU     15.22s WALL (      22 calls)
     v_of_rho     :      0.32s CPU      0.34s WALL (      23 calls)
     newd         :      1.07s CPU      1.09s WALL (      23 calls)
     mix_rho      :      0.05s CPU      0.06s WALL (      22 calls)

     Called by c_bands:
     init_us_2    :      0.91s CPU      0.93s WALL (    5152 calls)
     init_us_2:cp :      0.89s CPU      0.91s WALL (    5152 calls)
     cegterg      :    176.68s CPU    179.77s WALL (    2464 calls)

     Called by *egterg:
     cdiaghg      :     23.69s CPU     23.94s WALL (   20869 calls)
     h_psi        :    102.59s CPU    104.74s WALL (   20981 calls)
     s_psi        :      9.91s CPU     10.01s WALL (   20981 calls)
     g_psi        :      0.33s CPU      0.34s WALL (   18405 calls)

     Called by h_psi:
     h_psi:calbec :     12.28s CPU     12.70s WALL (   20981 calls)
     vloc_psi     :     80.05s CPU     81.70s WALL (   20981 calls)
     add_vuspsi   :      9.95s CPU     10.04s WALL (   20981 calls)

     General routines
     calbec       :     15.64s CPU     16.17s WALL (   23893 calls)
     fft          :      0.56s CPU      0.59s WALL (     308 calls)
     ffts         :      0.08s CPU      0.08s WALL (      45 calls)
     fftw         :     81.18s CPU     82.88s WALL (  407544 calls)
     interpolate  :      0.08s CPU      0.09s WALL (      23 calls)

     Parallel routines

     PWSCF        :   3m20.88s CPU   3m24.67s WALL


   This run was terminated on:  15:38:39  24Jun2025            

=------------------------------------------------------------------------------=
   JOB DONE.
=------------------------------------------------------------------------------=
Note: The following floating-point exceptions are signalling: IEEE_INVALID_FLAG
