
     Program PWSCF v.7.2 starts on 24Jun2025 at 17:38: 9 

     This program is part of the open-source Quantum ESPRESSO suite
     for quantum simulation of materials; please cite
         "P. Giannozzi et al., J. Phys.:Condens. Matter 21 395502 (2009);
         "P. Giannozzi et al., J. Phys.:Condens. Matter 29 465901 (2017);
         "P. Giannozzi et al., J. Chem. Phys. 152 154105 (2020);
          URL http://www.quantum-espresso.org", 
     in publications or presentations arising from this work. More details at
     http://www.quantum-espresso.org/quote

     Parallel version (MPI), running on     8 processors

     MPI processes distributed on     1 nodes
     90890 MiB available memory on the printing compute node when the environment starts

     Reading input from /home/jvc/QEspresso7.2/ZnO_DataBase/scf_025_NOSYM.in/scf-6.30-1.55-0.25-3.in

     Current dimensions of program PWSCF are:
     Max number of different atomic species (ntypx) = 10
     Max number of k-points (npk) =  40000
     Max angular momentum in pseudopotentials (lmaxx) =  4
     file Zn.upf: wavefunction(s)  3D renormalized

     R & G space division:  proc/nbgrp/npool/nimage =       8
     Subspace diagonalization in iterative solution of the eigenvalue problem:
     a serial algorithm will be used


     Parallelization info
     --------------------
     sticks:   dense  smooth     PW     G-vecs:    dense   smooth      PW
     Min         137      68     20                 5853     2068     346
     Max         138      69     21                 5856     2075     353
     Sum        1099     547    163                46835    16563    2791

     Using Slab Decomposition



     bravais-lattice index     =            0
     lattice parameter (alat)  =       6.3024  a.u.
     unit-cell volume          =     346.8711 (a.u.)^3
     number of atoms/cell      =            4
     number of atomic types    =            2
     number of electrons       =        36.00
     number of Kohn-Sham states=           18
     kinetic-energy cutoff     =      50.0000  Ry
     charge density cutoff     =     400.0000  Ry
     scf convergence threshold =      1.0E-08
     mixing beta               =       0.3000
     number of iterations used =            8  plain     mixing
     Exchange-correlation= PBE
                           (   1   4   3   4   0   0   0)

     celldm(1)=   6.302398  celldm(2)=   0.000000  celldm(3)=   0.000000
     celldm(4)=   0.000000  celldm(5)=   0.000000  celldm(6)=   0.000000

     crystal axes: (cart. coord. in units of alat)
               a(1) = (   1.000000   0.000000   0.000000 )  
               a(2) = (  -0.500000   0.866025   0.000000 )  
               a(3) = (   0.000000   0.000000   1.600000 )  

     reciprocal axes: (cart. coord. in units 2 pi/alat)
               b(1) = (  1.000000  0.577350 -0.000000 )  
               b(2) = (  0.000000  1.154701  0.000000 )  
               b(3) = (  0.000000 -0.000000  0.625000 )  


     PseudoPot. # 1 for Zn read from file:
     ./pseudos/Zn.upf
     MD5 check sum: 7f56cabf9682ed8c977c2f7d0c5985c5
     Pseudo is Ultrasoft + core correction, Zval = 12.0
     Generated using &quot;atomic&quot; code by A. Dal Corso  v.6.2.2
     Using radial grid of 1201 points,  6 beta functions with: 
                l(1) =   0
                l(2) =   0
                l(3) =   1
                l(4) =   1
                l(5) =   2
                l(6) =   2
     Q(r) pseudized with 0 coefficients 


     PseudoPot. # 2 for O  read from file:
     ./pseudos/O.upf
     MD5 check sum: 91400c9766925bcf19f520983a725ff0
     Pseudo is Ultrasoft + core correction, Zval =  6.0
     Generated using &quot;atomic&quot; code by A. Dal Corso  v.6.3MaX
     Using radial grid of 1095 points,  4 beta functions with: 
                l(1) =   0
                l(2) =   0
                l(3) =   1
                l(4) =   1
     Q(r) pseudized with 0 coefficients 


     atomic species   valence    mass     pseudopotential
        Zn            12.00    63.38000     Zn( 1.00)
        O              6.00    15.99900     O ( 1.00)

     No symmetry found



   Cartesian axes

     site n.     atom                  positions (alat units)
         1           Zn  tau(   1) = (   0.5732231   0.2329117   1.0778104  )
         2           Zn  tau(   2) = (  -0.3395320   0.7792194  -0.3817242  )
         3           O   tau(   3) = (   0.3465408   0.1467946   1.0162730  )
         4           O   tau(   4) = (   0.1188648   0.4549521   0.9587796  )

     number of k points=   112

     Number of k-points >= 100: set verbosity='high' to print them.

     Dense  grid:    46835 G-vectors     FFT dimensions: (  45,  45,  72)

     Smooth grid:    16563 G-vectors     FFT dimensions: (  30,  30,  45)

     Estimated max dynamical RAM per process >      32.29 MB

     Estimated total dynamical RAM >     258.31 MB

     Check: negative core charge=   -0.000002

     Initial potential from superposition of free atoms

     starting charge      35.9925, renormalised to      36.0000
     Starting wfcs are   26 randomized atomic wfcs

     total cpu time spent up to now is        4.3 secs

     Self-consistent Calculation

     iteration #  1     ecut=    50.00 Ry     beta= 0.30
     Davidson diagonalization with overlap
     ethr =  1.00E-02,  avg # of iterations =  6.5

     total cpu time spent up to now is       13.4 secs

     total energy              =    -352.08087348 Ry
     estimated scf accuracy    <       1.20337967 Ry

     iteration #  2     ecut=    50.00 Ry     beta= 0.30
     Davidson diagonalization with overlap
     ethr =  3.34E-03,  avg # of iterations =  6.1

     total cpu time spent up to now is       20.4 secs

     total energy              =    -352.29610797 Ry
     estimated scf accuracy    <       0.23395878 Ry

     iteration #  3     ecut=    50.00 Ry     beta= 0.30
     Davidson diagonalization with overlap
     ethr =  6.50E-04,  avg # of iterations =  6.1

     total cpu time spent up to now is       28.7 secs

     total energy              =    -352.36410666 Ry
     estimated scf accuracy    <       0.08231449 Ry

     iteration #  4     ecut=    50.00 Ry     beta= 0.30
     Davidson diagonalization with overlap
     ethr =  2.29E-04,  avg # of iterations =  6.2

     total cpu time spent up to now is       35.7 secs

     total energy              =    -352.37645723 Ry
     estimated scf accuracy    <       0.01933745 Ry

     iteration #  5     ecut=    50.00 Ry     beta= 0.30
     Davidson diagonalization with overlap
     ethr =  5.37E-05,  avg # of iterations =  5.7

     total cpu time spent up to now is       44.0 secs

     total energy              =    -352.37451442 Ry
     estimated scf accuracy    <       0.01908143 Ry

     iteration #  6     ecut=    50.00 Ry     beta= 0.30
     Davidson diagonalization with overlap
     ethr =  5.30E-05,  avg # of iterations =  5.6

     total cpu time spent up to now is       51.7 secs

     total energy              =    -352.37966961 Ry
     estimated scf accuracy    <       0.00372502 Ry

     iteration #  7     ecut=    50.00 Ry     beta= 0.30
     Davidson diagonalization with overlap
     ethr =  1.03E-05,  avg # of iterations =  5.7

     total cpu time spent up to now is       59.1 secs

     total energy              =    -352.37865301 Ry
     estimated scf accuracy    <       0.00396902 Ry

     iteration #  8     ecut=    50.00 Ry     beta= 0.30
     Davidson diagonalization with overlap
     ethr =  1.03E-05,  avg # of iterations =  6.3

     total cpu time spent up to now is       66.6 secs

     total energy              =    -352.37964153 Ry
     estimated scf accuracy    <       0.00021770 Ry

     iteration #  9     ecut=    50.00 Ry     beta= 0.30
     Davidson diagonalization with overlap
     ethr =  6.05E-07,  avg # of iterations =  8.1

     total cpu time spent up to now is       76.8 secs

     total energy              =    -352.37980621 Ry
     estimated scf accuracy    <       0.00002808 Ry

     iteration # 10     ecut=    50.00 Ry     beta= 0.30
     Davidson diagonalization with overlap
     ethr =  7.80E-08,  avg # of iterations =  8.9

     total cpu time spent up to now is       88.2 secs

     total energy              =    -352.37981699 Ry
     estimated scf accuracy    <       0.00004570 Ry

     iteration # 11     ecut=    50.00 Ry     beta= 0.30
     Davidson diagonalization with overlap
     ethr =  7.80E-08,  avg # of iterations =  5.0

     total cpu time spent up to now is       95.6 secs

     total energy              =    -352.37981953 Ry
     estimated scf accuracy    <       0.00000862 Ry

     iteration # 12     ecut=    50.00 Ry     beta= 0.30
     Davidson diagonalization with overlap
     ethr =  2.39E-08,  avg # of iterations =  8.1

     total cpu time spent up to now is      105.9 secs

     total energy              =    -352.37982241 Ry
     estimated scf accuracy    <       0.00000876 Ry

     iteration # 13     ecut=    50.00 Ry     beta= 0.30
     Davidson diagonalization with overlap
     ethr =  2.39E-08,  avg # of iterations =  2.3

     total cpu time spent up to now is      111.4 secs

     total energy              =    -352.37982158 Ry
     estimated scf accuracy    <       0.00000250 Ry

     iteration # 14     ecut=    50.00 Ry     beta= 0.30
     Davidson diagonalization with overlap
     c_bands:  1 eigenvalues not converged
     c_bands:  1 eigenvalues not converged
     c_bands:  1 eigenvalues not converged
     c_bands:  1 eigenvalues not converged
     c_bands:  1 eigenvalues not converged
     c_bands:  1 eigenvalues not converged
     ethr =  6.94E-09,  avg # of iterations =  9.7

     total cpu time spent up to now is      122.9 secs

     total energy              =    -352.37982363 Ry
     estimated scf accuracy    <       0.00000368 Ry

     iteration # 15     ecut=    50.00 Ry     beta= 0.30
     Davidson diagonalization with overlap
     ethr =  6.94E-09,  avg # of iterations =  2.0

     total cpu time spent up to now is      127.9 secs

     total energy              =    -352.37982298 Ry
     estimated scf accuracy    <       0.00000171 Ry

     iteration # 16     ecut=    50.00 Ry     beta= 0.30
     Davidson diagonalization with overlap
     ethr =  4.76E-09,  avg # of iterations =  7.1

     total cpu time spent up to now is      136.0 secs

     total energy              =    -352.37982365 Ry
     estimated scf accuracy    <       0.00000031 Ry

     iteration # 17     ecut=    50.00 Ry     beta= 0.30
     Davidson diagonalization with overlap
     ethr =  8.73E-10,  avg # of iterations =  4.3

     total cpu time spent up to now is      142.0 secs

     total energy              =    -352.37982366 Ry
     estimated scf accuracy    <       0.00000007 Ry

     iteration # 18     ecut=    50.00 Ry     beta= 0.30
     Davidson diagonalization with overlap
     ethr =  2.02E-10,  avg # of iterations =  8.3

     total cpu time spent up to now is      151.7 secs

     total energy              =    -352.37982370 Ry
     estimated scf accuracy    <       0.00000003 Ry

     iteration # 19     ecut=    50.00 Ry     beta= 0.30
     Davidson diagonalization with overlap
     ethr =  9.61E-11,  avg # of iterations =  5.9

     total cpu time spent up to now is      158.4 secs

     End of self-consistent calculation

     Number of k-points >= 100: set verbosity='high' to print the bands.

     highest occupied level (ev):     9.7561

!    total energy              =    -352.37982371 Ry
     estimated scf accuracy    <          6.2E-10 Ry

     The total energy is the sum of the following terms:
     one-electron contribution =    -462.80782626 Ry
     hartree contribution      =     265.17717567 Ry
     xc contribution           =    -112.41357974 Ry
     ewald contribution        =     -42.33559338 Ry

     convergence has been achieved in  19 iterations

     Forces acting on atoms (cartesian axes, Ry/au):

     atom    1 type  1   force =    17.13610431    6.32198950    4.38956246
     atom    2 type  1   force =    -1.75135151   -1.91592493    2.00175089
     atom    3 type  2   force =   -14.94278519   -4.87827402   -6.10806950
     atom    4 type  2   force =    -0.44196761    0.47220944   -0.28324385
     The non-local contrib.  to forces
     atom    1 type  1   force =    -4.31064476   -1.06397279   -1.03697207
     atom    2 type  1   force =     0.41107301    0.17312291   -0.37433197
     atom    3 type  2   force =    -0.52930766    1.44048979    0.26339661
     atom    4 type  2   force =     0.59284670   -1.42406211    0.31945778
     The ionic contribution  to forces
     atom    1 type  1   force =    55.03904589   15.80293950    7.26654488
     atom    2 type  1   force =   -16.23265471  -14.08246950   40.90725532
     atom    3 type  2   force =   -32.29096403  -10.55838840  -30.33404275
     atom    4 type  2   force =    -6.51542715    8.83791840  -17.83975744
     The local contribution  to forces
     atom    1 type  1   force =   -32.89118250   -8.14402581   -1.66913148
     atom    2 type  1   force =    13.91277487   11.82549664  -38.35772520
     atom    3 type  2   force =    17.84865312    4.24622497   23.95033786
     atom    4 type  2   force =     5.48349662   -6.95273734   17.23714688
     The core correction contribution to forces
     atom    1 type  1   force =    -0.70118696   -0.27297413   -0.17089194
     atom    2 type  1   force =     0.15750052    0.16796376   -0.17345085
     atom    3 type  2   force =     0.02883264   -0.00659554    0.01223502
     atom    4 type  2   force =    -0.00285590    0.01106563   -0.00009266
     The Hubbard contrib.    to forces
     atom    1 type  1   force =     0.00000000    0.00000000    0.00000000
     atom    2 type  1   force =     0.00000000    0.00000000    0.00000000
     atom    3 type  2   force =     0.00000000    0.00000000    0.00000000
     atom    4 type  2   force =     0.00000000    0.00000000    0.00000000
     The SCF correction term to forces
     atom    1 type  1   force =     0.00007616    0.00002353   -0.00000303
     atom    2 type  1   force =    -0.00004169   -0.00003792   -0.00001251
     atom    3 type  2   force =     0.00000426   -0.00000404   -0.00001235
     atom    4 type  2   force =    -0.00002436    0.00002567   -0.00001451

     Total force =    25.466023     Total SCF correction =     0.000107

     Writing all to output data dir ./ZnO_ANN.save/

     init_run     :      3.72s CPU      3.81s WALL (       1 calls)
     electrons    :    151.59s CPU    154.18s WALL (       1 calls)
     forces       :      1.17s CPU      1.19s WALL (       1 calls)

     Called by init_run:
     wfcinit      :      2.68s CPU      2.73s WALL (       1 calls)
     potinit      :      0.32s CPU      0.32s WALL (       1 calls)
     hinit0       :      0.65s CPU      0.66s WALL (       1 calls)

     Called by electrons:
     c_bands      :    135.82s CPU    138.07s WALL (      19 calls)
     sum_band     :     14.23s CPU     14.53s WALL (      19 calls)
     v_of_rho     :      0.37s CPU      0.41s WALL (      20 calls)
     newd         :      1.15s CPU      1.17s WALL (      20 calls)
     mix_rho      :      0.06s CPU      0.06s WALL (      19 calls)

     Called by c_bands:
     init_us_2    :      0.97s CPU      0.98s WALL (    4480 calls)
     init_us_2:cp :      0.95s CPU      0.97s WALL (    4480 calls)
     cegterg      :    132.53s CPU    134.73s WALL (    2128 calls)

     Called by *egterg:
     cdiaghg      :     16.54s CPU     16.71s WALL (   15322 calls)
     h_psi        :     76.11s CPU     77.73s WALL (   15434 calls)
     s_psi        :      8.08s CPU      8.17s WALL (   15434 calls)
     g_psi        :      0.26s CPU      0.27s WALL (   13194 calls)

     Called by h_psi:
     h_psi:calbec :     10.48s CPU     10.79s WALL (   15434 calls)
     vloc_psi     :     57.30s CPU     58.52s WALL (   15434 calls)
     add_vuspsi   :      8.08s CPU      8.17s WALL (   15434 calls)

     General routines
     calbec       :     14.21s CPU     14.61s WALL (   18010 calls)
     fft          :      0.47s CPU      0.51s WALL (     269 calls)
     ffts         :      0.11s CPU      0.11s WALL (      39 calls)
     fftw         :     58.50s CPU     59.74s WALL (  289476 calls)
     interpolate  :      0.13s CPU      0.13s WALL (      20 calls)

     Parallel routines

     PWSCF        :   2m37.21s CPU   2m40.10s WALL


   This run was terminated on:  17:40:49  24Jun2025            

=------------------------------------------------------------------------------=
   JOB DONE.
=------------------------------------------------------------------------------=
Note: The following floating-point exceptions are signalling: IEEE_INVALID_FLAG
