
     Program PWSCF v.7.2 starts on 24Jun2025 at 19:41:19 

     This program is part of the open-source Quantum ESPRESSO suite
     for quantum simulation of materials; please cite
         "P. Giannozzi et al., J. Phys.:Condens. Matter 21 395502 (2009);
         "P. Giannozzi et al., J. Phys.:Condens. Matter 29 465901 (2017);
         "P. Giannozzi et al., J. Chem. Phys. 152 154105 (2020);
          URL http://www.quantum-espresso.org", 
     in publications or presentations arising from this work. More details at
     http://www.quantum-espresso.org/quote

     Parallel version (MPI), running on     8 processors

     MPI processes distributed on     1 nodes
     90711 MiB available memory on the printing compute node when the environment starts

     Reading input from /home/jvc/QEspresso7.2/ZnO_DataBase/scf_025_NOSYM.in/scf-6.67-1.49-0.25-1.in

     Current dimensions of program PWSCF are:
     Max number of different atomic species (ntypx) = 10
     Max number of k-points (npk) =  40000
     Max angular momentum in pseudopotentials (lmaxx) =  4
     file Zn.upf: wavefunction(s)  3D renormalized

     R & G space division:  proc/nbgrp/npool/nimage =       8
     Subspace diagonalization in iterative solution of the eigenvalue problem:
     a serial algorithm will be used


     Parallelization info
     --------------------
     sticks:   dense  smooth     PW     G-vecs:    dense   smooth      PW
     Min         154      75     23                 6952     2457     407
     Max         155      78     24                 6957     2461     412
     Sum        1237     613    187                55639    19669    3273

     Using Slab Decomposition



     bravais-lattice index     =            0
     lattice parameter (alat)  =       6.6731  a.u.
     unit-cell volume          =     411.7549 (a.u.)^3
     number of atoms/cell      =            4
     number of atomic types    =            2
     number of electrons       =        36.00
     number of Kohn-Sham states=           18
     kinetic-energy cutoff     =      50.0000  Ry
     charge density cutoff     =     400.0000  Ry
     scf convergence threshold =      1.0E-08
     mixing beta               =       0.3000
     number of iterations used =            8  plain     mixing
     Exchange-correlation= PBE
                           (   1   4   3   4   0   0   0)

     celldm(1)=   6.673127  celldm(2)=   0.000000  celldm(3)=   0.000000
     celldm(4)=   0.000000  celldm(5)=   0.000000  celldm(6)=   0.000000

     crystal axes: (cart. coord. in units of alat)
               a(1) = (   1.000000   0.000000   0.000000 )  
               a(2) = (  -0.500000   0.866025   0.000000 )  
               a(3) = (   0.000000   0.000000   1.600000 )  

     reciprocal axes: (cart. coord. in units 2 pi/alat)
               b(1) = (  1.000000  0.577350 -0.000000 )  
               b(2) = (  0.000000  1.154701  0.000000 )  
               b(3) = (  0.000000 -0.000000  0.625000 )  


     PseudoPot. # 1 for Zn read from file:
     ./pseudos/Zn.upf
     MD5 check sum: 7f56cabf9682ed8c977c2f7d0c5985c5
     Pseudo is Ultrasoft + core correction, Zval = 12.0
     Generated using &quot;atomic&quot; code by A. Dal Corso  v.6.2.2
     Using radial grid of 1201 points,  6 beta functions with: 
                l(1) =   0
                l(2) =   0
                l(3) =   1
                l(4) =   1
                l(5) =   2
                l(6) =   2
     Q(r) pseudized with 0 coefficients 


     PseudoPot. # 2 for O  read from file:
     ./pseudos/O.upf
     MD5 check sum: 91400c9766925bcf19f520983a725ff0
     Pseudo is Ultrasoft + core correction, Zval =  6.0
     Generated using &quot;atomic&quot; code by A. Dal Corso  v.6.3MaX
     Using radial grid of 1095 points,  4 beta functions with: 
                l(1) =   0
                l(2) =   0
                l(3) =   1
                l(4) =   1
     Q(r) pseudized with 0 coefficients 


     atomic species   valence    mass     pseudopotential
        Zn            12.00    63.38000     Zn( 1.00)
        O              6.00    15.99900     O ( 1.00)

     No symmetry found



   Cartesian axes

     site n.     atom                  positions (alat units)
         1           Zn  tau(   1) = (   0.4683474   0.3188333   0.6773075  )
         2           Zn  tau(   2) = (  -0.1907098   0.6104643  -0.3343504  )
         3           O   tau(   3) = (   0.6909612   0.0844100   1.3411150  )
         4           O   tau(   4) = (   0.2263750   0.5381743   0.8234068  )

     number of k points=   112

     Number of k-points >= 100: set verbosity='high' to print them.

     Dense  grid:    55639 G-vectors     FFT dimensions: (  45,  45,  72)

     Smooth grid:    19669 G-vectors     FFT dimensions: (  32,  32,  50)

     Estimated max dynamical RAM per process >      37.53 MB

     Estimated total dynamical RAM >     300.20 MB

     Check: negative core charge=   -0.000002

     Initial potential from superposition of free atoms

     starting charge      35.9925, renormalised to      36.0000
     Starting wfcs are   26 randomized atomic wfcs

     total cpu time spent up to now is        4.6 secs

     Self-consistent Calculation

     iteration #  1     ecut=    50.00 Ry     beta= 0.30
     Davidson diagonalization with overlap
     ethr =  1.00E-02,  avg # of iterations =  2.2

     total cpu time spent up to now is       10.8 secs

     total energy              =    -360.45891646 Ry
     estimated scf accuracy    <       1.41175956 Ry

     iteration #  2     ecut=    50.00 Ry     beta= 0.30
     Davidson diagonalization with overlap
     ethr =  3.92E-03,  avg # of iterations =  2.0

     total cpu time spent up to now is       17.2 secs

     total energy              =    -360.50584552 Ry
     estimated scf accuracy    <       0.25766636 Ry

     iteration #  3     ecut=    50.00 Ry     beta= 0.30
     Davidson diagonalization with overlap
     ethr =  7.16E-04,  avg # of iterations =  8.2

     total cpu time spent up to now is       30.8 secs

     total energy              =    -360.71415261 Ry
     estimated scf accuracy    <       0.77953765 Ry

     iteration #  4     ecut=    50.00 Ry     beta= 0.30
     Davidson diagonalization with overlap
     ethr =  7.16E-04,  avg # of iterations =  2.3

     total cpu time spent up to now is       37.1 secs

     total energy              =    -360.48532072 Ry
     estimated scf accuracy    <       0.32050540 Ry

     iteration #  5     ecut=    50.00 Ry     beta= 0.30
     Davidson diagonalization with overlap
     ethr =  7.16E-04,  avg # of iterations =  9.0

     total cpu time spent up to now is       54.0 secs

     total energy              =    -360.78031444 Ry
     estimated scf accuracy    <       1.55513133 Ry

     iteration #  6     ecut=    50.00 Ry     beta= 0.30
     Davidson diagonalization with overlap
     ethr =  7.16E-04,  avg # of iterations =  4.2

     total cpu time spent up to now is       61.8 secs

     total energy              =    -360.64662580 Ry
     estimated scf accuracy    <       0.54100330 Ry

     iteration #  7     ecut=    50.00 Ry     beta= 0.30
     Davidson diagonalization with overlap
     ethr =  7.16E-04,  avg # of iterations =  5.2

     total cpu time spent up to now is       70.8 secs

     total energy              =    -360.75577234 Ry
     estimated scf accuracy    <       0.00623518 Ry

     iteration #  8     ecut=    50.00 Ry     beta= 0.30
     Davidson diagonalization with overlap
     c_bands:  1 eigenvalues not converged
     ethr =  1.73E-05,  avg # of iterations =  9.3

     total cpu time spent up to now is       85.4 secs

     total energy              =    -360.77386167 Ry
     estimated scf accuracy    <       0.01614869 Ry

     iteration #  9     ecut=    50.00 Ry     beta= 0.30
     Davidson diagonalization with overlap
     ethr =  1.73E-05,  avg # of iterations =  1.4

     total cpu time spent up to now is       90.7 secs

     total energy              =    -360.76374780 Ry
     estimated scf accuracy    <       0.01935643 Ry

     iteration # 10     ecut=    50.00 Ry     beta= 0.30
     Davidson diagonalization with overlap
     ethr =  1.73E-05,  avg # of iterations =  6.5

     total cpu time spent up to now is      102.4 secs

     total energy              =    -360.76975600 Ry
     estimated scf accuracy    <       0.00161063 Ry

     iteration # 11     ecut=    50.00 Ry     beta= 0.30
     Davidson diagonalization with overlap
     ethr =  4.47E-06,  avg # of iterations =  5.2

     total cpu time spent up to now is      110.4 secs

     total energy              =    -360.76872751 Ry
     estimated scf accuracy    <       0.00504488 Ry

     iteration # 12     ecut=    50.00 Ry     beta= 0.30
     Davidson diagonalization with overlap
     ethr =  4.47E-06,  avg # of iterations =  2.5

     total cpu time spent up to now is      116.7 secs

     total energy              =    -360.76771716 Ry
     estimated scf accuracy    <       0.00223749 Ry

     iteration # 13     ecut=    50.00 Ry     beta= 0.30
     Davidson diagonalization with overlap
     ethr =  4.47E-06,  avg # of iterations =  7.2

     total cpu time spent up to now is      128.3 secs

     total energy              =    -360.76862039 Ry
     estimated scf accuracy    <       0.00157453 Ry

     iteration # 14     ecut=    50.00 Ry     beta= 0.30
     Davidson diagonalization with overlap
     ethr =  4.37E-06,  avg # of iterations =  2.3

     total cpu time spent up to now is      134.3 secs

     total energy              =    -360.76870721 Ry
     estimated scf accuracy    <       0.00034933 Ry

     iteration # 15     ecut=    50.00 Ry     beta= 0.30
     Davidson diagonalization with overlap
     ethr =  9.70E-07,  avg # of iterations =  5.5

     total cpu time spent up to now is      143.2 secs

     total energy              =    -360.76886220 Ry
     estimated scf accuracy    <       0.00002478 Ry

     iteration # 16     ecut=    50.00 Ry     beta= 0.30
     Davidson diagonalization with overlap
     c_bands:  1 eigenvalues not converged
     c_bands:  1 eigenvalues not converged
     ethr =  6.88E-08,  avg # of iterations =  9.2

     total cpu time spent up to now is      156.2 secs

     total energy              =    -360.76888270 Ry
     estimated scf accuracy    <       0.00007018 Ry

     iteration # 17     ecut=    50.00 Ry     beta= 0.30
     Davidson diagonalization with overlap
     ethr =  6.88E-08,  avg # of iterations =  5.1

     total cpu time spent up to now is      163.2 secs

     total energy              =    -360.76886733 Ry
     estimated scf accuracy    <       0.00003146 Ry

     iteration # 18     ecut=    50.00 Ry     beta= 0.30
     Davidson diagonalization with overlap
     ethr =  6.88E-08,  avg # of iterations =  7.2

     total cpu time spent up to now is      175.8 secs

     total energy              =    -360.76889305 Ry
     estimated scf accuracy    <       0.00004791 Ry

     iteration # 19     ecut=    50.00 Ry     beta= 0.30
     Davidson diagonalization with overlap
     ethr =  6.88E-08,  avg # of iterations =  1.9

     total cpu time spent up to now is      181.3 secs

     total energy              =    -360.76889054 Ry
     estimated scf accuracy    <       0.00004726 Ry

     iteration # 20     ecut=    50.00 Ry     beta= 0.30
     Davidson diagonalization with overlap
     ethr =  6.88E-08,  avg # of iterations =  1.5

     total cpu time spent up to now is      186.7 secs

     total energy              =    -360.76888970 Ry
     estimated scf accuracy    <       0.00003746 Ry

     iteration # 21     ecut=    50.00 Ry     beta= 0.30
     Davidson diagonalization with overlap
     ethr =  6.88E-08,  avg # of iterations =  1.0

     total cpu time spent up to now is      192.0 secs

     total energy              =    -360.76888705 Ry
     estimated scf accuracy    <       0.00003346 Ry

     iteration # 22     ecut=    50.00 Ry     beta= 0.30
     Davidson diagonalization with overlap
     ethr =  6.88E-08,  avg # of iterations =  1.0

     total cpu time spent up to now is      197.1 secs

     total energy              =    -360.76888529 Ry
     estimated scf accuracy    <       0.00002468 Ry

     iteration # 23     ecut=    50.00 Ry     beta= 0.30
     Davidson diagonalization with overlap
     ethr =  6.85E-08,  avg # of iterations =  1.0

     total cpu time spent up to now is      202.2 secs

     total energy              =    -360.76887760 Ry
     estimated scf accuracy    <       0.00001718 Ry

     iteration # 24     ecut=    50.00 Ry     beta= 0.30
     Davidson diagonalization with overlap
     ethr =  4.77E-08,  avg # of iterations =  6.0

     total cpu time spent up to now is      210.7 secs

     total energy              =    -360.76888323 Ry
     estimated scf accuracy    <       0.00000271 Ry

     iteration # 25     ecut=    50.00 Ry     beta= 0.30
     Davidson diagonalization with overlap
     ethr =  7.54E-09,  avg # of iterations =  5.5

     total cpu time spent up to now is      219.0 secs

     total energy              =    -360.76888369 Ry
     estimated scf accuracy    <       0.00000204 Ry

     iteration # 26     ecut=    50.00 Ry     beta= 0.30
     Davidson diagonalization with overlap
     ethr =  5.67E-09,  avg # of iterations =  1.8

     total cpu time spent up to now is      224.6 secs

     total energy              =    -360.76888323 Ry
     estimated scf accuracy    <       0.00000117 Ry

     iteration # 27     ecut=    50.00 Ry     beta= 0.30
     Davidson diagonalization with overlap
     ethr =  3.26E-09,  avg # of iterations =  6.1

     total cpu time spent up to now is      235.2 secs

     total energy              =    -360.76888354 Ry
     estimated scf accuracy    <       0.00000138 Ry

     iteration # 28     ecut=    50.00 Ry     beta= 0.30
     Davidson diagonalization with overlap
     ethr =  3.26E-09,  avg # of iterations =  2.1

     total cpu time spent up to now is      241.2 secs

     total energy              =    -360.76888350 Ry
     estimated scf accuracy    <       0.00000038 Ry

     iteration # 29     ecut=    50.00 Ry     beta= 0.30
     Davidson diagonalization with overlap
     ethr =  1.06E-09,  avg # of iterations =  6.7

     total cpu time spent up to now is      251.7 secs

     total energy              =    -360.76888370 Ry
     estimated scf accuracy    <       0.00000016 Ry

     iteration # 30     ecut=    50.00 Ry     beta= 0.30
     Davidson diagonalization with overlap
     ethr =  4.57E-10,  avg # of iterations =  5.3

     total cpu time spent up to now is      259.9 secs

     total energy              =    -360.76888392 Ry
     estimated scf accuracy    <       0.00000002 Ry

     iteration # 31     ecut=    50.00 Ry     beta= 0.30
     Davidson diagonalization with overlap
     c_bands:  3 eigenvalues not converged
     c_bands:  2 eigenvalues not converged
     c_bands:  1 eigenvalues not converged
     c_bands:  1 eigenvalues not converged
     c_bands:  1 eigenvalues not converged
     c_bands:  1 eigenvalues not converged
     ethr =  6.88E-11,  avg # of iterations = 14.4

     total cpu time spent up to now is      284.3 secs

     total energy              =    -360.76888421 Ry
     estimated scf accuracy    <       0.00000274 Ry

     iteration # 32     ecut=    50.00 Ry     beta= 0.30
     Davidson diagonalization with overlap
     ethr =  6.88E-11,  avg # of iterations =  2.2

     total cpu time spent up to now is      290.3 secs

     total energy              =    -360.76888363 Ry
     estimated scf accuracy    <       0.00000250 Ry

     iteration # 33     ecut=    50.00 Ry     beta= 0.30
     Davidson diagonalization with overlap
     c_bands:  3 eigenvalues not converged
     ethr =  6.88E-11,  avg # of iterations = 12.1

     total cpu time spent up to now is      311.1 secs

     total energy              =    -360.76888359 Ry
     estimated scf accuracy    <       0.00000033 Ry

     iteration # 34     ecut=    50.00 Ry     beta= 0.30
     Davidson diagonalization with overlap
     c_bands:  3 eigenvalues not converged
     c_bands:  2 eigenvalues not converged
     c_bands:  1 eigenvalues not converged
     c_bands:  1 eigenvalues not converged
     ethr =  6.88E-11,  avg # of iterations = 14.6

     total cpu time spent up to now is      333.7 secs

     total energy              =    -360.76888372 Ry
     estimated scf accuracy    <       0.00000049 Ry

     iteration # 35     ecut=    50.00 Ry     beta= 0.30
     Davidson diagonalization with overlap
     ethr =  6.88E-11,  avg # of iterations =  8.3

     total cpu time spent up to now is      346.9 secs

     total energy              =    -360.76888373 Ry
     estimated scf accuracy    <       0.00000008 Ry

     iteration # 36     ecut=    50.00 Ry     beta= 0.30
     Davidson diagonalization with overlap
     ethr =  6.88E-11,  avg # of iterations =  7.1

     total cpu time spent up to now is      356.9 secs

     End of self-consistent calculation

     Number of k-points >= 100: set verbosity='high' to print the bands.

     highest occupied level (ev):     4.8756

!    total energy              =    -360.76888374 Ry
     estimated scf accuracy    <          1.2E-09 Ry

     The total energy is the sum of the following terms:
     one-electron contribution =    -241.25835259 Ry
     hartree contribution      =     157.27583477 Ry
     xc contribution           =    -109.60979004 Ry
     ewald contribution        =    -167.17657589 Ry

     convergence has been achieved in  36 iterations

     Forces acting on atoms (cartesian axes, Ry/au):

     atom    1 type  1   force =     1.30162818   -1.21646452   -0.78114406
     atom    2 type  1   force =    -0.03172900   -0.02203346    0.04458198
     atom    3 type  2   force =     0.03571256    0.06326030    0.05651051
     atom    4 type  2   force =    -1.30561174    1.17523768    0.68005158
     The non-local contrib.  to forces
     atom    1 type  1   force =     0.91517266   -0.72065544   -0.51047559
     atom    2 type  1   force =    -0.36477095    0.04375831   -0.18185712
     atom    3 type  2   force =    -0.45447545    0.29405825   -0.10734566
     atom    4 type  2   force =     0.51951791   -0.62513019   -0.71625086
     The ionic contribution  to forces
     atom    1 type  1   force =    11.51955824  -11.49383651  -27.10688180
     atom    2 type  1   force =    -3.02974226    1.12398650   16.45975265
     atom    3 type  2   force =     2.97553686   -0.11702479   11.32115516
     atom    4 type  2   force =   -11.46535284   10.48687480   -0.67402601
     The local contribution  to forces
     atom    1 type  1   force =   -10.98003282   10.86324672   26.73351997
     atom    2 type  1   force =     3.33446572   -1.18501916  -16.23777713
     atom    3 type  2   force =    -2.48930853   -0.11061264  -11.15750455
     atom    4 type  2   force =     9.63863322   -8.68647631    2.06686038
     The core correction contribution to forces
     atom    1 type  1   force =    -0.15305314    0.13475545    0.10266573
     atom    2 type  1   force =     0.02833114   -0.00476123    0.00451536
     atom    3 type  2   force =     0.00395463   -0.00315462    0.00021869
     atom    4 type  2   force =     0.00158115   -0.00002293    0.00348160
     The Hubbard contrib.    to forces
     atom    1 type  1   force =     0.00000000    0.00000000    0.00000000
     atom    2 type  1   force =     0.00000000    0.00000000    0.00000000
     atom    3 type  2   force =     0.00000000    0.00000000    0.00000000
     atom    4 type  2   force =     0.00000000    0.00000000    0.00000000
     The SCF correction term to forces
     atom    1 type  1   force =    -0.00001771    0.00002693    0.00001847
     atom    2 type  1   force =    -0.00001359    0.00000377   -0.00006094
     atom    3 type  2   force =     0.00000411   -0.00000423   -0.00002229
     atom    4 type  2   force =     0.00000788   -0.00000602   -0.00002268

     Total force =     2.710062     Total SCF correction =     0.000080

     Writing all to output data dir ./ZnO_ANN.save/

     init_run     :      4.02s CPU      4.13s WALL (       1 calls)
     electrons    :    346.63s CPU    352.28s WALL (       1 calls)
     forces       :      1.39s CPU      1.40s WALL (       1 calls)

     Called by init_run:
     wfcinit      :      2.88s CPU      2.95s WALL (       1 calls)
     potinit      :      0.39s CPU      0.40s WALL (       1 calls)
     hinit0       :      0.66s CPU      0.67s WALL (       1 calls)

     Called by electrons:
     c_bands      :    313.79s CPU    318.77s WALL (      36 calls)
     sum_band     :     29.30s CPU     29.90s WALL (      36 calls)
     v_of_rho     :      0.74s CPU      0.78s WALL (      37 calls)
     newd         :      2.67s CPU      2.70s WALL (      37 calls)
     mix_rho      :      0.13s CPU      0.13s WALL (      36 calls)

     Called by c_bands:
     init_us_2    :      2.14s CPU      2.18s WALL (    8288 calls)
     init_us_2:cp :      2.11s CPU      2.16s WALL (    8288 calls)
     cegterg      :    306.32s CPU    311.19s WALL (    4032 calls)

     Called by *egterg:
     cdiaghg      :     27.59s CPU     27.79s WALL (   25670 calls)
     h_psi        :    168.83s CPU    172.39s WALL (   25782 calls)
     s_psi        :     19.84s CPU     20.00s WALL (   25782 calls)
     g_psi        :      0.69s CPU      0.70s WALL (   21638 calls)

     Called by h_psi:
     h_psi:calbec :     26.43s CPU     27.21s WALL (   25782 calls)
     vloc_psi     :    121.88s CPU    124.50s WALL (   25782 calls)
     add_vuspsi   :     20.00s CPU     20.15s WALL (   25782 calls)

     General routines
     calbec       :     34.16s CPU     35.10s WALL (   30262 calls)
     fft          :      0.97s CPU      1.04s WALL (     490 calls)
     ffts         :      0.13s CPU      0.14s WALL (      73 calls)
     fftw         :    121.51s CPU    124.11s WALL (  606664 calls)
     interpolate  :      0.16s CPU      0.17s WALL (      37 calls)

     Parallel routines

     PWSCF        :   5m52.79s CPU   5m58.88s WALL


   This run was terminated on:  19:47:18  24Jun2025            

=------------------------------------------------------------------------------=
   JOB DONE.
=------------------------------------------------------------------------------=
Note: The following floating-point exceptions are signalling: IEEE_INVALID_FLAG
