
     Program PWSCF v.7.2 starts on 24Jun2025 at 17:51:24 

     This program is part of the open-source Quantum ESPRESSO suite
     for quantum simulation of materials; please cite
         "P. Giannozzi et al., J. Phys.:Condens. Matter 21 395502 (2009);
         "P. Giannozzi et al., J. Phys.:Condens. Matter 29 465901 (2017);
         "P. Giannozzi et al., J. Chem. Phys. 152 154105 (2020);
          URL http://www.quantum-espresso.org", 
     in publications or presentations arising from this work. More details at
     http://www.quantum-espresso.org/quote

     Parallel version (MPI), running on     8 processors

     MPI processes distributed on     1 nodes
     91013 MiB available memory on the printing compute node when the environment starts

     Reading input from /home/jvc/QEspresso7.2/ZnO_DataBase/scf_025_NOSYM.in/scf-6.30-1.68-0.25-2.in

     Current dimensions of program PWSCF are:
     Max number of different atomic species (ntypx) = 10
     Max number of k-points (npk) =  40000
     Max angular momentum in pseudopotentials (lmaxx) =  4
     file Zn.upf: wavefunction(s)  3D renormalized

     R & G space division:  proc/nbgrp/npool/nimage =       8
     Subspace diagonalization in iterative solution of the eigenvalue problem:
     a serial algorithm will be used


     Parallelization info
     --------------------
     sticks:   dense  smooth     PW     G-vecs:    dense   smooth      PW
     Min         137      68     20                 5853     2068     346
     Max         138      69     21                 5856     2075     353
     Sum        1099     547    163                46835    16563    2791

     Using Slab Decomposition



     bravais-lattice index     =            0
     lattice parameter (alat)  =       6.3024  a.u.
     unit-cell volume          =     346.8711 (a.u.)^3
     number of atoms/cell      =            4
     number of atomic types    =            2
     number of electrons       =        36.00
     number of Kohn-Sham states=           18
     kinetic-energy cutoff     =      50.0000  Ry
     charge density cutoff     =     400.0000  Ry
     scf convergence threshold =      1.0E-08
     mixing beta               =       0.3000
     number of iterations used =            8  plain     mixing
     Exchange-correlation= PBE
                           (   1   4   3   4   0   0   0)

     celldm(1)=   6.302398  celldm(2)=   0.000000  celldm(3)=   0.000000
     celldm(4)=   0.000000  celldm(5)=   0.000000  celldm(6)=   0.000000

     crystal axes: (cart. coord. in units of alat)
               a(1) = (   1.000000   0.000000   0.000000 )  
               a(2) = (  -0.500000   0.866025   0.000000 )  
               a(3) = (   0.000000   0.000000   1.600000 )  

     reciprocal axes: (cart. coord. in units 2 pi/alat)
               b(1) = (  1.000000  0.577350 -0.000000 )  
               b(2) = (  0.000000  1.154701  0.000000 )  
               b(3) = (  0.000000 -0.000000  0.625000 )  


     PseudoPot. # 1 for Zn read from file:
     ./pseudos/Zn.upf
     MD5 check sum: 7f56cabf9682ed8c977c2f7d0c5985c5
     Pseudo is Ultrasoft + core correction, Zval = 12.0
     Generated using &quot;atomic&quot; code by A. Dal Corso  v.6.2.2
     Using radial grid of 1201 points,  6 beta functions with: 
                l(1) =   0
                l(2) =   0
                l(3) =   1
                l(4) =   1
                l(5) =   2
                l(6) =   2
     Q(r) pseudized with 0 coefficients 


     PseudoPot. # 2 for O  read from file:
     ./pseudos/O.upf
     MD5 check sum: 91400c9766925bcf19f520983a725ff0
     Pseudo is Ultrasoft + core correction, Zval =  6.0
     Generated using &quot;atomic&quot; code by A. Dal Corso  v.6.3MaX
     Using radial grid of 1095 points,  4 beta functions with: 
                l(1) =   0
                l(2) =   0
                l(3) =   1
                l(4) =   1
     Q(r) pseudized with 0 coefficients 


     atomic species   valence    mass     pseudopotential
        Zn            12.00    63.38000     Zn( 1.00)
        O              6.00    15.99900     O ( 1.00)

     No symmetry found



   Cartesian axes

     site n.     atom                  positions (alat units)
         1           Zn  tau(   1) = (   0.3235191   0.4194054   0.6756379  )
         2           Zn  tau(   2) = (   0.2520984   0.4112498   0.1994177  )
         3           O   tau(   3) = (   0.5916090   0.2058878   1.6000770  )
         4           O   tau(   4) = (  -0.1266951   0.6874993   0.3274906  )

     number of k points=   112

     Number of k-points >= 100: set verbosity='high' to print them.

     Dense  grid:    46835 G-vectors     FFT dimensions: (  45,  45,  72)

     Smooth grid:    16563 G-vectors     FFT dimensions: (  30,  30,  45)

     Estimated max dynamical RAM per process >      32.29 MB

     Estimated total dynamical RAM >     258.31 MB

     Check: negative core charge=   -0.000002

     Initial potential from superposition of free atoms

     starting charge      35.9925, renormalised to      36.0000
     Starting wfcs are   26 randomized atomic wfcs

     total cpu time spent up to now is        4.2 secs

     Self-consistent Calculation

     iteration #  1     ecut=    50.00 Ry     beta= 0.30
     Davidson diagonalization with overlap
     ethr =  1.00E-02,  avg # of iterations =  2.0

     total cpu time spent up to now is        9.9 secs

     total energy              =    -359.88912890 Ry
     estimated scf accuracy    <       1.70652458 Ry

     iteration #  2     ecut=    50.00 Ry     beta= 0.30
     Davidson diagonalization with overlap
     ethr =  4.74E-03,  avg # of iterations =  6.5

     total cpu time spent up to now is       17.3 secs

     total energy              =    -360.34934062 Ry
     estimated scf accuracy    <       0.15934326 Ry

     iteration #  3     ecut=    50.00 Ry     beta= 0.30
     Davidson diagonalization with overlap
     ethr =  4.43E-04,  avg # of iterations =  7.3

     total cpu time spent up to now is       26.0 secs

     total energy              =    -360.36498327 Ry
     estimated scf accuracy    <       0.16062131 Ry

     iteration #  4     ecut=    50.00 Ry     beta= 0.30
     Davidson diagonalization with overlap
     ethr =  4.43E-04,  avg # of iterations =  7.8

     total cpu time spent up to now is       33.3 secs

     total energy              =    -360.40054686 Ry
     estimated scf accuracy    <       0.04076945 Ry

     iteration #  5     ecut=    50.00 Ry     beta= 0.30
     Davidson diagonalization with overlap
     ethr =  1.13E-04,  avg # of iterations =  7.0

     total cpu time spent up to now is       40.9 secs

     total energy              =    -360.41177383 Ry
     estimated scf accuracy    <       0.01310356 Ry

     iteration #  6     ecut=    50.00 Ry     beta= 0.30
     Davidson diagonalization with overlap
     ethr =  3.64E-05,  avg # of iterations =  3.8

     total cpu time spent up to now is       47.2 secs

     total energy              =    -360.41076197 Ry
     estimated scf accuracy    <       0.00539488 Ry

     iteration #  7     ecut=    50.00 Ry     beta= 0.30
     Davidson diagonalization with overlap
     c_bands:  1 eigenvalues not converged
     c_bands:  1 eigenvalues not converged
     c_bands:  1 eigenvalues not converged
     c_bands:  1 eigenvalues not converged
     c_bands:  1 eigenvalues not converged
     c_bands:  1 eigenvalues not converged
     c_bands:  1 eigenvalues not converged
     c_bands:  1 eigenvalues not converged
     ethr =  1.50E-05,  avg # of iterations = 14.0

     total cpu time spent up to now is       59.9 secs

     total energy              =    -360.40958576 Ry
     estimated scf accuracy    <       0.04818780 Ry

     iteration #  8     ecut=    50.00 Ry     beta= 0.30
     Davidson diagonalization with overlap
     ethr =  1.50E-05,  avg # of iterations = 10.2

     total cpu time spent up to now is       69.9 secs

     total energy              =    -360.41430073 Ry
     estimated scf accuracy    <       0.00257361 Ry

     iteration #  9     ecut=    50.00 Ry     beta= 0.30
     Davidson diagonalization with overlap
     ethr =  7.15E-06,  avg # of iterations =  2.4

     total cpu time spent up to now is       75.4 secs

     total energy              =    -360.41470826 Ry
     estimated scf accuracy    <       0.00244249 Ry

     iteration # 10     ecut=    50.00 Ry     beta= 0.30
     Davidson diagonalization with overlap
     ethr =  6.78E-06,  avg # of iterations =  7.3

     total cpu time spent up to now is       84.7 secs

     total energy              =    -360.41360735 Ry
     estimated scf accuracy    <       0.00863244 Ry

     iteration # 11     ecut=    50.00 Ry     beta= 0.30
     Davidson diagonalization with overlap
     ethr =  6.78E-06,  avg # of iterations =  7.7

     total cpu time spent up to now is       92.6 secs

     total energy              =    -360.41408784 Ry
     estimated scf accuracy    <       0.00125601 Ry

     iteration # 12     ecut=    50.00 Ry     beta= 0.30
     Davidson diagonalization with overlap
     c_bands:  1 eigenvalues not converged
     ethr =  3.49E-06,  avg # of iterations =  3.7

     total cpu time spent up to now is       99.2 secs

     total energy              =    -360.41427618 Ry
     estimated scf accuracy    <       0.00040516 Ry

     iteration # 13     ecut=    50.00 Ry     beta= 0.30
     Davidson diagonalization with overlap
     ethr =  1.13E-06,  avg # of iterations =  6.5

     total cpu time spent up to now is      107.5 secs

     total energy              =    -360.41442068 Ry
     estimated scf accuracy    <       0.00017174 Ry

     iteration # 14     ecut=    50.00 Ry     beta= 0.30
     Davidson diagonalization with overlap
     ethr =  4.77E-07,  avg # of iterations =  2.3

     total cpu time spent up to now is      112.9 secs

     total energy              =    -360.41437986 Ry
     estimated scf accuracy    <       0.00014186 Ry

     iteration # 15     ecut=    50.00 Ry     beta= 0.30
     Davidson diagonalization with overlap
     c_bands:  1 eigenvalues not converged
     ethr =  3.94E-07,  avg # of iterations =  7.3

     total cpu time spent up to now is      120.8 secs

     total energy              =    -360.41443336 Ry
     estimated scf accuracy    <       0.00004073 Ry

     iteration # 16     ecut=    50.00 Ry     beta= 0.30
     Davidson diagonalization with overlap
     ethr =  1.13E-07,  avg # of iterations =  4.0

     total cpu time spent up to now is      127.3 secs

     total energy              =    -360.41442746 Ry
     estimated scf accuracy    <       0.00006578 Ry

     iteration # 17     ecut=    50.00 Ry     beta= 0.30
     Davidson diagonalization with overlap
     ethr =  1.13E-07,  avg # of iterations =  1.5

     total cpu time spent up to now is      132.3 secs

     total energy              =    -360.41441822 Ry
     estimated scf accuracy    <       0.00004231 Ry

     iteration # 18     ecut=    50.00 Ry     beta= 0.30
     Davidson diagonalization with overlap
     ethr =  1.13E-07,  avg # of iterations =  3.9

     total cpu time spent up to now is      138.4 secs

     total energy              =    -360.41442173 Ry
     estimated scf accuracy    <       0.00000680 Ry

     iteration # 19     ecut=    50.00 Ry     beta= 0.30
     Davidson diagonalization with overlap
     c_bands:  1 eigenvalues not converged
     c_bands:  1 eigenvalues not converged
     ethr =  1.89E-08,  avg # of iterations = 11.1

     total cpu time spent up to now is      149.4 secs

     total energy              =    -360.41442888 Ry
     estimated scf accuracy    <       0.00000636 Ry

     iteration # 20     ecut=    50.00 Ry     beta= 0.30
     Davidson diagonalization with overlap
     ethr =  1.77E-08,  avg # of iterations =  1.1

     total cpu time spent up to now is      154.2 secs

     total energy              =    -360.41442888 Ry
     estimated scf accuracy    <       0.00000637 Ry

     iteration # 21     ecut=    50.00 Ry     beta= 0.30
     Davidson diagonalization with overlap
     ethr =  1.77E-08,  avg # of iterations =  1.1

     total cpu time spent up to now is      159.1 secs

     total energy              =    -360.41442819 Ry
     estimated scf accuracy    <       0.00000638 Ry

     iteration # 22     ecut=    50.00 Ry     beta= 0.30
     Davidson diagonalization with overlap
     ethr =  1.77E-08,  avg # of iterations =  1.1

     total cpu time spent up to now is      163.8 secs

     total energy              =    -360.41442727 Ry
     estimated scf accuracy    <       0.00000503 Ry

     iteration # 23     ecut=    50.00 Ry     beta= 0.30
     Davidson diagonalization with overlap
     ethr =  1.40E-08,  avg # of iterations =  2.1

     total cpu time spent up to now is      168.8 secs

     total energy              =    -360.41442725 Ry
     estimated scf accuracy    <       0.00000207 Ry

     iteration # 24     ecut=    50.00 Ry     beta= 0.30
     Davidson diagonalization with overlap
     ethr =  5.74E-09,  avg # of iterations =  4.3

     total cpu time spent up to now is      174.7 secs

     total energy              =    -360.41442768 Ry
     estimated scf accuracy    <       0.00000045 Ry

     iteration # 25     ecut=    50.00 Ry     beta= 0.30
     Davidson diagonalization with overlap
     c_bands:  1 eigenvalues not converged
     ethr =  1.24E-09,  avg # of iterations =  7.4

     total cpu time spent up to now is      182.2 secs

     total energy              =    -360.41442793 Ry
     estimated scf accuracy    <       0.00000016 Ry

     iteration # 26     ecut=    50.00 Ry     beta= 0.30
     Davidson diagonalization with overlap
     ethr =  4.38E-10,  avg # of iterations =  4.8

     total cpu time spent up to now is      188.6 secs

     total energy              =    -360.41442772 Ry
     estimated scf accuracy    <       0.00000049 Ry

     iteration # 27     ecut=    50.00 Ry     beta= 0.30
     Davidson diagonalization with overlap
     c_bands:  1 eigenvalues not converged
     c_bands:  1 eigenvalues not converged
     c_bands:  1 eigenvalues not converged
     c_bands:  1 eigenvalues not converged
     ethr =  4.38E-10,  avg # of iterations = 11.6

     total cpu time spent up to now is      199.6 secs

     total energy              =    -360.41442816 Ry
     estimated scf accuracy    <       0.00000025 Ry

     iteration # 28     ecut=    50.00 Ry     beta= 0.30
     Davidson diagonalization with overlap
     c_bands:  1 eigenvalues not converged
     c_bands:  1 eigenvalues not converged
     c_bands:  1 eigenvalues not converged
     c_bands:  1 eigenvalues not converged
     c_bands:  1 eigenvalues not converged
     c_bands:  1 eigenvalues not converged
     c_bands:  1 eigenvalues not converged
     c_bands:  1 eigenvalues not converged
     c_bands:  1 eigenvalues not converged
     c_bands:  1 eigenvalues not converged
     c_bands:  1 eigenvalues not converged
     c_bands:  1 eigenvalues not converged
     c_bands:  1 eigenvalues not converged
     ethr =  4.38E-10,  avg # of iterations = 15.5

     total cpu time spent up to now is      214.6 secs

     total energy              =    -360.41442849 Ry
     estimated scf accuracy    <       0.00000420 Ry

     iteration # 29     ecut=    50.00 Ry     beta= 0.30
     Davidson diagonalization with overlap
     ethr =  4.38E-10,  avg # of iterations =  1.4

     total cpu time spent up to now is      219.5 secs

     total energy              =    -360.41442833 Ry
     estimated scf accuracy    <       0.00000417 Ry

     iteration # 30     ecut=    50.00 Ry     beta= 0.30
     Davidson diagonalization with overlap
     ethr =  4.38E-10,  avg # of iterations =  1.3

     total cpu time spent up to now is      224.4 secs

     total energy              =    -360.41442828 Ry
     estimated scf accuracy    <       0.00000379 Ry

     iteration # 31     ecut=    50.00 Ry     beta= 0.30
     Davidson diagonalization with overlap
     ethr =  4.38E-10,  avg # of iterations =  1.5

     total cpu time spent up to now is      229.4 secs

     total energy              =    -360.41442812 Ry
     estimated scf accuracy    <       0.00000354 Ry

     iteration # 32     ecut=    50.00 Ry     beta= 0.30
     Davidson diagonalization with overlap
     ethr =  4.38E-10,  avg # of iterations =  3.1

     total cpu time spent up to now is      235.0 secs

     total energy              =    -360.41442769 Ry
     estimated scf accuracy    <       0.00000289 Ry

     iteration # 33     ecut=    50.00 Ry     beta= 0.30
     Davidson diagonalization with overlap
     c_bands:  1 eigenvalues not converged
     c_bands:  1 eigenvalues not converged
     c_bands:  1 eigenvalues not converged
     c_bands:  1 eigenvalues not converged
     c_bands:  1 eigenvalues not converged
     c_bands:  1 eigenvalues not converged
     ethr =  4.38E-10,  avg # of iterations = 12.8

     total cpu time spent up to now is      246.4 secs

     total energy              =    -360.41442778 Ry
     estimated scf accuracy    <       0.00000039 Ry

     iteration # 34     ecut=    50.00 Ry     beta= 0.30
     Davidson diagonalization with overlap
     c_bands:  1 eigenvalues not converged
     ethr =  4.38E-10,  avg # of iterations =  6.7

     total cpu time spent up to now is      253.8 secs

     total energy              =    -360.41442782 Ry
     estimated scf accuracy    <       0.00000002 Ry

     iteration # 35     ecut=    50.00 Ry     beta= 0.30
     Davidson diagonalization with overlap
     c_bands:  1 eigenvalues not converged
     c_bands:  1 eigenvalues not converged
     c_bands:  1 eigenvalues not converged
     c_bands:  1 eigenvalues not converged
     c_bands:  1 eigenvalues not converged
     c_bands:  1 eigenvalues not converged
     c_bands:  1 eigenvalues not converged
     c_bands:  1 eigenvalues not converged
     c_bands:  1 eigenvalues not converged
     c_bands:  1 eigenvalues not converged
     c_bands:  1 eigenvalues not converged
     c_bands:  1 eigenvalues not converged
     c_bands:  1 eigenvalues not converged
     ethr =  5.39E-11,  avg # of iterations = 13.8

     total cpu time spent up to now is      268.7 secs

     total energy              =    -360.41442784 Ry
     estimated scf accuracy    <       0.00000012 Ry

     iteration # 36     ecut=    50.00 Ry     beta= 0.30
     Davidson diagonalization with overlap
     c_bands:  1 eigenvalues not converged
     ethr =  5.39E-11,  avg # of iterations =  6.6

     total cpu time spent up to now is      277.0 secs

     total energy              =    -360.41442784 Ry
     estimated scf accuracy    <       0.00000002 Ry

     iteration # 37     ecut=    50.00 Ry     beta= 0.30
     Davidson diagonalization with overlap
     ethr =  5.16E-11,  avg # of iterations =  7.2

     total cpu time spent up to now is      285.1 secs

     End of self-consistent calculation

     Number of k-points >= 100: set verbosity='high' to print the bands.

     highest occupied level (ev):     8.2032

!    total energy              =    -360.41442784 Ry
     estimated scf accuracy    <          5.5E-09 Ry

     The total energy is the sum of the following terms:
     one-electron contribution =    -266.75413991 Ry
     hartree contribution      =     171.87345519 Ry
     xc contribution           =    -109.99323967 Ry
     ewald contribution        =    -155.54050345 Ry

     convergence has been achieved in  37 iterations

     Forces acting on atoms (cartesian axes, Ry/au):

     atom    1 type  1   force =     0.19236654    0.01271558    1.15460431
     atom    2 type  1   force =    -0.46497425    0.14372910   -0.97998477
     atom    3 type  2   force =     0.48935907   -0.25862795   -0.42849358
     atom    4 type  2   force =    -0.21675136    0.10218327    0.25387404
     The non-local contrib.  to forces
     atom    1 type  1   force =    -0.16651375   -0.03826255   -0.55760862
     atom    2 type  1   force =    -0.33051559    0.16412488    1.16680203
     atom    3 type  2   force =    -0.77964315    0.29019794    0.30949601
     atom    4 type  2   force =     0.67692847   -0.41051876    0.35471001
     The ionic contribution  to forces
     atom    1 type  1   force =     3.33751631    0.33711801   45.51626794
     atom    2 type  1   force =    -6.04402620    1.73317594  -27.03853946
     atom    3 type  2   force =     9.02718714   -4.09267823  -20.84273119
     atom    4 type  2   force =    -6.32067724    2.02238428    2.36500271
     The local contribution  to forces
     atom    1 type  1   force =    -2.96813552   -0.28813412  -43.72832717
     atom    2 type  1   force =     5.86014631   -1.73457140   24.87504560
     atom    3 type  2   force =    -7.76225819    3.54457334   20.10432905
     atom    4 type  2   force =     5.43158760   -1.51319898   -2.46171934
     The core correction contribution to forces
     atom    1 type  1   force =    -0.01048740    0.00198608   -0.07587415
     atom    2 type  1   force =     0.04935110   -0.01895772    0.01678434
     atom    3 type  2   force =     0.00407424   -0.00075426    0.00050965
     atom    4 type  2   force =    -0.00459448    0.00350786   -0.00412682
     The Hubbard contrib.    to forces
     atom    1 type  1   force =     0.00000000    0.00000000    0.00000000
     atom    2 type  1   force =     0.00000000    0.00000000    0.00000000
     atom    3 type  2   force =     0.00000000    0.00000000    0.00000000
     atom    4 type  2   force =     0.00000000    0.00000000    0.00000000
     The SCF correction term to forces
     atom    1 type  1   force =    -0.00000512    0.00000491    0.00015638
     atom    2 type  1   force =     0.00007811   -0.00004583   -0.00006721
     atom    3 type  2   force =     0.00000701    0.00003003   -0.00008703
     atom    4 type  2   force =     0.00001228    0.00000563    0.00001755

     Total force =     1.783073     Total SCF correction =     0.000215

     Writing all to output data dir ./ZnO_ANN.save/

     init_run     :      3.62s CPU      3.71s WALL (       1 calls)
     electrons    :    276.33s CPU    281.00s WALL (       1 calls)
     forces       :      1.17s CPU      1.18s WALL (       1 calls)

     Called by init_run:
     wfcinit      :      2.68s CPU      2.73s WALL (       1 calls)
     potinit      :      0.31s CPU      0.32s WALL (       1 calls)
     hinit0       :      0.54s CPU      0.56s WALL (       1 calls)

     Called by electrons:
     c_bands      :    245.06s CPU    249.09s WALL (      37 calls)
     sum_band     :     28.20s CPU     28.75s WALL (      37 calls)
     v_of_rho     :      0.72s CPU      0.77s WALL (      38 calls)
     newd         :      2.24s CPU      2.27s WALL (      38 calls)
     mix_rho      :      0.11s CPU      0.12s WALL (      37 calls)

     Called by c_bands:
     init_us_2    :      1.96s CPU      1.99s WALL (    8512 calls)
     init_us_2:cp :      1.93s CPU      1.97s WALL (    8512 calls)
     cegterg      :    238.71s CPU    242.63s WALL (    4144 calls)

     Called by *egterg:
     cdiaghg      :     30.34s CPU     30.64s WALL (   28777 calls)
     h_psi        :    138.03s CPU    140.89s WALL (   28889 calls)
     s_psi        :     15.78s CPU     15.92s WALL (   28889 calls)
     g_psi        :      0.46s CPU      0.46s WALL (   24633 calls)

     Called by h_psi:
     h_psi:calbec :     18.63s CPU     19.16s WALL (   28889 calls)
     vloc_psi     :    103.15s CPU    105.32s WALL (   28889 calls)
     add_vuspsi   :     15.78s CPU     15.94s WALL (   28889 calls)

     General routines
     calbec       :     25.22s CPU     25.93s WALL (   33481 calls)
     fft          :      0.72s CPU      0.79s WALL (     503 calls)
     ffts         :      0.12s CPU      0.13s WALL (      75 calls)
     fftw         :    105.90s CPU    108.11s WALL (  518674 calls)
     interpolate  :      0.15s CPU      0.15s WALL (      38 calls)

     Parallel routines

     PWSCF        :   4m41.85s CPU   4m46.88s WALL


   This run was terminated on:  17:56:11  24Jun2025            

=------------------------------------------------------------------------------=
   JOB DONE.
=------------------------------------------------------------------------------=
Note: The following floating-point exceptions are signalling: IEEE_INVALID_FLAG
