
     Program PWSCF v.7.2 starts on 24Jun2025 at 20: 3:16 

     This program is part of the open-source Quantum ESPRESSO suite
     for quantum simulation of materials; please cite
         "P. Giannozzi et al., J. Phys.:Condens. Matter 21 395502 (2009);
         "P. Giannozzi et al., J. Phys.:Condens. Matter 29 465901 (2017);
         "P. Giannozzi et al., J. Chem. Phys. 152 154105 (2020);
          URL http://www.quantum-espresso.org", 
     in publications or presentations arising from this work. More details at
     http://www.quantum-espresso.org/quote

     Parallel version (MPI), running on     8 processors

     MPI processes distributed on     1 nodes
     90761 MiB available memory on the printing compute node when the environment starts

     Reading input from /home/jvc/QEspresso7.2/ZnO_DataBase/scf_025_NOSYM.in/scf-6.67-1.61-0.25-4.in

     Current dimensions of program PWSCF are:
     Max number of different atomic species (ntypx) = 10
     Max number of k-points (npk) =  40000
     Max angular momentum in pseudopotentials (lmaxx) =  4
     file Zn.upf: wavefunction(s)  3D renormalized

     R & G space division:  proc/nbgrp/npool/nimage =       8
     Subspace diagonalization in iterative solution of the eigenvalue problem:
     a serial algorithm will be used


     Parallelization info
     --------------------
     sticks:   dense  smooth     PW     G-vecs:    dense   smooth      PW
     Min         154      75     23                 6952     2457     407
     Max         155      78     24                 6957     2461     412
     Sum        1237     613    187                55639    19669    3273

     Using Slab Decomposition



     bravais-lattice index     =            0
     lattice parameter (alat)  =       6.6731  a.u.
     unit-cell volume          =     411.7549 (a.u.)^3
     number of atoms/cell      =            4
     number of atomic types    =            2
     number of electrons       =        36.00
     number of Kohn-Sham states=           18
     kinetic-energy cutoff     =      50.0000  Ry
     charge density cutoff     =     400.0000  Ry
     scf convergence threshold =      1.0E-08
     mixing beta               =       0.3000
     number of iterations used =            8  plain     mixing
     Exchange-correlation= PBE
                           (   1   4   3   4   0   0   0)

     celldm(1)=   6.673127  celldm(2)=   0.000000  celldm(3)=   0.000000
     celldm(4)=   0.000000  celldm(5)=   0.000000  celldm(6)=   0.000000

     crystal axes: (cart. coord. in units of alat)
               a(1) = (   1.000000   0.000000   0.000000 )  
               a(2) = (  -0.500000   0.866025   0.000000 )  
               a(3) = (   0.000000   0.000000   1.600000 )  

     reciprocal axes: (cart. coord. in units 2 pi/alat)
               b(1) = (  1.000000  0.577350 -0.000000 )  
               b(2) = (  0.000000  1.154701  0.000000 )  
               b(3) = (  0.000000 -0.000000  0.625000 )  


     PseudoPot. # 1 for Zn read from file:
     ./pseudos/Zn.upf
     MD5 check sum: 7f56cabf9682ed8c977c2f7d0c5985c5
     Pseudo is Ultrasoft + core correction, Zval = 12.0
     Generated using &quot;atomic&quot; code by A. Dal Corso  v.6.2.2
     Using radial grid of 1201 points,  6 beta functions with: 
                l(1) =   0
                l(2) =   0
                l(3) =   1
                l(4) =   1
                l(5) =   2
                l(6) =   2
     Q(r) pseudized with 0 coefficients 


     PseudoPot. # 2 for O  read from file:
     ./pseudos/O.upf
     MD5 check sum: 91400c9766925bcf19f520983a725ff0
     Pseudo is Ultrasoft + core correction, Zval =  6.0
     Generated using &quot;atomic&quot; code by A. Dal Corso  v.6.3MaX
     Using radial grid of 1095 points,  4 beta functions with: 
                l(1) =   0
                l(2) =   0
                l(3) =   1
                l(4) =   1
     Q(r) pseudized with 0 coefficients 


     atomic species   valence    mass     pseudopotential
        Zn            12.00    63.38000     Zn( 1.00)
        O              6.00    15.99900     O ( 1.00)

     No symmetry found



   Cartesian axes

     site n.     atom                  positions (alat units)
         1           Zn  tau(   1) = (   0.6150234   0.2420369   0.6658670  )
         2           Zn  tau(   2) = (   0.0664476   0.7145527   0.3939694  )
         3           O   tau(   3) = (   0.3284532   0.2992295   1.3804774  )
         4           O   tau(   4) = (  -0.0985596   0.6773392   0.9353816  )

     number of k points=   112

     Number of k-points >= 100: set verbosity='high' to print them.

     Dense  grid:    55639 G-vectors     FFT dimensions: (  45,  45,  72)

     Smooth grid:    19669 G-vectors     FFT dimensions: (  32,  32,  50)

     Estimated max dynamical RAM per process >      37.53 MB

     Estimated total dynamical RAM >     300.20 MB

     Check: negative core charge=   -0.000003

     Initial potential from superposition of free atoms

     starting charge      35.9925, renormalised to      36.0000
     Starting wfcs are   26 randomized atomic wfcs

     total cpu time spent up to now is        4.5 secs

     Self-consistent Calculation

     iteration #  1     ecut=    50.00 Ry     beta= 0.30
     Davidson diagonalization with overlap
     ethr =  1.00E-02,  avg # of iterations =  2.0

     total cpu time spent up to now is       10.2 secs

     total energy              =    -360.22817633 Ry
     estimated scf accuracy    <       1.35818314 Ry

     iteration #  2     ecut=    50.00 Ry     beta= 0.30
     Davidson diagonalization with overlap
     ethr =  3.77E-03,  avg # of iterations =  8.4

     total cpu time spent up to now is       19.6 secs

     total energy              =    -360.57332890 Ry
     estimated scf accuracy    <       1.94188489 Ry

     iteration #  3     ecut=    50.00 Ry     beta= 0.30
     Davidson diagonalization with overlap
     ethr =  3.77E-03,  avg # of iterations =  1.3

     total cpu time spent up to now is       24.7 secs

     total energy              =    -359.96016758 Ry
     estimated scf accuracy    <       1.19230226 Ry

     iteration #  4     ecut=    50.00 Ry     beta= 0.30
     Davidson diagonalization with overlap
     ethr =  3.31E-03,  avg # of iterations = 10.4

     total cpu time spent up to now is       38.0 secs

     total energy              =    -361.01776936 Ry
     estimated scf accuracy    <       3.73333975 Ry

     iteration #  5     ecut=    50.00 Ry     beta= 0.30
     Davidson diagonalization with overlap
     ethr =  3.31E-03,  avg # of iterations =  1.3

     total cpu time spent up to now is       43.1 secs

     total energy              =    -360.87756574 Ry
     estimated scf accuracy    <       2.63489564 Ry

     iteration #  6     ecut=    50.00 Ry     beta= 0.30
     Davidson diagonalization with overlap
     ethr =  3.31E-03,  avg # of iterations =  1.3

     total cpu time spent up to now is       48.2 secs

     total energy              =    -360.89177798 Ry
     estimated scf accuracy    <       2.17597412 Ry

     iteration #  7     ecut=    50.00 Ry     beta= 0.30
     Davidson diagonalization with overlap
     ethr =  3.31E-03,  avg # of iterations =  1.0

     total cpu time spent up to now is       53.1 secs

     total energy              =    -363.17820305 Ry
     estimated scf accuracy    <       2.03787965 Ry

     iteration #  8     ecut=    50.00 Ry     beta= 0.30
     Davidson diagonalization with overlap
     ethr =  3.31E-03,  avg # of iterations =  4.9

     total cpu time spent up to now is       60.4 secs

     total energy              =    -362.44960767 Ry
     estimated scf accuracy    <       8.93912028 Ry

     iteration #  9     ecut=    50.00 Ry     beta= 0.30
     Davidson diagonalization with overlap
     ethr =  3.31E-03,  avg # of iterations =  1.1

     total cpu time spent up to now is       65.5 secs

     total energy              =    -359.82899004 Ry
     estimated scf accuracy    <       6.91780980 Ry

     iteration # 10     ecut=    50.00 Ry     beta= 0.30
     Davidson diagonalization with overlap
     ethr =  3.31E-03,  avg # of iterations =  9.0

     total cpu time spent up to now is       74.5 secs

     total energy              =    -360.61874956 Ry
     estimated scf accuracy    <       0.90898428 Ry

     iteration # 11     ecut=    50.00 Ry     beta= 0.30
     Davidson diagonalization with overlap
     ethr =  2.52E-03,  avg # of iterations =  2.5

     total cpu time spent up to now is       80.2 secs

     total energy              =    -361.12092649 Ry
     estimated scf accuracy    <       0.44770435 Ry

     iteration # 12     ecut=    50.00 Ry     beta= 0.30
     Davidson diagonalization with overlap
     ethr =  1.24E-03,  avg # of iterations = 11.3

     total cpu time spent up to now is       89.9 secs

     total energy              =    -362.65796000 Ry
     estimated scf accuracy    <       9.92242746 Ry

     iteration # 13     ecut=    50.00 Ry     beta= 0.30
     Davidson diagonalization with overlap
     ethr =  1.24E-03,  avg # of iterations =  7.8

     total cpu time spent up to now is       97.0 secs

     total energy              =    -363.23400054 Ry
     estimated scf accuracy    <      14.95221563 Ry

     iteration # 14     ecut=    50.00 Ry     beta= 0.30
     Davidson diagonalization with overlap
     ethr =  1.24E-03,  avg # of iterations =  2.9

     total cpu time spent up to now is      102.6 secs

     total energy              =    -362.47576552 Ry
     estimated scf accuracy    <      16.27762654 Ry

     iteration # 15     ecut=    50.00 Ry     beta= 0.30
     Davidson diagonalization with overlap
     ethr =  1.24E-03,  avg # of iterations =  1.5

     total cpu time spent up to now is      107.7 secs

     total energy              =    -361.53057083 Ry
     estimated scf accuracy    <      15.11608517 Ry

     iteration # 16     ecut=    50.00 Ry     beta= 0.30
     Davidson diagonalization with overlap
     ethr =  1.24E-03,  avg # of iterations =  5.6

     total cpu time spent up to now is      114.3 secs

     total energy              =    -360.19487664 Ry
     estimated scf accuracy    <      11.68017755 Ry

     iteration # 17     ecut=    50.00 Ry     beta= 0.30
     Davidson diagonalization with overlap
     ethr =  1.24E-03,  avg # of iterations = 11.0

     total cpu time spent up to now is      124.5 secs

     total energy              =    -360.61702295 Ry
     estimated scf accuracy    <       1.31104778 Ry

     iteration # 18     ecut=    50.00 Ry     beta= 0.30
     Davidson diagonalization with overlap
     ethr =  1.24E-03,  avg # of iterations =  2.4

     total cpu time spent up to now is      130.0 secs

     total energy              =    -360.42479855 Ry
     estimated scf accuracy    <       0.81807790 Ry

     iteration # 19     ecut=    50.00 Ry     beta= 0.30
     Davidson diagonalization with overlap
     ethr =  1.24E-03,  avg # of iterations =  9.9

     total cpu time spent up to now is      140.1 secs

     total energy              =    -360.82308005 Ry
     estimated scf accuracy    <       0.99399891 Ry

     iteration # 20     ecut=    50.00 Ry     beta= 0.30
     Davidson diagonalization with overlap
     ethr =  1.24E-03,  avg # of iterations =  1.0

     total cpu time spent up to now is      145.0 secs

     total energy              =    -360.57371593 Ry
     estimated scf accuracy    <       0.84713762 Ry

     iteration # 21     ecut=    50.00 Ry     beta= 0.30
     Davidson diagonalization with overlap
     ethr =  1.24E-03,  avg # of iterations =  8.9

     total cpu time spent up to now is      153.4 secs

     total energy              =    -360.62421582 Ry
     estimated scf accuracy    <       0.36705696 Ry

     iteration # 22     ecut=    50.00 Ry     beta= 0.30
     Davidson diagonalization with overlap
     ethr =  1.02E-03,  avg # of iterations =  6.7

     total cpu time spent up to now is      161.5 secs

     total energy              =    -360.69933533 Ry
     estimated scf accuracy    <       0.29998395 Ry

     iteration # 23     ecut=    50.00 Ry     beta= 0.30
     Davidson diagonalization with overlap
     ethr =  8.33E-04,  avg # of iterations =  1.9

     total cpu time spent up to now is      166.9 secs

     total energy              =    -360.67375202 Ry
     estimated scf accuracy    <       0.12636224 Ry

     iteration # 24     ecut=    50.00 Ry     beta= 0.30
     Davidson diagonalization with overlap
     ethr =  3.51E-04,  avg # of iterations =  8.3

     total cpu time spent up to now is      175.4 secs

     total energy              =    -360.79055445 Ry
     estimated scf accuracy    <       0.35546358 Ry

     iteration # 25     ecut=    50.00 Ry     beta= 0.30
     Davidson diagonalization with overlap
     ethr =  3.51E-04,  avg # of iterations =  1.1

     total cpu time spent up to now is      180.3 secs

     total energy              =    -360.64959184 Ry
     estimated scf accuracy    <       0.37576297 Ry

     iteration # 26     ecut=    50.00 Ry     beta= 0.30
     Davidson diagonalization with overlap
     c_bands:  1 eigenvalues not converged
     c_bands:  1 eigenvalues not converged
     ethr =  3.51E-04,  avg # of iterations =  9.1

     total cpu time spent up to now is      190.1 secs

     total energy              =    -360.64070265 Ry
     estimated scf accuracy    <       0.34573181 Ry

     iteration # 27     ecut=    50.00 Ry     beta= 0.30
     Davidson diagonalization with overlap
     c_bands:  1 eigenvalues not converged
     c_bands:  2 eigenvalues not converged
     c_bands:  1 eigenvalues not converged
     ethr =  3.51E-04,  avg # of iterations = 11.1

     total cpu time spent up to now is      200.5 secs

     total energy              =    -360.78563747 Ry
     estimated scf accuracy    <       0.83963812 Ry

     iteration # 28     ecut=    50.00 Ry     beta= 0.30
     Davidson diagonalization with overlap
     ethr =  3.51E-04,  avg # of iterations =  1.1

     total cpu time spent up to now is      205.5 secs

     total energy              =    -360.74153064 Ry
     estimated scf accuracy    <       0.75121535 Ry

     iteration # 29     ecut=    50.00 Ry     beta= 0.30
     Davidson diagonalization with overlap
     ethr =  3.51E-04,  avg # of iterations =  3.3

     total cpu time spent up to now is      211.3 secs

     total energy              =    -360.77208098 Ry
     estimated scf accuracy    <       0.51009178 Ry

     iteration # 30     ecut=    50.00 Ry     beta= 0.30
     Davidson diagonalization with overlap
     ethr =  3.51E-04,  avg # of iterations =  1.0

     total cpu time spent up to now is      216.2 secs

     total energy              =    -360.76954571 Ry
     estimated scf accuracy    <       0.53624467 Ry

     iteration # 31     ecut=    50.00 Ry     beta= 0.30
     Davidson diagonalization with overlap
     ethr =  3.51E-04,  avg # of iterations =  1.0

     total cpu time spent up to now is      220.9 secs

     total energy              =    -360.74011138 Ry
     estimated scf accuracy    <       0.51499917 Ry

     iteration # 32     ecut=    50.00 Ry     beta= 0.30
     Davidson diagonalization with overlap
     ethr =  3.51E-04,  avg # of iterations =  1.5

     total cpu time spent up to now is      225.9 secs

     total energy              =    -360.67272225 Ry
     estimated scf accuracy    <       0.42969269 Ry

     iteration # 33     ecut=    50.00 Ry     beta= 0.30
     Davidson diagonalization with overlap
     ethr =  3.51E-04,  avg # of iterations =  8.2

     total cpu time spent up to now is      234.4 secs

     total energy              =    -360.76421627 Ry
     estimated scf accuracy    <       0.03598412 Ry

     iteration # 34     ecut=    50.00 Ry     beta= 0.30
     Davidson diagonalization with overlap
     c_bands:  1 eigenvalues not converged
     c_bands:  1 eigenvalues not converged
     c_bands:  1 eigenvalues not converged
     c_bands:  1 eigenvalues not converged
     ethr =  1.00E-04,  avg # of iterations =  8.2

     total cpu time spent up to now is      242.9 secs

     total energy              =    -360.74397172 Ry
     estimated scf accuracy    <       0.41666228 Ry

     iteration # 35     ecut=    50.00 Ry     beta= 0.30
     Davidson diagonalization with overlap
     ethr =  1.00E-04,  avg # of iterations =  5.6

     total cpu time spent up to now is      249.6 secs

     total energy              =    -360.72459626 Ry
     estimated scf accuracy    <       0.18423316 Ry

     iteration # 36     ecut=    50.00 Ry     beta= 0.30
     Davidson diagonalization with overlap
     ethr =  1.00E-04,  avg # of iterations =  7.0

     total cpu time spent up to now is      257.2 secs

     total energy              =    -360.74294021 Ry
     estimated scf accuracy    <       0.00279678 Ry

     iteration # 37     ecut=    50.00 Ry     beta= 0.30
     Davidson diagonalization with overlap
     c_bands:  1 eigenvalues not converged
     c_bands:  1 eigenvalues not converged
     c_bands:  1 eigenvalues not converged
     c_bands:  1 eigenvalues not converged
     c_bands:  2 eigenvalues not converged
     c_bands:  1 eigenvalues not converged
     c_bands:  3 eigenvalues not converged
     c_bands:  3 eigenvalues not converged
     c_bands:  2 eigenvalues not converged
     c_bands:  2 eigenvalues not converged
     c_bands:  2 eigenvalues not converged
     c_bands:  1 eigenvalues not converged
     c_bands:  1 eigenvalues not converged
     c_bands:  1 eigenvalues not converged
     c_bands:  1 eigenvalues not converged
     c_bands:  1 eigenvalues not converged
     c_bands:  1 eigenvalues not converged
     c_bands:  2 eigenvalues not converged
     c_bands:  1 eigenvalues not converged
     c_bands:  1 eigenvalues not converged
     c_bands:  1 eigenvalues not converged
     c_bands:  1 eigenvalues not converged
     c_bands:  2 eigenvalues not converged
     c_bands:  1 eigenvalues not converged
     c_bands:  1 eigenvalues not converged
     c_bands:  1 eigenvalues not converged
     c_bands:  2 eigenvalues not converged
     c_bands:  3 eigenvalues not converged
     c_bands:  3 eigenvalues not converged
     c_bands:  1 eigenvalues not converged
     ethr =  7.77E-06,  avg # of iterations = 14.8

     total cpu time spent up to now is      269.7 secs

     total energy              =    -360.72685760 Ry
     estimated scf accuracy    <       0.07613228 Ry

     iteration # 38     ecut=    50.00 Ry     beta= 0.30
     Davidson diagonalization with overlap
     c_bands:  1 eigenvalues not converged
     c_bands:  2 eigenvalues not converged
     c_bands:  1 eigenvalues not converged
     c_bands:  1 eigenvalues not converged
     c_bands:  4 eigenvalues not converged
     c_bands:  2 eigenvalues not converged
     c_bands:  4 eigenvalues not converged
     c_bands:  2 eigenvalues not converged
     c_bands:  2 eigenvalues not converged
     c_bands:  1 eigenvalues not converged
     c_bands:  1 eigenvalues not converged
     c_bands:  2 eigenvalues not converged
     c_bands:  3 eigenvalues not converged
     c_bands:  4 eigenvalues not converged
     c_bands:  1 eigenvalues not converged
     c_bands:  3 eigenvalues not converged
     c_bands:  2 eigenvalues not converged
     c_bands:  2 eigenvalues not converged
     c_bands:  3 eigenvalues not converged
     c_bands:  4 eigenvalues not converged
     c_bands:  4 eigenvalues not converged
     c_bands:  1 eigenvalues not converged
     c_bands:  1 eigenvalues not converged
     c_bands:  2 eigenvalues not converged
     c_bands:  3 eigenvalues not converged
     c_bands:  3 eigenvalues not converged
     c_bands:  1 eigenvalues not converged
     c_bands:  2 eigenvalues not converged
     c_bands:  1 eigenvalues not converged
     c_bands:  1 eigenvalues not converged
     c_bands:  3 eigenvalues not converged
     c_bands:  1 eigenvalues not converged
     c_bands:  4 eigenvalues not converged
     c_bands:  1 eigenvalues not converged
     c_bands:  3 eigenvalues not converged
     c_bands:  5 eigenvalues not converged
     c_bands:  1 eigenvalues not converged
     c_bands:  3 eigenvalues not converged
     c_bands:  2 eigenvalues not converged
     c_bands:  3 eigenvalues not converged
     c_bands:  3 eigenvalues not converged
     c_bands:  1 eigenvalues not converged
     c_bands:  3 eigenvalues not converged
     c_bands:  4 eigenvalues not converged
     c_bands:  3 eigenvalues not converged
     c_bands:  1 eigenvalues not converged
     c_bands:  4 eigenvalues not converged
     c_bands:  3 eigenvalues not converged
     c_bands:  3 eigenvalues not converged
     c_bands:  4 eigenvalues not converged
     c_bands:  4 eigenvalues not converged
     c_bands:  2 eigenvalues not converged
     c_bands:  1 eigenvalues not converged
     c_bands:  3 eigenvalues not converged
     c_bands:  1 eigenvalues not converged
     c_bands:  3 eigenvalues not converged
     c_bands:  2 eigenvalues not converged
     c_bands:  1 eigenvalues not converged
     c_bands:  1 eigenvalues not converged
     c_bands:  2 eigenvalues not converged
     c_bands:  2 eigenvalues not converged
     c_bands:  1 eigenvalues not converged
     c_bands:  3 eigenvalues not converged
     c_bands:  2 eigenvalues not converged
     c_bands:  3 eigenvalues not converged
     c_bands:  2 eigenvalues not converged
     c_bands:  3 eigenvalues not converged
     c_bands:  3 eigenvalues not converged
     c_bands:  3 eigenvalues not converged
     c_bands:  1 eigenvalues not converged
     c_bands:  3 eigenvalues not converged
     c_bands:  3 eigenvalues not converged
     c_bands:  3 eigenvalues not converged
     c_bands:  3 eigenvalues not converged
     c_bands:  2 eigenvalues not converged
     c_bands:  2 eigenvalues not converged
     c_bands:  1 eigenvalues not converged
     ethr =  7.77E-06,  avg # of iterations = 19.1

     total cpu time spent up to now is      288.5 secs

     total energy              =    -360.74638726 Ry
     estimated scf accuracy    <       0.14643587 Ry

     iteration # 39     ecut=    50.00 Ry     beta= 0.30
     Davidson diagonalization with overlap
     c_bands:  1 eigenvalues not converged
     c_bands:  1 eigenvalues not converged
     c_bands:  1 eigenvalues not converged
     ethr =  7.77E-06,  avg # of iterations = 11.2

     total cpu time spent up to now is      299.1 secs

     total energy              =    -360.75212467 Ry
     estimated scf accuracy    <       0.03961711 Ry

     iteration # 40     ecut=    50.00 Ry     beta= 0.30
     Davidson diagonalization with overlap
     ethr =  7.77E-06,  avg # of iterations =  1.3

     total cpu time spent up to now is      304.0 secs

     total energy              =    -360.74904070 Ry
     estimated scf accuracy    <       0.04365285 Ry

     iteration # 41     ecut=    50.00 Ry     beta= 0.30
     Davidson diagonalization with overlap
     ethr =  7.77E-06,  avg # of iterations =  1.5

     total cpu time spent up to now is      309.2 secs

     total energy              =    -360.74599991 Ry
     estimated scf accuracy    <       0.03790638 Ry

     iteration # 42     ecut=    50.00 Ry     beta= 0.30
     Davidson diagonalization with overlap
     c_bands:  1 eigenvalues not converged
     ethr =  7.77E-06,  avg # of iterations =  8.3

     total cpu time spent up to now is      318.0 secs

     total energy              =    -360.74832645 Ry
     estimated scf accuracy    <       0.00344143 Ry

     iteration # 43     ecut=    50.00 Ry     beta= 0.30
     Davidson diagonalization with overlap
     ethr =  7.77E-06,  avg # of iterations =  1.0

     total cpu time spent up to now is      323.0 secs

     total energy              =    -360.74766126 Ry
     estimated scf accuracy    <       0.00410447 Ry

     iteration # 44     ecut=    50.00 Ry     beta= 0.30
     Davidson diagonalization with overlap
     ethr =  7.77E-06,  avg # of iterations =  1.3

     total cpu time spent up to now is      328.2 secs

     total energy              =    -360.74757660 Ry
     estimated scf accuracy    <       0.00268870 Ry

     iteration # 45     ecut=    50.00 Ry     beta= 0.30
     Davidson diagonalization with overlap
     ethr =  7.47E-06,  avg # of iterations =  2.0

     total cpu time spent up to now is      333.8 secs

     total energy              =    -360.74719958 Ry
     estimated scf accuracy    <       0.00158198 Ry

     iteration # 46     ecut=    50.00 Ry     beta= 0.30
     Davidson diagonalization with overlap
     c_bands:  2 eigenvalues not converged
     c_bands:  1 eigenvalues not converged
     c_bands:  1 eigenvalues not converged
     c_bands:  1 eigenvalues not converged
     c_bands:  1 eigenvalues not converged
     c_bands:  1 eigenvalues not converged
     c_bands:  2 eigenvalues not converged
     c_bands:  1 eigenvalues not converged
     c_bands:  1 eigenvalues not converged
     ethr =  4.39E-06,  avg # of iterations = 10.5

     total cpu time spent up to now is      343.9 secs

     total energy              =    -360.74781787 Ry
     estimated scf accuracy    <       0.01220877 Ry

     iteration # 47     ecut=    50.00 Ry     beta= 0.30
     Davidson diagonalization with overlap
     ethr =  4.39E-06,  avg # of iterations =  3.2

     total cpu time spent up to now is      349.8 secs

     total energy              =    -360.74406031 Ry
     estimated scf accuracy    <       0.00831939 Ry

     iteration # 48     ecut=    50.00 Ry     beta= 0.30
     Davidson diagonalization with overlap
     c_bands:  2 eigenvalues not converged
     c_bands:  2 eigenvalues not converged
     c_bands:  1 eigenvalues not converged
     c_bands:  2 eigenvalues not converged
     c_bands:  2 eigenvalues not converged
     c_bands:  2 eigenvalues not converged
     c_bands:  3 eigenvalues not converged
     c_bands:  3 eigenvalues not converged
     c_bands:  1 eigenvalues not converged
     c_bands:  2 eigenvalues not converged
     c_bands:  2 eigenvalues not converged
     c_bands:  1 eigenvalues not converged
     c_bands:  1 eigenvalues not converged
     c_bands:  1 eigenvalues not converged
     c_bands:  1 eigenvalues not converged
     c_bands:  3 eigenvalues not converged
     c_bands:  2 eigenvalues not converged
     c_bands:  1 eigenvalues not converged
     c_bands:  2 eigenvalues not converged
     c_bands:  1 eigenvalues not converged
     c_bands:  1 eigenvalues not converged
     c_bands:  1 eigenvalues not converged
     c_bands:  2 eigenvalues not converged
     c_bands:  3 eigenvalues not converged
     c_bands:  1 eigenvalues not converged
     c_bands:  3 eigenvalues not converged
     c_bands:  3 eigenvalues not converged
     c_bands:  3 eigenvalues not converged
     c_bands:  3 eigenvalues not converged
     c_bands:  2 eigenvalues not converged
     ethr =  4.39E-06,  avg # of iterations = 15.0

     total cpu time spent up to now is      363.8 secs

     total energy              =    -360.75410916 Ry
     estimated scf accuracy    <       0.07094531 Ry

     iteration # 49     ecut=    50.00 Ry     beta= 0.30
     Davidson diagonalization with overlap
     c_bands:  1 eigenvalues not converged
     ethr =  4.39E-06,  avg # of iterations =  2.2

     total cpu time spent up to now is      369.3 secs

     total energy              =    -360.75275595 Ry
     estimated scf accuracy    <       0.07478853 Ry

     iteration # 50     ecut=    50.00 Ry     beta= 0.30
     Davidson diagonalization with overlap
     ethr =  4.39E-06,  avg # of iterations =  1.3

     total cpu time spent up to now is      374.7 secs

     total energy              =    -360.75258036 Ry
     estimated scf accuracy    <       0.07067188 Ry

     iteration # 51     ecut=    50.00 Ry     beta= 0.30
     Davidson diagonalization with overlap
     ethr =  4.39E-06,  avg # of iterations =  1.1

     total cpu time spent up to now is      380.0 secs

     total energy              =    -360.75243727 Ry
     estimated scf accuracy    <       0.06914951 Ry

     iteration # 52     ecut=    50.00 Ry     beta= 0.30
     Davidson diagonalization with overlap
     ethr =  4.39E-06,  avg # of iterations =  1.0

     total cpu time spent up to now is      385.0 secs

     total energy              =    -360.74615944 Ry
     estimated scf accuracy    <       0.06814407 Ry

     iteration # 53     ecut=    50.00 Ry     beta= 0.30
     Davidson diagonalization with overlap
     c_bands:  1 eigenvalues not converged
     c_bands:  1 eigenvalues not converged
     c_bands:  1 eigenvalues not converged
     c_bands:  1 eigenvalues not converged
     c_bands:  1 eigenvalues not converged
     ethr =  4.39E-06,  avg # of iterations = 11.3

     total cpu time spent up to now is      395.9 secs

     total energy              =    -360.74690389 Ry
     estimated scf accuracy    <       0.01104327 Ry

     iteration # 54     ecut=    50.00 Ry     beta= 0.30
     Davidson diagonalization with overlap
     c_bands:  1 eigenvalues not converged
     ethr =  4.39E-06,  avg # of iterations =  7.6

     total cpu time spent up to now is      404.3 secs

     total energy              =    -360.74790933 Ry
     estimated scf accuracy    <       0.00005419 Ry

     iteration # 55     ecut=    50.00 Ry     beta= 0.30
     Davidson diagonalization with overlap
     c_bands:  3 eigenvalues not converged
     c_bands:  2 eigenvalues not converged
     c_bands:  1 eigenvalues not converged
     c_bands:  4 eigenvalues not converged
     c_bands:  2 eigenvalues not converged
     c_bands:  4 eigenvalues not converged
     c_bands:  4 eigenvalues not converged
     c_bands:  1 eigenvalues not converged
     c_bands:  1 eigenvalues not converged
     c_bands:  1 eigenvalues not converged
     c_bands:  1 eigenvalues not converged
     c_bands:  1 eigenvalues not converged
     c_bands:  3 eigenvalues not converged
     c_bands:  2 eigenvalues not converged
     c_bands:  3 eigenvalues not converged
     c_bands:  4 eigenvalues not converged
     c_bands:  4 eigenvalues not converged
     c_bands:  2 eigenvalues not converged
     c_bands:  1 eigenvalues not converged
     c_bands:  1 eigenvalues not converged
     c_bands:  4 eigenvalues not converged
     c_bands:  1 eigenvalues not converged
     c_bands:  2 eigenvalues not converged
     c_bands:  4 eigenvalues not converged
     c_bands:  2 eigenvalues not converged
     c_bands:  4 eigenvalues not converged
     c_bands:  1 eigenvalues not converged
     c_bands:  3 eigenvalues not converged
     c_bands:  1 eigenvalues not converged
     c_bands:  1 eigenvalues not converged
     c_bands:  3 eigenvalues not converged
     c_bands:  3 eigenvalues not converged
     c_bands:  4 eigenvalues not converged
     c_bands:  1 eigenvalues not converged
     c_bands:  1 eigenvalues not converged
     c_bands:  2 eigenvalues not converged
     c_bands:  1 eigenvalues not converged
     ethr =  1.51E-07,  avg # of iterations = 13.6

     total cpu time spent up to now is      416.5 secs

     total energy              =    -360.74815921 Ry
     estimated scf accuracy    <       0.00075190 Ry

     iteration # 56     ecut=    50.00 Ry     beta= 0.30
     Davidson diagonalization with overlap
     c_bands:  1 eigenvalues not converged
     c_bands:  1 eigenvalues not converged
     c_bands:  2 eigenvalues not converged
     ethr =  1.51E-07,  avg # of iterations =  4.4

     total cpu time spent up to now is      422.7 secs

     total energy              =    -360.74823858 Ry
     estimated scf accuracy    <       0.00114820 Ry

     iteration # 57     ecut=    50.00 Ry     beta= 0.30
     Davidson diagonalization with overlap
     ethr =  1.51E-07,  avg # of iterations =  6.0

     total cpu time spent up to now is      429.9 secs

     total energy              =    -360.74816814 Ry
     estimated scf accuracy    <       0.00190212 Ry

     iteration # 58     ecut=    50.00 Ry     beta= 0.30
     Davidson diagonalization with overlap
     ethr =  1.51E-07,  avg # of iterations =  2.0

     total cpu time spent up to now is      435.5 secs

     total energy              =    -360.74791197 Ry
     estimated scf accuracy    <       0.00171769 Ry

     iteration # 59     ecut=    50.00 Ry     beta= 0.30
     Davidson diagonalization with overlap
     c_bands:  1 eigenvalues not converged
     c_bands:  1 eigenvalues not converged
     c_bands:  1 eigenvalues not converged
     c_bands:  1 eigenvalues not converged
     c_bands:  1 eigenvalues not converged
     c_bands:  1 eigenvalues not converged
     c_bands:  1 eigenvalues not converged
     c_bands:  1 eigenvalues not converged
     c_bands:  1 eigenvalues not converged
     c_bands:  1 eigenvalues not converged
     c_bands:  1 eigenvalues not converged
     c_bands:  2 eigenvalues not converged
     c_bands:  1 eigenvalues not converged
     c_bands:  1 eigenvalues not converged
     c_bands:  1 eigenvalues not converged
     c_bands:  2 eigenvalues not converged
     c_bands:  1 eigenvalues not converged
     c_bands:  1 eigenvalues not converged
     ethr =  1.51E-07,  avg # of iterations = 13.9

     total cpu time spent up to now is      448.1 secs

     total energy              =    -360.74808531 Ry
     estimated scf accuracy    <       0.00007702 Ry

     iteration # 60     ecut=    50.00 Ry     beta= 0.30
     Davidson diagonalization with overlap
     ethr =  1.51E-07,  avg # of iterations =  1.7

     total cpu time spent up to now is      453.3 secs

     total energy              =    -360.74808545 Ry
     estimated scf accuracy    <       0.00008136 Ry

     iteration # 61     ecut=    50.00 Ry     beta= 0.30
     Davidson diagonalization with overlap
     ethr =  1.51E-07,  avg # of iterations =  1.2

     total cpu time spent up to now is      458.4 secs

     total energy              =    -360.74807973 Ry
     estimated scf accuracy    <       0.00007819 Ry

     iteration # 62     ecut=    50.00 Ry     beta= 0.30
     Davidson diagonalization with overlap
     c_bands:  1 eigenvalues not converged
     c_bands:  1 eigenvalues not converged
     c_bands:  1 eigenvalues not converged
     c_bands:  1 eigenvalues not converged
     c_bands:  1 eigenvalues not converged
     ethr =  1.51E-07,  avg # of iterations =  8.5

     total cpu time spent up to now is      467.8 secs

     total energy              =    -360.74815187 Ry
     estimated scf accuracy    <       0.00047192 Ry

     iteration # 63     ecut=    50.00 Ry     beta= 0.30
     Davidson diagonalization with overlap
     ethr =  1.51E-07,  avg # of iterations =  1.6

     total cpu time spent up to now is      473.2 secs

     total energy              =    -360.74816726 Ry
     estimated scf accuracy    <       0.00055572 Ry

     iteration # 64     ecut=    50.00 Ry     beta= 0.30
     Davidson diagonalization with overlap
     ethr =  1.51E-07,  avg # of iterations =  2.0

     total cpu time spent up to now is      478.8 secs

     total energy              =    -360.74798865 Ry
     estimated scf accuracy    <       0.00063397 Ry

     iteration # 65     ecut=    50.00 Ry     beta= 0.30
     Davidson diagonalization with overlap
     c_bands:  2 eigenvalues not converged
     c_bands:  1 eigenvalues not converged
     c_bands:  1 eigenvalues not converged
     c_bands:  1 eigenvalues not converged
     c_bands:  1 eigenvalues not converged
     c_bands:  1 eigenvalues not converged
     c_bands:  1 eigenvalues not converged
     c_bands:  1 eigenvalues not converged
     c_bands:  2 eigenvalues not converged
     c_bands:  1 eigenvalues not converged
     c_bands:  1 eigenvalues not converged
     c_bands:  1 eigenvalues not converged
     c_bands:  1 eigenvalues not converged
     c_bands:  1 eigenvalues not converged
     c_bands:  1 eigenvalues not converged
     c_bands:  1 eigenvalues not converged
     c_bands:  1 eigenvalues not converged
     ethr =  1.51E-07,  avg # of iterations = 13.0

     total cpu time spent up to now is      491.0 secs

     total energy              =    -360.74811562 Ry
     estimated scf accuracy    <       0.00018962 Ry

     iteration # 66     ecut=    50.00 Ry     beta= 0.30
     Davidson diagonalization with overlap
     ethr =  1.51E-07,  avg # of iterations =  2.9

     total cpu time spent up to now is      496.8 secs

     total energy              =    -360.74803651 Ry
     estimated scf accuracy    <       0.00029926 Ry

     iteration # 67     ecut=    50.00 Ry     beta= 0.30
     Davidson diagonalization with overlap
     c_bands:  1 eigenvalues not converged
     c_bands:  1 eigenvalues not converged
     c_bands:  1 eigenvalues not converged
     c_bands:  2 eigenvalues not converged
     c_bands:  1 eigenvalues not converged
     c_bands:  1 eigenvalues not converged
     c_bands:  1 eigenvalues not converged
     c_bands:  1 eigenvalues not converged
     ethr =  1.51E-07,  avg # of iterations =  9.5

     total cpu time spent up to now is      506.9 secs

     total energy              =    -360.74810168 Ry
     estimated scf accuracy    <       0.00012192 Ry

     iteration # 68     ecut=    50.00 Ry     beta= 0.30
     Davidson diagonalization with overlap
     ethr =  1.51E-07,  avg # of iterations =  4.1

     total cpu time spent up to now is      513.2 secs

     total energy              =    -360.74804773 Ry
     estimated scf accuracy    <       0.00023920 Ry

     iteration # 69     ecut=    50.00 Ry     beta= 0.30
     Davidson diagonalization with overlap
     c_bands:  1 eigenvalues not converged
     ethr =  1.51E-07,  avg # of iterations =  8.2

     total cpu time spent up to now is      522.3 secs

     total energy              =    -360.74808381 Ry
     estimated scf accuracy    <       0.00001613 Ry

     iteration # 70     ecut=    50.00 Ry     beta= 0.30
     Davidson diagonalization with overlap
     c_bands:  1 eigenvalues not converged
     c_bands:  2 eigenvalues not converged
     c_bands:  1 eigenvalues not converged
     c_bands:  1 eigenvalues not converged
     c_bands:  1 eigenvalues not converged
     c_bands:  1 eigenvalues not converged
     c_bands:  1 eigenvalues not converged
     c_bands:  1 eigenvalues not converged
     c_bands:  1 eigenvalues not converged
     c_bands:  1 eigenvalues not converged
     c_bands:  1 eigenvalues not converged
     c_bands:  2 eigenvalues not converged
     c_bands:  2 eigenvalues not converged
     c_bands:  1 eigenvalues not converged
     c_bands:  1 eigenvalues not converged
     ethr =  4.48E-08,  avg # of iterations = 12.5

     total cpu time spent up to now is      533.7 secs

     total energy              =    -360.74806117 Ry
     estimated scf accuracy    <       0.00052319 Ry

     iteration # 71     ecut=    50.00 Ry     beta= 0.30
     Davidson diagonalization with overlap
     c_bands:  1 eigenvalues not converged
     ethr =  4.48E-08,  avg # of iterations =  9.6

     total cpu time spent up to now is      543.6 secs

     total energy              =    -360.74805723 Ry
     estimated scf accuracy    <       0.00009815 Ry

     iteration # 72     ecut=    50.00 Ry     beta= 0.30
     Davidson diagonalization with overlap
     c_bands:  2 eigenvalues not converged
     c_bands:  1 eigenvalues not converged
     c_bands:  1 eigenvalues not converged
     c_bands:  1 eigenvalues not converged
     c_bands:  1 eigenvalues not converged
     c_bands:  1 eigenvalues not converged
     c_bands:  1 eigenvalues not converged
     c_bands:  1 eigenvalues not converged
     c_bands:  1 eigenvalues not converged
     c_bands:  1 eigenvalues not converged
     c_bands:  1 eigenvalues not converged
     c_bands:  1 eigenvalues not converged
     ethr =  4.48E-08,  avg # of iterations = 11.6

     total cpu time spent up to now is      554.3 secs

     total energy              =    -360.74807648 Ry
     estimated scf accuracy    <       0.00003950 Ry

     iteration # 73     ecut=    50.00 Ry     beta= 0.30
     Davidson diagonalization with overlap
     ethr =  4.48E-08,  avg # of iterations =  1.4

     total cpu time spent up to now is      559.3 secs

     total energy              =    -360.74806986 Ry
     estimated scf accuracy    <       0.00003004 Ry

     iteration # 74     ecut=    50.00 Ry     beta= 0.30
     Davidson diagonalization with overlap
     ethr =  4.48E-08,  avg # of iterations =  7.7

     total cpu time spent up to now is      567.5 secs

     total energy              =    -360.74807686 Ry
     estimated scf accuracy    <       0.00000789 Ry

     iteration # 75     ecut=    50.00 Ry     beta= 0.30
     Davidson diagonalization with overlap
     c_bands:  1 eigenvalues not converged
     ethr =  2.19E-08,  avg # of iterations =  2.5

     total cpu time spent up to now is      573.0 secs

     total energy              =    -360.74807642 Ry
     estimated scf accuracy    <       0.00001202 Ry

     iteration # 76     ecut=    50.00 Ry     beta= 0.30
     Davidson diagonalization with overlap
     ethr =  2.19E-08,  avg # of iterations =  1.2

     total cpu time spent up to now is      578.0 secs

     total energy              =    -360.74807550 Ry
     estimated scf accuracy    <       0.00000930 Ry

     iteration # 77     ecut=    50.00 Ry     beta= 0.30
     Davidson diagonalization with overlap
     ethr =  2.19E-08,  avg # of iterations =  1.3

     total cpu time spent up to now is      583.2 secs

     total energy              =    -360.74807442 Ry
     estimated scf accuracy    <       0.00000650 Ry

     iteration # 78     ecut=    50.00 Ry     beta= 0.30
     Davidson diagonalization with overlap
     ethr =  1.81E-08,  avg # of iterations =  7.0

     total cpu time spent up to now is      590.6 secs

     total energy              =    -360.74807659 Ry
     estimated scf accuracy    <       0.00000237 Ry

     iteration # 79     ecut=    50.00 Ry     beta= 0.30
     Davidson diagonalization with overlap
     c_bands:  1 eigenvalues not converged
     ethr =  6.57E-09,  avg # of iterations =  4.1

     total cpu time spent up to now is      597.0 secs

     total energy              =    -360.74807689 Ry
     estimated scf accuracy    <       0.00000772 Ry

     iteration # 80     ecut=    50.00 Ry     beta= 0.30
     Davidson diagonalization with overlap
     ethr =  6.57E-09,  avg # of iterations =  1.2

     total cpu time spent up to now is      602.0 secs

     total energy              =    -360.74807737 Ry
     estimated scf accuracy    <       0.00000706 Ry

     iteration # 81     ecut=    50.00 Ry     beta= 0.30
     Davidson diagonalization with overlap
     ethr =  6.57E-09,  avg # of iterations =  1.1

     total cpu time spent up to now is      606.9 secs

     total energy              =    -360.74807751 Ry
     estimated scf accuracy    <       0.00000800 Ry

     iteration # 82     ecut=    50.00 Ry     beta= 0.30
     Davidson diagonalization with overlap
     ethr =  6.57E-09,  avg # of iterations =  1.0

     total cpu time spent up to now is      611.8 secs

     total energy              =    -360.74807741 Ry
     estimated scf accuracy    <       0.00000866 Ry

     iteration # 83     ecut=    50.00 Ry     beta= 0.30
     Davidson diagonalization with overlap
     ethr =  6.57E-09,  avg # of iterations =  1.0

     total cpu time spent up to now is      616.8 secs

     total energy              =    -360.74807786 Ry
     estimated scf accuracy    <       0.00000870 Ry

     iteration # 84     ecut=    50.00 Ry     beta= 0.30
     Davidson diagonalization with overlap
     ethr =  6.57E-09,  avg # of iterations =  1.3

     total cpu time spent up to now is      621.8 secs

     total energy              =    -360.74807636 Ry
     estimated scf accuracy    <       0.00001031 Ry

     iteration # 85     ecut=    50.00 Ry     beta= 0.30
     Davidson diagonalization with overlap
     ethr =  6.57E-09,  avg # of iterations =  1.2

     total cpu time spent up to now is      626.8 secs

     total energy              =    -360.74807587 Ry
     estimated scf accuracy    <       0.00000769 Ry

     iteration # 86     ecut=    50.00 Ry     beta= 0.30
     Davidson diagonalization with overlap
     ethr =  6.57E-09,  avg # of iterations =  5.7

     total cpu time spent up to now is      633.5 secs

     total energy              =    -360.74807550 Ry
     estimated scf accuracy    <       0.00000169 Ry

     iteration # 87     ecut=    50.00 Ry     beta= 0.30
     Davidson diagonalization with overlap
     c_bands:  1 eigenvalues not converged
     c_bands:  1 eigenvalues not converged
     c_bands:  1 eigenvalues not converged
     c_bands:  1 eigenvalues not converged
     ethr =  4.70E-09,  avg # of iterations =  9.8

     total cpu time spent up to now is      643.5 secs

     total energy              =    -360.74807614 Ry
     estimated scf accuracy    <       0.00001234 Ry

     iteration # 88     ecut=    50.00 Ry     beta= 0.30
     Davidson diagonalization with overlap
     ethr =  4.70E-09,  avg # of iterations =  2.1

     total cpu time spent up to now is      648.9 secs

     total energy              =    -360.74807625 Ry
     estimated scf accuracy    <       0.00000915 Ry

     iteration # 89     ecut=    50.00 Ry     beta= 0.30
     Davidson diagonalization with overlap
     ethr =  4.70E-09,  avg # of iterations =  1.1

     total cpu time spent up to now is      653.9 secs

     total energy              =    -360.74807656 Ry
     estimated scf accuracy    <       0.00000888 Ry

     iteration # 90     ecut=    50.00 Ry     beta= 0.30
     Davidson diagonalization with overlap
     ethr =  4.70E-09,  avg # of iterations =  1.0

     total cpu time spent up to now is      658.8 secs

     total energy              =    -360.74807647 Ry
     estimated scf accuracy    <       0.00000890 Ry

     iteration # 91     ecut=    50.00 Ry     beta= 0.30
     Davidson diagonalization with overlap
     ethr =  4.70E-09,  avg # of iterations =  1.2

     total cpu time spent up to now is      663.8 secs

     total energy              =    -360.74807696 Ry
     estimated scf accuracy    <       0.00000832 Ry

     iteration # 92     ecut=    50.00 Ry     beta= 0.30
     Davidson diagonalization with overlap
     ethr =  4.70E-09,  avg # of iterations =  1.0

     total cpu time spent up to now is      668.6 secs

     total energy              =    -360.74807657 Ry
     estimated scf accuracy    <       0.00000900 Ry

     iteration # 93     ecut=    50.00 Ry     beta= 0.30
     Davidson diagonalization with overlap
     ethr =  4.70E-09,  avg # of iterations =  1.2

     total cpu time spent up to now is      673.7 secs

     total energy              =    -360.74807526 Ry
     estimated scf accuracy    <       0.00000789 Ry

     iteration # 94     ecut=    50.00 Ry     beta= 0.30
     Davidson diagonalization with overlap
     c_bands:  2 eigenvalues not converged
     c_bands:  1 eigenvalues not converged
     ethr =  4.70E-09,  avg # of iterations =  8.3

     total cpu time spent up to now is      682.8 secs

     total energy              =    -360.74807613 Ry
     estimated scf accuracy    <       0.00000065 Ry

     iteration # 95     ecut=    50.00 Ry     beta= 0.30
     Davidson diagonalization with overlap
     c_bands:  1 eigenvalues not converged
     c_bands:  1 eigenvalues not converged
     c_bands:  1 eigenvalues not converged
     c_bands:  1 eigenvalues not converged
     ethr =  1.82E-09,  avg # of iterations = 10.3

     total cpu time spent up to now is      693.6 secs

     total energy              =    -360.74807647 Ry
     estimated scf accuracy    <       0.00000414 Ry

     iteration # 96     ecut=    50.00 Ry     beta= 0.30
     Davidson diagonalization with overlap
     ethr =  1.82E-09,  avg # of iterations =  1.3

     total cpu time spent up to now is      699.0 secs

     total energy              =    -360.74807656 Ry
     estimated scf accuracy    <       0.00000336 Ry

     iteration # 97     ecut=    50.00 Ry     beta= 0.30
     Davidson diagonalization with overlap
     ethr =  1.82E-09,  avg # of iterations =  1.0

     total cpu time spent up to now is      704.1 secs

     total energy              =    -360.74807629 Ry
     estimated scf accuracy    <       0.00000344 Ry

     iteration # 98     ecut=    50.00 Ry     beta= 0.30
     Davidson diagonalization with overlap
     ethr =  1.82E-09,  avg # of iterations =  1.8

     total cpu time spent up to now is      709.6 secs

     total energy              =    -360.74807613 Ry
     estimated scf accuracy    <       0.00000260 Ry

     iteration # 99     ecut=    50.00 Ry     beta= 0.30
     Davidson diagonalization with overlap
     ethr =  1.82E-09,  avg # of iterations =  8.1

     total cpu time spent up to now is      718.3 secs

     total energy              =    -360.74807644 Ry
     estimated scf accuracy    <       0.00000002 Ry

     iteration #100     ecut=    50.00 Ry     beta= 0.30
     Davidson diagonalization with overlap
     c_bands:  1 eigenvalues not converged
     c_bands:  3 eigenvalues not converged
     c_bands:  2 eigenvalues not converged
     c_bands:  4 eigenvalues not converged
     c_bands:  2 eigenvalues not converged
     c_bands:  1 eigenvalues not converged
     c_bands:  1 eigenvalues not converged
     c_bands:  1 eigenvalues not converged
     c_bands:  1 eigenvalues not converged
     c_bands:  3 eigenvalues not converged
     c_bands:  4 eigenvalues not converged
     ethr =  4.46E-11,  avg # of iterations =  9.9

     total cpu time spent up to now is      728.4 secs

     total energy              =    -360.74807645 Ry
     estimated scf accuracy    <       0.00000008 Ry

     End of self-consistent calculation

     convergence NOT achieved after 100 iterations: stopping

     Writing config to output data dir ./ZnO_ANN.save/

     init_run     :      3.96s CPU      4.05s WALL (       1 calls)
     electrons    :    713.38s CPU    723.86s WALL (       1 calls)

     Called by init_run:
     wfcinit      :      2.89s CPU      2.94s WALL (       1 calls)
     potinit      :      0.37s CPU      0.37s WALL (       1 calls)
     hinit0       :      0.60s CPU      0.62s WALL (       1 calls)

     Called by electrons:
     c_bands      :    625.54s CPU    634.37s WALL (     100 calls)
     sum_band     :     78.37s CPU     79.76s WALL (     100 calls)
     v_of_rho     :      1.96s CPU      2.11s WALL (     101 calls)
     newd         :      7.03s CPU      7.09s WALL (     101 calls)
     mix_rho      :      0.35s CPU      0.38s WALL (     100 calls)

     Called by c_bands:
     init_us_2    :      5.52s CPU      5.59s WALL (   22512 calls)
     init_us_2:cp :      5.45s CPU      5.54s WALL (   22512 calls)
     cegterg      :    604.81s CPU    613.38s WALL (   11200 calls)

     Called by *egterg:
     cdiaghg      :     65.46s CPU     65.93s WALL (   69071 calls)
     h_psi        :    330.21s CPU    336.39s WALL (   69183 calls)
     s_psi        :     35.71s CPU     36.01s WALL (   69183 calls)
     g_psi        :      1.27s CPU      1.28s WALL (   57871 calls)

     Called by h_psi:
     h_psi:calbec :     54.37s CPU     55.67s WALL (   69183 calls)
     vloc_psi     :    239.10s CPU    243.67s WALL (   69183 calls)
     add_vuspsi   :     35.61s CPU     35.93s WALL (   69183 calls)

     General routines
     calbec       :     73.51s CPU     75.16s WALL (   80383 calls)
     fft          :      2.23s CPU      2.45s WALL (    1313 calls)
     ffts         :      0.17s CPU      0.19s WALL (     201 calls)
     fftw         :    250.97s CPU    255.83s WALL ( 1301524 calls)
     interpolate  :      0.24s CPU      0.26s WALL (     101 calls)
     davcio       :      0.00s CPU      0.01s WALL (     130 calls)

     Parallel routines

     PWSCF        :  11m57.82s CPU  12m 8.42s WALL


   This run was terminated on:  20:15:25  24Jun2025            

=------------------------------------------------------------------------------=
   JOB DONE.
=------------------------------------------------------------------------------=
STOP 2
STOP 2
STOP 2
STOP 2
STOP 2
STOP 2
STOP 2
STOP 2
--------------------------------------------------------------------------
Primary job  terminated normally, but 1 process returned
a non-zero exit code. Per user-direction, the job has been aborted.
--------------------------------------------------------------------------
--------------------------------------------------------------------------
mpirun detected that one or more processes exited with non-zero status, thus causing
the job to be terminated. The first process to do so was:

  Process name: [[59168,1],3]
  Exit code:    2
--------------------------------------------------------------------------
