
     Program PWSCF v.7.2 starts on 24Jun2025 at 17:56:12 

     This program is part of the open-source Quantum ESPRESSO suite
     for quantum simulation of materials; please cite
         "P. Giannozzi et al., J. Phys.:Condens. Matter 21 395502 (2009);
         "P. Giannozzi et al., J. Phys.:Condens. Matter 29 465901 (2017);
         "P. Giannozzi et al., J. Chem. Phys. 152 154105 (2020);
          URL http://www.quantum-espresso.org", 
     in publications or presentations arising from this work. More details at
     http://www.quantum-espresso.org/quote

     Parallel version (MPI), running on     8 processors

     MPI processes distributed on     1 nodes
     90893 MiB available memory on the printing compute node when the environment starts

     Reading input from /home/jvc/QEspresso7.2/ZnO_DataBase/scf_025_NOSYM.in/scf-6.30-1.71-0.25-3.in

     Current dimensions of program PWSCF are:
     Max number of different atomic species (ntypx) = 10
     Max number of k-points (npk) =  40000
     Max angular momentum in pseudopotentials (lmaxx) =  4
     file Zn.upf: wavefunction(s)  3D renormalized

     R & G space division:  proc/nbgrp/npool/nimage =       8
     Subspace diagonalization in iterative solution of the eigenvalue problem:
     a serial algorithm will be used


     Parallelization info
     --------------------
     sticks:   dense  smooth     PW     G-vecs:    dense   smooth      PW
     Min         137      68     20                 5853     2068     346
     Max         138      69     21                 5856     2075     353
     Sum        1099     547    163                46835    16563    2791

     Using Slab Decomposition



     bravais-lattice index     =            0
     lattice parameter (alat)  =       6.3024  a.u.
     unit-cell volume          =     346.8711 (a.u.)^3
     number of atoms/cell      =            4
     number of atomic types    =            2
     number of electrons       =        36.00
     number of Kohn-Sham states=           18
     kinetic-energy cutoff     =      50.0000  Ry
     charge density cutoff     =     400.0000  Ry
     scf convergence threshold =      1.0E-08
     mixing beta               =       0.3000
     number of iterations used =            8  plain     mixing
     Exchange-correlation= PBE
                           (   1   4   3   4   0   0   0)

     celldm(1)=   6.302398  celldm(2)=   0.000000  celldm(3)=   0.000000
     celldm(4)=   0.000000  celldm(5)=   0.000000  celldm(6)=   0.000000

     crystal axes: (cart. coord. in units of alat)
               a(1) = (   1.000000   0.000000   0.000000 )  
               a(2) = (  -0.500000   0.866025   0.000000 )  
               a(3) = (   0.000000   0.000000   1.600000 )  

     reciprocal axes: (cart. coord. in units 2 pi/alat)
               b(1) = (  1.000000  0.577350 -0.000000 )  
               b(2) = (  0.000000  1.154701  0.000000 )  
               b(3) = (  0.000000 -0.000000  0.625000 )  


     PseudoPot. # 1 for Zn read from file:
     ./pseudos/Zn.upf
     MD5 check sum: 7f56cabf9682ed8c977c2f7d0c5985c5
     Pseudo is Ultrasoft + core correction, Zval = 12.0
     Generated using &quot;atomic&quot; code by A. Dal Corso  v.6.2.2
     Using radial grid of 1201 points,  6 beta functions with: 
                l(1) =   0
                l(2) =   0
                l(3) =   1
                l(4) =   1
                l(5) =   2
                l(6) =   2
     Q(r) pseudized with 0 coefficients 


     PseudoPot. # 2 for O  read from file:
     ./pseudos/O.upf
     MD5 check sum: 91400c9766925bcf19f520983a725ff0
     Pseudo is Ultrasoft + core correction, Zval =  6.0
     Generated using &quot;atomic&quot; code by A. Dal Corso  v.6.3MaX
     Using radial grid of 1095 points,  4 beta functions with: 
                l(1) =   0
                l(2) =   0
                l(3) =   1
                l(4) =   1
     Q(r) pseudized with 0 coefficients 


     atomic species   valence    mass     pseudopotential
        Zn            12.00    63.38000     Zn( 1.00)
        O              6.00    15.99900     O ( 1.00)

     No symmetry found



   Cartesian axes

     site n.     atom                  positions (alat units)
         1           Zn  tau(   1) = (   0.4092948   0.1821220   0.9255239  )
         2           Zn  tau(   2) = (  -0.0940801   0.6944861   0.1559133  )
         3           O   tau(   3) = (   0.6943231   0.0835691   1.3530387  )
         4           O   tau(   4) = (   0.1148002   0.5419673   0.5018624  )

     number of k points=   112

     Number of k-points >= 100: set verbosity='high' to print them.

     Dense  grid:    46835 G-vectors     FFT dimensions: (  45,  45,  72)

     Smooth grid:    16563 G-vectors     FFT dimensions: (  30,  30,  45)

     Estimated max dynamical RAM per process >      32.29 MB

     Estimated total dynamical RAM >     258.31 MB

     Check: negative core charge=   -0.000002

     Initial potential from superposition of free atoms

     starting charge      35.9925, renormalised to      36.0000
     Starting wfcs are   26 randomized atomic wfcs

     total cpu time spent up to now is        4.2 secs

     Self-consistent Calculation

     iteration #  1     ecut=    50.00 Ry     beta= 0.30
     Davidson diagonalization with overlap
     ethr =  1.00E-02,  avg # of iterations =  2.0

     total cpu time spent up to now is        9.7 secs

     total energy              =    -361.04770103 Ry
     estimated scf accuracy    <       0.98255858 Ry

     iteration #  2     ecut=    50.00 Ry     beta= 0.30
     Davidson diagonalization with overlap
     ethr =  2.73E-03,  avg # of iterations =  2.0

     total cpu time spent up to now is       16.1 secs

     total energy              =    -361.16157726 Ry
     estimated scf accuracy    <       0.13060742 Ry

     iteration #  3     ecut=    50.00 Ry     beta= 0.30
     Davidson diagonalization with overlap
     ethr =  3.63E-04,  avg # of iterations =  6.3

     total cpu time spent up to now is       27.2 secs

     total energy              =    -361.24211155 Ry
     estimated scf accuracy    <       0.14567147 Ry

     iteration #  4     ecut=    50.00 Ry     beta= 0.30
     Davidson diagonalization with overlap
     ethr =  3.63E-04,  avg # of iterations =  2.0

     total cpu time spent up to now is       33.1 secs

     total energy              =    -361.23612229 Ry
     estimated scf accuracy    <       0.03356851 Ry

     iteration #  5     ecut=    50.00 Ry     beta= 0.30
     Davidson diagonalization with overlap
     ethr =  9.32E-05,  avg # of iterations =  9.3

     total cpu time spent up to now is       52.1 secs

     total energy              =    -361.29853643 Ry
     estimated scf accuracy    <       0.71076087 Ry

     iteration #  6     ecut=    50.00 Ry     beta= 0.30
     Davidson diagonalization with overlap
     ethr =  9.32E-05,  avg # of iterations =  5.9

     total cpu time spent up to now is       62.8 secs

     total energy              =    -361.25540144 Ry
     estimated scf accuracy    <       0.24934768 Ry

     iteration #  7     ecut=    50.00 Ry     beta= 0.30
     Davidson diagonalization with overlap
     ethr =  9.32E-05,  avg # of iterations =  5.3

     total cpu time spent up to now is       72.0 secs

     total energy              =    -361.26072686 Ry
     estimated scf accuracy    <       0.04315558 Ry

     iteration #  8     ecut=    50.00 Ry     beta= 0.30
     Davidson diagonalization with overlap
     ethr =  9.32E-05,  avg # of iterations =  2.4

     total cpu time spent up to now is       77.6 secs

     total energy              =    -361.25699448 Ry
     estimated scf accuracy    <       0.01445960 Ry

     iteration #  9     ecut=    50.00 Ry     beta= 0.30
     Davidson diagonalization with overlap
     ethr =  4.02E-05,  avg # of iterations =  6.3

     total cpu time spent up to now is       87.3 secs

     total energy              =    -361.26713676 Ry
     estimated scf accuracy    <       0.00629502 Ry

     iteration # 10     ecut=    50.00 Ry     beta= 0.30
     Davidson diagonalization with overlap
     ethr =  1.75E-05,  avg # of iterations =  1.5

     total cpu time spent up to now is       92.2 secs

     total energy              =    -361.26537421 Ry
     estimated scf accuracy    <       0.00393962 Ry

     iteration # 11     ecut=    50.00 Ry     beta= 0.30
     Davidson diagonalization with overlap
     ethr =  1.09E-05,  avg # of iterations =  4.3

     total cpu time spent up to now is      100.1 secs

     total energy              =    -361.26658153 Ry
     estimated scf accuracy    <       0.00011137 Ry

     iteration # 12     ecut=    50.00 Ry     beta= 0.30
     Davidson diagonalization with overlap
     ethr =  3.09E-07,  avg # of iterations =  7.1

     total cpu time spent up to now is      112.1 secs

     total energy              =    -361.26666460 Ry
     estimated scf accuracy    <       0.00030832 Ry

     iteration # 13     ecut=    50.00 Ry     beta= 0.30
     Davidson diagonalization with overlap
     ethr =  3.09E-07,  avg # of iterations =  2.4

     total cpu time spent up to now is      118.0 secs

     total energy              =    -361.26666355 Ry
     estimated scf accuracy    <       0.00012718 Ry

     iteration # 14     ecut=    50.00 Ry     beta= 0.30
     Davidson diagonalization with overlap
     ethr =  3.09E-07,  avg # of iterations =  2.0

     total cpu time spent up to now is      123.4 secs

     total energy              =    -361.26664283 Ry
     estimated scf accuracy    <       0.00007485 Ry

     iteration # 15     ecut=    50.00 Ry     beta= 0.30
     Davidson diagonalization with overlap
     ethr =  2.08E-07,  avg # of iterations =  5.1

     total cpu time spent up to now is      132.2 secs

     total energy              =    -361.26669112 Ry
     estimated scf accuracy    <       0.00001425 Ry

     iteration # 16     ecut=    50.00 Ry     beta= 0.30
     Davidson diagonalization with overlap
     ethr =  3.96E-08,  avg # of iterations =  5.4

     total cpu time spent up to now is      140.6 secs

     total energy              =    -361.26667890 Ry
     estimated scf accuracy    <       0.00005932 Ry

     iteration # 17     ecut=    50.00 Ry     beta= 0.30
     Davidson diagonalization with overlap
     ethr =  3.96E-08,  avg # of iterations =  4.3

     total cpu time spent up to now is      147.5 secs

     total energy              =    -361.26667457 Ry
     estimated scf accuracy    <       0.00001621 Ry

     iteration # 18     ecut=    50.00 Ry     beta= 0.30
     Davidson diagonalization with overlap
     ethr =  3.96E-08,  avg # of iterations =  4.7

     total cpu time spent up to now is      155.8 secs

     total energy              =    -361.26668120 Ry
     estimated scf accuracy    <       0.00000168 Ry

     iteration # 19     ecut=    50.00 Ry     beta= 0.30
     Davidson diagonalization with overlap
     ethr =  4.66E-09,  avg # of iterations =  3.4

     total cpu time spent up to now is      162.2 secs

     total energy              =    -361.26668096 Ry
     estimated scf accuracy    <       0.00000147 Ry

     iteration # 20     ecut=    50.00 Ry     beta= 0.30
     Davidson diagonalization with overlap
     ethr =  4.09E-09,  avg # of iterations =  3.9

     total cpu time spent up to now is      169.3 secs

     End of self-consistent calculation

     Number of k-points >= 100: set verbosity='high' to print the bands.

     highest occupied level (ev):     6.3277

!    total energy              =    -361.26668133 Ry
     estimated scf accuracy    <          8.5E-09 Ry

     The total energy is the sum of the following terms:
     one-electron contribution =    -167.94258549 Ry
     hartree contribution      =     123.57255235 Ry
     xc contribution           =    -109.56707779 Ry
     ewald contribution        =    -207.32957039 Ry

     convergence has been achieved in  20 iterations

     Forces acting on atoms (cartesian axes, Ry/au):

     atom    1 type  1   force =    -0.06091671    0.04382611   -0.09288331
     atom    2 type  1   force =    -0.36578406    0.24201306   -0.62951337
     atom    3 type  2   force =     0.05129496    0.01842223    0.02732958
     atom    4 type  2   force =     0.37540581   -0.30426141    0.69506710
     The non-local contrib.  to forces
     atom    1 type  1   force =    -0.40406842    0.06825168   -0.50781394
     atom    2 type  1   force =    -0.91570972    0.29657940   -0.51277417
     atom    3 type  2   force =    -0.88490384   -0.02396560   -0.28741407
     atom    4 type  2   force =    -0.42954004    0.09186742   -0.12595045
     The ionic contribution  to forces
     atom    1 type  1   force =    -2.83521313    1.73878318   -0.70124604
     atom    2 type  1   force =    -8.81157379    1.69746641   -8.19999063
     atom    3 type  2   force =     6.15120081    0.81072362    0.57132516
     atom    4 type  2   force =     5.49558611   -4.24697321    8.32991151
     The local contribution  to forces
     atom    1 type  1   force =     3.15044032   -1.75751629    1.08299741
     atom    2 type  1   force =     9.26197661   -1.71692372    8.00083158
     atom    3 type  2   force =    -5.22248517   -0.76835694   -0.25910044
     atom    4 type  2   force =    -4.69256446    3.84990935   -7.50622378
     The core correction contribution to forces
     atom    1 type  1   force =     0.02784165   -0.00568346    0.03303314
     atom    2 type  1   force =     0.09938932   -0.03510957    0.08247321
     atom    3 type  2   force =     0.00746197    0.00003666    0.00247778
     atom    4 type  2   force =     0.00195121    0.00097568   -0.00275081
     The Hubbard contrib.    to forces
     atom    1 type  1   force =     0.00000000    0.00000000    0.00000000
     atom    2 type  1   force =     0.00000000    0.00000000    0.00000000
     atom    3 type  2   force =     0.00000000    0.00000000    0.00000000
     atom    4 type  2   force =     0.00000000    0.00000000    0.00000000
     The SCF correction term to forces
     atom    1 type  1   force =     0.00010504   -0.00000336    0.00013352
     atom    2 type  1   force =     0.00015571    0.00000618   -0.00006596
     atom    3 type  2   force =     0.00004337   -0.00000988    0.00002855
     atom    4 type  2   force =    -0.00000483   -0.00003502    0.00006803

     Total force =     1.150328     Total SCF correction =     0.000257

     Writing all to output data dir ./ZnO_ANN.save/

     init_run     :      3.66s CPU      3.75s WALL (       1 calls)
     electrons    :    161.83s CPU    165.08s WALL (       1 calls)
     forces       :      1.17s CPU      1.18s WALL (       1 calls)

     Called by init_run:
     wfcinit      :      2.70s CPU      2.75s WALL (       1 calls)
     potinit      :      0.33s CPU      0.33s WALL (       1 calls)
     hinit0       :      0.55s CPU      0.56s WALL (       1 calls)

     Called by electrons:
     c_bands      :    145.04s CPU    147.87s WALL (      20 calls)
     sum_band     :     15.14s CPU     15.52s WALL (      20 calls)
     v_of_rho     :      0.41s CPU      0.43s WALL (      21 calls)
     newd         :      1.21s CPU      1.24s WALL (      21 calls)
     mix_rho      :      0.06s CPU      0.07s WALL (      20 calls)

     Called by c_bands:
     init_us_2    :      1.17s CPU      1.19s WALL (    4704 calls)
     init_us_2:cp :      1.15s CPU      1.17s WALL (    4704 calls)
     cegterg      :    141.60s CPU    144.37s WALL (    2240 calls)

     Called by *egterg:
     cdiaghg      :     13.58s CPU     13.68s WALL (   11822 calls)
     h_psi        :     85.36s CPU     87.42s WALL (   11934 calls)
     s_psi        :     10.95s CPU     11.06s WALL (   11934 calls)
     g_psi        :      0.29s CPU      0.29s WALL (    9582 calls)

     Called by h_psi:
     h_psi:calbec :     11.27s CPU     11.69s WALL (   11934 calls)
     vloc_psi     :     62.87s CPU     64.38s WALL (   11934 calls)
     add_vuspsi   :     10.96s CPU     11.08s WALL (   11934 calls)

     General routines
     calbec       :     15.08s CPU     15.61s WALL (   14622 calls)
     fft          :      0.44s CPU      0.48s WALL (     282 calls)
     ffts         :      0.12s CPU      0.12s WALL (      41 calls)
     fftw         :     62.31s CPU     63.82s WALL (  315630 calls)
     interpolate  :      0.13s CPU      0.13s WALL (      21 calls)

     Parallel routines

     PWSCF        :   2m47.40s CPU   2m51.02s WALL


   This run was terminated on:  17:59: 3  24Jun2025            

=------------------------------------------------------------------------------=
   JOB DONE.
=------------------------------------------------------------------------------=
Note: The following floating-point exceptions are signalling: IEEE_INVALID_FLAG
