
     Program PWSCF v.7.2 starts on 24Jun2025 at 18:14:56 

     This program is part of the open-source Quantum ESPRESSO suite
     for quantum simulation of materials; please cite
         "P. Giannozzi et al., J. Phys.:Condens. Matter 21 395502 (2009);
         "P. Giannozzi et al., J. Phys.:Condens. Matter 29 465901 (2017);
         "P. Giannozzi et al., J. Chem. Phys. 152 154105 (2020);
          URL http://www.quantum-espresso.org", 
     in publications or presentations arising from this work. More details at
     http://www.quantum-espresso.org/quote

     Parallel version (MPI), running on     8 processors

     MPI processes distributed on     1 nodes
     90860 MiB available memory on the printing compute node when the environment starts

     Reading input from /home/jvc/QEspresso7.2/ZnO_DataBase/scf_025_NOSYM.in/scf-6.43-1.55-0.25-1.in

     Current dimensions of program PWSCF are:
     Max number of different atomic species (ntypx) = 10
     Max number of k-points (npk) =  40000
     Max angular momentum in pseudopotentials (lmaxx) =  4
     file Zn.upf: wavefunction(s)  3D renormalized

     R & G space division:  proc/nbgrp/npool/nimage =       8
     Subspace diagonalization in iterative solution of the eigenvalue problem:
     a serial algorithm will be used


     Parallelization info
     --------------------
     sticks:   dense  smooth     PW     G-vecs:    dense   smooth      PW
     Min         143      71     20                 6229     2189     360
     Max         145      73     21                 6232     2190     367
     Sum        1147     571    163                49835    17513    2899

     Using Slab Decomposition



     bravais-lattice index     =            0
     lattice parameter (alat)  =       6.4260  a.u.
     unit-cell volume          =     367.6779 (a.u.)^3
     number of atoms/cell      =            4
     number of atomic types    =            2
     number of electrons       =        36.00
     number of Kohn-Sham states=           18
     kinetic-energy cutoff     =      50.0000  Ry
     charge density cutoff     =     400.0000  Ry
     scf convergence threshold =      1.0E-08
     mixing beta               =       0.3000
     number of iterations used =            8  plain     mixing
     Exchange-correlation= PBE
                           (   1   4   3   4   0   0   0)

     celldm(1)=   6.425974  celldm(2)=   0.000000  celldm(3)=   0.000000
     celldm(4)=   0.000000  celldm(5)=   0.000000  celldm(6)=   0.000000

     crystal axes: (cart. coord. in units of alat)
               a(1) = (   1.000000   0.000000   0.000000 )  
               a(2) = (  -0.500000   0.866025   0.000000 )  
               a(3) = (   0.000000   0.000000   1.600000 )  

     reciprocal axes: (cart. coord. in units 2 pi/alat)
               b(1) = (  1.000000  0.577350 -0.000000 )  
               b(2) = (  0.000000  1.154701  0.000000 )  
               b(3) = (  0.000000 -0.000000  0.625000 )  


     PseudoPot. # 1 for Zn read from file:
     ./pseudos/Zn.upf
     MD5 check sum: 7f56cabf9682ed8c977c2f7d0c5985c5
     Pseudo is Ultrasoft + core correction, Zval = 12.0
     Generated using &quot;atomic&quot; code by A. Dal Corso  v.6.2.2
     Using radial grid of 1201 points,  6 beta functions with: 
                l(1) =   0
                l(2) =   0
                l(3) =   1
                l(4) =   1
                l(5) =   2
                l(6) =   2
     Q(r) pseudized with 0 coefficients 


     PseudoPot. # 2 for O  read from file:
     ./pseudos/O.upf
     MD5 check sum: 91400c9766925bcf19f520983a725ff0
     Pseudo is Ultrasoft + core correction, Zval =  6.0
     Generated using &quot;atomic&quot; code by A. Dal Corso  v.6.3MaX
     Using radial grid of 1095 points,  4 beta functions with: 
                l(1) =   0
                l(2) =   0
                l(3) =   1
                l(4) =   1
     Q(r) pseudized with 0 coefficients 


     atomic species   valence    mass     pseudopotential
        Zn            12.00    63.38000     Zn( 1.00)
        O              6.00    15.99900     O ( 1.00)

     No symmetry found



   Cartesian axes

     site n.     atom                  positions (alat units)
         1           Zn  tau(   1) = (   0.5115133   0.2984450   1.0993224  )
         2           Zn  tau(   2) = (   0.0993656   0.7050161  -0.0220571  )
         3           O   tau(   3) = (   0.6623346   0.4098528   1.1460327  )
         4           O   tau(   4) = (  -0.1111612   0.5365206   0.9046271  )

     number of k points=   112

     Number of k-points >= 100: set verbosity='high' to print them.

     Dense  grid:    49835 G-vectors     FFT dimensions: (  45,  45,  72)

     Smooth grid:    17513 G-vectors     FFT dimensions: (  30,  30,  48)

     Estimated max dynamical RAM per process >      34.06 MB

     Estimated total dynamical RAM >     272.46 MB

     Check: negative core charge=   -0.000002

     Initial potential from superposition of free atoms

     starting charge      35.9925, renormalised to      36.0000
     Starting wfcs are   26 randomized atomic wfcs

     total cpu time spent up to now is        4.3 secs

     Self-consistent Calculation

     iteration #  1     ecut=    50.00 Ry     beta= 0.30
     Davidson diagonalization with overlap
     ethr =  1.00E-02,  avg # of iterations =  5.5

     total cpu time spent up to now is       14.0 secs

     total energy              =    -344.82747498 Ry
     estimated scf accuracy    <       0.87298968 Ry

     iteration #  2     ecut=    50.00 Ry     beta= 0.30
     Davidson diagonalization with overlap
     ethr =  2.42E-03,  avg # of iterations =  2.3

     total cpu time spent up to now is       20.0 secs

     total energy              =    -344.74216578 Ry
     estimated scf accuracy    <       0.28819638 Ry

     iteration #  3     ecut=    50.00 Ry     beta= 0.30
     Davidson diagonalization with overlap
     ethr =  8.01E-04,  avg # of iterations =  5.4

     total cpu time spent up to now is       29.3 secs

     total energy              =    -344.86061431 Ry
     estimated scf accuracy    <       0.12001141 Ry

     iteration #  4     ecut=    50.00 Ry     beta= 0.30
     Davidson diagonalization with overlap
     ethr =  3.33E-04,  avg # of iterations =  1.9

     total cpu time spent up to now is       34.7 secs

     total energy              =    -344.81993790 Ry
     estimated scf accuracy    <       0.06454779 Ry

     iteration #  5     ecut=    50.00 Ry     beta= 0.30
     Davidson diagonalization with overlap
     c_bands:  1 eigenvalues not converged
     c_bands:  1 eigenvalues not converged
     c_bands:  1 eigenvalues not converged
     ethr =  1.79E-04,  avg # of iterations =  9.3

     total cpu time spent up to now is       48.9 secs

     total energy              =    -344.85491823 Ry
     estimated scf accuracy    <       0.29152513 Ry

     iteration #  6     ecut=    50.00 Ry     beta= 0.30
     Davidson diagonalization with overlap
     ethr =  1.79E-04,  avg # of iterations =  4.5

     total cpu time spent up to now is       56.1 secs

     total energy              =    -344.84551757 Ry
     estimated scf accuracy    <       0.08554964 Ry

     iteration #  7     ecut=    50.00 Ry     beta= 0.30
     Davidson diagonalization with overlap
     ethr =  1.79E-04,  avg # of iterations =  3.2

     total cpu time spent up to now is       62.6 secs

     total energy              =    -344.83664911 Ry
     estimated scf accuracy    <       0.02361129 Ry

     iteration #  8     ecut=    50.00 Ry     beta= 0.30
     Davidson diagonalization with overlap
     c_bands:  1 eigenvalues not converged
     c_bands:  1 eigenvalues not converged
     c_bands:  1 eigenvalues not converged
     ethr =  6.56E-05,  avg # of iterations =  8.9

     total cpu time spent up to now is       75.0 secs

     total energy              =    -344.86219335 Ry
     estimated scf accuracy    <       0.07565175 Ry

     iteration #  9     ecut=    50.00 Ry     beta= 0.30
     Davidson diagonalization with overlap
     ethr =  6.56E-05,  avg # of iterations =  1.9

     total cpu time spent up to now is       80.5 secs

     total energy              =    -344.83979347 Ry
     estimated scf accuracy    <       0.04600033 Ry

     iteration # 10     ecut=    50.00 Ry     beta= 0.30
     Davidson diagonalization with overlap
     c_bands:  1 eigenvalues not converged
     ethr =  6.56E-05,  avg # of iterations =  6.4

     total cpu time spent up to now is       90.3 secs

     total energy              =    -344.85966418 Ry
     estimated scf accuracy    <       0.00873783 Ry

     iteration # 11     ecut=    50.00 Ry     beta= 0.30
     Davidson diagonalization with overlap
     ethr =  2.43E-05,  avg # of iterations =  1.8

     total cpu time spent up to now is       95.6 secs

     total energy              =    -344.85883252 Ry
     estimated scf accuracy    <       0.00721074 Ry

     iteration # 12     ecut=    50.00 Ry     beta= 0.30
     Davidson diagonalization with overlap
     ethr =  2.00E-05,  avg # of iterations =  1.8

     total cpu time spent up to now is      100.9 secs

     total energy              =    -344.85767099 Ry
     estimated scf accuracy    <       0.00493017 Ry

     iteration # 13     ecut=    50.00 Ry     beta= 0.30
     Davidson diagonalization with overlap
     ethr =  1.37E-05,  avg # of iterations =  2.9

     total cpu time spent up to now is      106.9 secs

     total energy              =    -344.85766558 Ry
     estimated scf accuracy    <       0.00145473 Ry

     iteration # 14     ecut=    50.00 Ry     beta= 0.30
     Davidson diagonalization with overlap
     ethr =  4.04E-06,  avg # of iterations =  5.6

     total cpu time spent up to now is      114.4 secs

     total energy              =    -344.85805211 Ry
     estimated scf accuracy    <       0.00012090 Ry

     iteration # 15     ecut=    50.00 Ry     beta= 0.30
     Davidson diagonalization with overlap
     ethr =  3.36E-07,  avg # of iterations =  5.4

     total cpu time spent up to now is      122.9 secs

     total energy              =    -344.85811015 Ry
     estimated scf accuracy    <       0.00004781 Ry

     iteration # 16     ecut=    50.00 Ry     beta= 0.30
     Davidson diagonalization with overlap
     ethr =  1.33E-07,  avg # of iterations =  4.5

     total cpu time spent up to now is      129.4 secs

     total energy              =    -344.85812095 Ry
     estimated scf accuracy    <       0.00004469 Ry

     iteration # 17     ecut=    50.00 Ry     beta= 0.30
     Davidson diagonalization with overlap
     ethr =  1.24E-07,  avg # of iterations =  2.1

     total cpu time spent up to now is      135.3 secs

     total energy              =    -344.85814929 Ry
     estimated scf accuracy    <       0.00005949 Ry

     iteration # 18     ecut=    50.00 Ry     beta= 0.30
     Davidson diagonalization with overlap
     c_bands:  1 eigenvalues not converged
     c_bands:  1 eigenvalues not converged
     ethr =  1.24E-07,  avg # of iterations =  8.2

     total cpu time spent up to now is      146.4 secs

     total energy              =    -344.85818516 Ry
     estimated scf accuracy    <       0.00034313 Ry

     iteration # 19     ecut=    50.00 Ry     beta= 0.30
     Davidson diagonalization with overlap
     ethr =  1.24E-07,  avg # of iterations =  2.9

     total cpu time spent up to now is      152.0 secs

     total energy              =    -344.85809934 Ry
     estimated scf accuracy    <       0.00032548 Ry

     iteration # 20     ecut=    50.00 Ry     beta= 0.30
     Davidson diagonalization with overlap
     ethr =  1.24E-07,  avg # of iterations =  5.4

     total cpu time spent up to now is      160.5 secs

     total energy              =    -344.85811163 Ry
     estimated scf accuracy    <       0.00007633 Ry

     iteration # 21     ecut=    50.00 Ry     beta= 0.30
     Davidson diagonalization with overlap
     ethr =  1.24E-07,  avg # of iterations =  1.7

     total cpu time spent up to now is      165.7 secs

     total energy              =    -344.85809226 Ry
     estimated scf accuracy    <       0.00005207 Ry

     iteration # 22     ecut=    50.00 Ry     beta= 0.30
     Davidson diagonalization with overlap
     ethr =  1.24E-07,  avg # of iterations =  6.4

     total cpu time spent up to now is      173.8 secs

     total energy              =    -344.85810747 Ry
     estimated scf accuracy    <       0.00001226 Ry

     iteration # 23     ecut=    50.00 Ry     beta= 0.30
     Davidson diagonalization with overlap
     ethr =  3.40E-08,  avg # of iterations =  3.6

     total cpu time spent up to now is      179.9 secs

     total energy              =    -344.85810739 Ry
     estimated scf accuracy    <       0.00000607 Ry

     iteration # 24     ecut=    50.00 Ry     beta= 0.30
     Davidson diagonalization with overlap
     ethr =  1.69E-08,  avg # of iterations =  4.5

     total cpu time spent up to now is      186.2 secs

     total energy              =    -344.85810759 Ry
     estimated scf accuracy    <       0.00000164 Ry

     iteration # 25     ecut=    50.00 Ry     beta= 0.30
     Davidson diagonalization with overlap
     ethr =  4.56E-09,  avg # of iterations =  6.9

     total cpu time spent up to now is      193.9 secs

     total energy              =    -344.85810823 Ry
     estimated scf accuracy    <       0.00000003 Ry

     iteration # 26     ecut=    50.00 Ry     beta= 0.30
     Davidson diagonalization with overlap
     c_bands:  1 eigenvalues not converged
     c_bands:  1 eigenvalues not converged
     c_bands:  1 eigenvalues not converged
     c_bands:  1 eigenvalues not converged
     c_bands:  1 eigenvalues not converged
     c_bands:  1 eigenvalues not converged
     c_bands:  1 eigenvalues not converged
     c_bands:  1 eigenvalues not converged
     ethr =  9.39E-11,  avg # of iterations = 13.2

     total cpu time spent up to now is      209.9 secs

     total energy              =    -344.85810821 Ry
     estimated scf accuracy    <       0.00000084 Ry

     iteration # 27     ecut=    50.00 Ry     beta= 0.30
     Davidson diagonalization with overlap
     c_bands:  1 eigenvalues not converged
     c_bands:  1 eigenvalues not converged
     ethr =  9.39E-11,  avg # of iterations =  9.2

     total cpu time spent up to now is      220.5 secs

     total energy              =    -344.85810822 Ry
     estimated scf accuracy    <       0.00000018 Ry

     iteration # 28     ecut=    50.00 Ry     beta= 0.30
     Davidson diagonalization with overlap
     ethr =  9.39E-11,  avg # of iterations =  5.9

     total cpu time spent up to now is      227.6 secs

     total energy              =    -344.85810820 Ry
     estimated scf accuracy    <       0.00000006 Ry

     iteration # 29     ecut=    50.00 Ry     beta= 0.30
     Davidson diagonalization with overlap
     ethr =  9.39E-11,  avg # of iterations =  6.6

     total cpu time spent up to now is      236.4 secs

     End of self-consistent calculation

     Number of k-points >= 100: set verbosity='high' to print the bands.

     highest occupied level (ev):     9.3940

!    total energy              =    -344.85810821 Ry
     estimated scf accuracy    <          5.4E-09 Ry

     The total energy is the sum of the following terms:
     one-electron contribution =    -323.07545176 Ry
     hartree contribution      =     194.20853470 Ry
     xc contribution           =    -112.51945063 Ry
     ewald contribution        =    -103.47174054 Ry

     convergence has been achieved in  29 iterations

     Forces acting on atoms (cartesian axes, Ry/au):

     atom    1 type  1   force =   -30.89482311  -22.77144718   -9.41353247
     atom    2 type  1   force =     0.01437738   -0.03766062    0.20446247
     atom    3 type  2   force =    30.26243879   22.44307885    9.84262502
     atom    4 type  2   force =     0.61800695    0.36602896   -0.63355502
     The non-local contrib.  to forces
     atom    1 type  1   force =    14.21252745   10.34340547    3.59573935
     atom    2 type  1   force =    -0.04374882    0.13415002   -0.48794896
     atom    3 type  2   force =    -2.45260773   -2.09933205   -3.07307134
     atom    4 type  2   force =    -1.91115731   -1.04209433    1.89118227
     The ionic contribution  to forces
     atom    1 type  1   force =   -74.73668931  -52.78552655  -30.85680270
     atom    2 type  1   force =     0.99504528   -1.22427930   30.17950522
     atom    3 type  2   force =    62.43097450   47.68613218   24.45030202
     atom    4 type  2   force =    11.31066954    6.32367368  -23.77300454
     The local contribution  to forces
     atom    1 type  1   force =    28.67165505   18.96590693   17.52375844
     atom    2 type  1   force =    -0.93815810    1.05152950  -29.48134911
     atom    3 type  2   force =   -29.63816070  -23.08806836  -11.52671574
     atom    4 type  2   force =    -8.79611903   -4.92331903   21.26288850
     The core correction contribution to forces
     atom    1 type  1   force =     0.95754775    0.70467710    0.32389863
     atom    2 type  1   force =     0.00130839    0.00098932   -0.00572951
     atom    3 type  2   force =    -0.07779810   -0.05566668   -0.00777910
     atom    4 type  2   force =     0.01468433    0.00781376   -0.01466350
     The Hubbard contrib.    to forces
     atom    1 type  1   force =     0.00000000    0.00000000    0.00000000
     atom    2 type  1   force =     0.00000000    0.00000000    0.00000000
     atom    3 type  2   force =     0.00000000    0.00000000    0.00000000
     atom    4 type  2   force =     0.00000000    0.00000000    0.00000000
     The SCF correction term to forces
     atom    1 type  1   force =     0.00016964    0.00011131   -0.00017083
     atom    2 type  1   force =    -0.00003567   -0.00002871   -0.00005983
     atom    3 type  2   force =     0.00006450    0.00003520   -0.00015546
     atom    4 type  2   force =    -0.00003689   -0.00002368   -0.00000240

     Total force =    55.488634     Total SCF correction =     0.000328

     Writing all to output data dir ./ZnO_ANN.save/

     init_run     :      3.91s CPU      3.99s WALL (       1 calls)
     electrons    :    228.84s CPU    232.12s WALL (       1 calls)
     forces       :      1.25s CPU      1.27s WALL (       1 calls)

     Called by init_run:
     wfcinit      :      2.76s CPU      2.81s WALL (       1 calls)
     potinit      :      0.37s CPU      0.37s WALL (       1 calls)
     hinit0       :      0.69s CPU      0.70s WALL (       1 calls)

     Called by electrons:
     c_bands      :    203.63s CPU    206.44s WALL (      29 calls)
     sum_band     :     22.69s CPU     23.09s WALL (      29 calls)
     v_of_rho     :      0.58s CPU      0.61s WALL (      30 calls)
     newd         :      1.88s CPU      1.92s WALL (      30 calls)
     mix_rho      :      0.09s CPU      0.09s WALL (      29 calls)

     Called by c_bands:
     init_us_2    :      1.45s CPU      1.47s WALL (    6720 calls)
     init_us_2:cp :      1.43s CPU      1.45s WALL (    6720 calls)
     cegterg      :    198.32s CPU    201.07s WALL (    3248 calls)

     Called by *egterg:
     cdiaghg      :     19.32s CPU     19.46s WALL (   19825 calls)
     h_psi        :    113.94s CPU    115.95s WALL (   19937 calls)
     s_psi        :     10.52s CPU     10.60s WALL (   19937 calls)
     g_psi        :      0.39s CPU      0.40s WALL (   16577 calls)

     Called by h_psi:
     h_psi:calbec :     16.36s CPU     16.76s WALL (   19937 calls)
     vloc_psi     :     86.99s CPU     88.52s WALL (   19937 calls)
     add_vuspsi   :     10.27s CPU     10.36s WALL (   19937 calls)

     General routines
     calbec       :     22.18s CPU     22.71s WALL (   23633 calls)
     fft          :      0.82s CPU      0.87s WALL (     399 calls)
     ffts         :      0.15s CPU      0.15s WALL (      59 calls)
     fftw         :     91.15s CPU     92.77s WALL (  424460 calls)
     interpolate  :      0.17s CPU      0.17s WALL (      30 calls)

     Parallel routines

     PWSCF        :   3m54.59s CPU   3m58.21s WALL


   This run was terminated on:  18:18:54  24Jun2025            

=------------------------------------------------------------------------------=
   JOB DONE.
=------------------------------------------------------------------------------=
Note: The following floating-point exceptions are signalling: IEEE_INVALID_FLAG
