
     Program PWSCF v.7.2 starts on 24Jun2025 at 15:25: 6 

     This program is part of the open-source Quantum ESPRESSO suite
     for quantum simulation of materials; please cite
         "P. Giannozzi et al., J. Phys.:Condens. Matter 21 395502 (2009);
         "P. Giannozzi et al., J. Phys.:Condens. Matter 29 465901 (2017);
         "P. Giannozzi et al., J. Chem. Phys. 152 154105 (2020);
          URL http://www.quantum-espresso.org", 
     in publications or presentations arising from this work. More details at
     http://www.quantum-espresso.org/quote

     Parallel version (MPI), running on     8 processors

     MPI processes distributed on     1 nodes
     91396 MiB available memory on the printing compute node when the environment starts

     Reading input from /home/jvc/QEspresso7.2/ZnO_DataBase/scf_025_NOSYM.in/scf-5.81-1.61-0.25-3.in

     Current dimensions of program PWSCF are:
     Max number of different atomic species (ntypx) = 10
     Max number of k-points (npk) =  40000
     Max angular momentum in pseudopotentials (lmaxx) =  4
     file Zn.upf: wavefunction(s)  3D renormalized

     R & G space division:  proc/nbgrp/npool/nimage =       8
     Subspace diagonalization in iterative solution of the eigenvalue problem:
     a serial algorithm will be used


     Parallelization info
     --------------------
     sticks:   dense  smooth     PW     G-vecs:    dense   smooth      PW
     Min         116      57     18                 4582     1619     281
     Max         117      58     20                 4585     1622     284
     Sum         931     463    151                36665    12971    2261

     Using Slab Decomposition



     bravais-lattice index     =            0
     lattice parameter (alat)  =       5.8081  a.u.
     unit-cell volume          =     271.4883 (a.u.)^3
     number of atoms/cell      =            4
     number of atomic types    =            2
     number of electrons       =        36.00
     number of Kohn-Sham states=           18
     kinetic-energy cutoff     =      50.0000  Ry
     charge density cutoff     =     400.0000  Ry
     scf convergence threshold =      1.0E-08
     mixing beta               =       0.3000
     number of iterations used =            8  plain     mixing
     Exchange-correlation= PBE
                           (   1   4   3   4   0   0   0)

     celldm(1)=   5.808092  celldm(2)=   0.000000  celldm(3)=   0.000000
     celldm(4)=   0.000000  celldm(5)=   0.000000  celldm(6)=   0.000000

     crystal axes: (cart. coord. in units of alat)
               a(1) = (   1.000000   0.000000   0.000000 )  
               a(2) = (  -0.500000   0.866025   0.000000 )  
               a(3) = (   0.000000   0.000000   1.600000 )  

     reciprocal axes: (cart. coord. in units 2 pi/alat)
               b(1) = (  1.000000  0.577350 -0.000000 )  
               b(2) = (  0.000000  1.154701  0.000000 )  
               b(3) = (  0.000000 -0.000000  0.625000 )  


     PseudoPot. # 1 for Zn read from file:
     ./pseudos/Zn.upf
     MD5 check sum: 7f56cabf9682ed8c977c2f7d0c5985c5
     Pseudo is Ultrasoft + core correction, Zval = 12.0
     Generated using &quot;atomic&quot; code by A. Dal Corso  v.6.2.2
     Using radial grid of 1201 points,  6 beta functions with: 
                l(1) =   0
                l(2) =   0
                l(3) =   1
                l(4) =   1
                l(5) =   2
                l(6) =   2
     Q(r) pseudized with 0 coefficients 


     PseudoPot. # 2 for O  read from file:
     ./pseudos/O.upf
     MD5 check sum: 91400c9766925bcf19f520983a725ff0
     Pseudo is Ultrasoft + core correction, Zval =  6.0
     Generated using &quot;atomic&quot; code by A. Dal Corso  v.6.3MaX
     Using radial grid of 1095 points,  4 beta functions with: 
                l(1) =   0
                l(2) =   0
                l(3) =   1
                l(4) =   1
     Q(r) pseudized with 0 coefficients 


     atomic species   valence    mass     pseudopotential
        Zn            12.00    63.38000     Zn( 1.00)
        O              6.00    15.99900     O ( 1.00)

     No symmetry found



   Cartesian axes

     site n.     atom                  positions (alat units)
         1           Zn  tau(   1) = (   0.4052469   0.2020251   0.8139202  )
         2           Zn  tau(   2) = (   0.1366369   0.7476685  -0.2002618  )
         3           O   tau(   3) = (   0.5701462   0.5008526   1.0398722  )
         4           O   tau(   4) = (  -0.1127905   0.6878707   0.6205967  )

     number of k points=   112

     Number of k-points >= 100: set verbosity='high' to print them.

     Dense  grid:    36665 G-vectors     FFT dimensions: (  40,  40,  60)

     Smooth grid:    12971 G-vectors     FFT dimensions: (  27,  27,  45)

     Estimated max dynamical RAM per process >      25.88 MB

     Estimated total dynamical RAM >     207.00 MB

     Check: negative core charge=   -0.000002

     Initial potential from superposition of free atoms

     starting charge      35.9925, renormalised to      36.0000
     Starting wfcs are   26 randomized atomic wfcs

     total cpu time spent up to now is        3.7 secs

     Self-consistent Calculation

     iteration #  1     ecut=    50.00 Ry     beta= 0.30
     Davidson diagonalization with overlap
     ethr =  1.00E-02,  avg # of iterations =  2.8

     total cpu time spent up to now is        9.0 secs

     total energy              =    -359.45841504 Ry
     estimated scf accuracy    <       1.76405940 Ry

     iteration #  2     ecut=    50.00 Ry     beta= 0.30
     Davidson diagonalization with overlap
     ethr =  4.90E-03,  avg # of iterations =  5.2

     total cpu time spent up to now is       14.8 secs

     total energy              =    -359.76499018 Ry
     estimated scf accuracy    <       0.10141075 Ry

     iteration #  3     ecut=    50.00 Ry     beta= 0.30
     Davidson diagonalization with overlap
     c_bands:  1 eigenvalues not converged
     c_bands:  1 eigenvalues not converged
     c_bands:  1 eigenvalues not converged
     c_bands:  2 eigenvalues not converged
     c_bands:  1 eigenvalues not converged
     ethr =  2.82E-04,  avg # of iterations = 11.5

     total cpu time spent up to now is       27.0 secs

     total energy              =    -359.73886493 Ry
     estimated scf accuracy    <       0.38217250 Ry

     iteration #  4     ecut=    50.00 Ry     beta= 0.30
     Davidson diagonalization with overlap
     c_bands:  1 eigenvalues not converged
     c_bands:  2 eigenvalues not converged
     c_bands:  1 eigenvalues not converged
     c_bands:  1 eigenvalues not converged
     ethr =  2.82E-04,  avg # of iterations = 14.5

     total cpu time spent up to now is       41.5 secs

     total energy              =    -359.90080602 Ry
     estimated scf accuracy    <       0.81282694 Ry

     iteration #  5     ecut=    50.00 Ry     beta= 0.30
     Davidson diagonalization with overlap
     ethr =  2.82E-04,  avg # of iterations =  7.0

     total cpu time spent up to now is       48.2 secs

     total energy              =    -359.89070168 Ry
     estimated scf accuracy    <       0.19751100 Ry

     iteration #  6     ecut=    50.00 Ry     beta= 0.30
     Davidson diagonalization with overlap
     ethr =  2.82E-04,  avg # of iterations =  2.9

     total cpu time spent up to now is       53.3 secs

     total energy              =    -359.86971558 Ry
     estimated scf accuracy    <       0.07872798 Ry

     iteration #  7     ecut=    50.00 Ry     beta= 0.30
     Davidson diagonalization with overlap
     c_bands:  1 eigenvalues not converged
     ethr =  2.19E-04,  avg # of iterations =  9.6

     total cpu time spent up to now is       61.9 secs

     total energy              =    -359.91186794 Ry
     estimated scf accuracy    <       0.10092170 Ry

     iteration #  8     ecut=    50.00 Ry     beta= 0.30
     Davidson diagonalization with overlap
     ethr =  2.19E-04,  avg # of iterations =  1.7

     total cpu time spent up to now is       66.4 secs

     total energy              =    -359.89599646 Ry
     estimated scf accuracy    <       0.05541340 Ry

     iteration #  9     ecut=    50.00 Ry     beta= 0.30
     Davidson diagonalization with overlap
     ethr =  1.54E-04,  avg # of iterations =  7.6

     total cpu time spent up to now is       73.0 secs

     total energy              =    -359.92167505 Ry
     estimated scf accuracy    <       0.01293198 Ry

     iteration # 10     ecut=    50.00 Ry     beta= 0.30
     Davidson diagonalization with overlap
     ethr =  3.59E-05,  avg # of iterations =  4.0

     total cpu time spent up to now is       78.5 secs

     total energy              =    -359.91113199 Ry
     estimated scf accuracy    <       0.03463907 Ry

     iteration # 11     ecut=    50.00 Ry     beta= 0.30
     Davidson diagonalization with overlap
     ethr =  3.59E-05,  avg # of iterations =  8.0

     total cpu time spent up to now is       85.3 secs

     total energy              =    -359.91568225 Ry
     estimated scf accuracy    <       0.00004094 Ry

     iteration # 12     ecut=    50.00 Ry     beta= 0.30
     Davidson diagonalization with overlap
     c_bands:  3 eigenvalues not converged
     c_bands:  2 eigenvalues not converged
     c_bands:  1 eigenvalues not converged
     c_bands:  1 eigenvalues not converged
     c_bands:  1 eigenvalues not converged
     c_bands:  1 eigenvalues not converged
     c_bands:  1 eigenvalues not converged
     c_bands:  1 eigenvalues not converged
     c_bands:  1 eigenvalues not converged
     c_bands:  1 eigenvalues not converged
     c_bands:  3 eigenvalues not converged
     c_bands:  1 eigenvalues not converged
     c_bands:  2 eigenvalues not converged
     c_bands:  1 eigenvalues not converged
     c_bands:  1 eigenvalues not converged
     c_bands:  2 eigenvalues not converged
     c_bands:  3 eigenvalues not converged
     c_bands:  3 eigenvalues not converged
     c_bands:  1 eigenvalues not converged
     c_bands:  1 eigenvalues not converged
     c_bands:  1 eigenvalues not converged
     c_bands:  1 eigenvalues not converged
     c_bands:  2 eigenvalues not converged
     c_bands:  1 eigenvalues not converged
     c_bands:  1 eigenvalues not converged
     c_bands:  1 eigenvalues not converged
     c_bands:  1 eigenvalues not converged
     c_bands:  1 eigenvalues not converged
     c_bands:  2 eigenvalues not converged
     c_bands:  1 eigenvalues not converged
     ethr =  1.14E-07,  avg # of iterations = 17.2

     total cpu time spent up to now is      103.9 secs

     total energy              =    -359.91614938 Ry
     estimated scf accuracy    <       0.00164843 Ry

     iteration # 13     ecut=    50.00 Ry     beta= 0.30
     Davidson diagonalization with overlap
     ethr =  1.14E-07,  avg # of iterations =  7.8

     total cpu time spent up to now is      111.2 secs

     total energy              =    -359.91583709 Ry
     estimated scf accuracy    <       0.00094589 Ry

     iteration # 14     ecut=    50.00 Ry     beta= 0.30
     Davidson diagonalization with overlap
     c_bands:  1 eigenvalues not converged
     c_bands:  1 eigenvalues not converged
     c_bands:  1 eigenvalues not converged
     c_bands:  2 eigenvalues not converged
     c_bands:  1 eigenvalues not converged
     c_bands:  1 eigenvalues not converged
     c_bands:  1 eigenvalues not converged
     c_bands:  2 eigenvalues not converged
     c_bands:  1 eigenvalues not converged
     c_bands:  1 eigenvalues not converged
     c_bands:  1 eigenvalues not converged
     ethr =  1.14E-07,  avg # of iterations = 15.5

     total cpu time spent up to now is      126.4 secs

     total energy              =    -359.91603399 Ry
     estimated scf accuracy    <       0.00006245 Ry

     iteration # 15     ecut=    50.00 Ry     beta= 0.30
     Davidson diagonalization with overlap
     ethr =  1.14E-07,  avg # of iterations =  1.5

     total cpu time spent up to now is      130.7 secs

     total energy              =    -359.91602769 Ry
     estimated scf accuracy    <       0.00004771 Ry

     iteration # 16     ecut=    50.00 Ry     beta= 0.30
     Davidson diagonalization with overlap
     ethr =  1.14E-07,  avg # of iterations =  2.7

     total cpu time spent up to now is      135.7 secs

     total energy              =    -359.91603011 Ry
     estimated scf accuracy    <       0.00001589 Ry

     iteration # 17     ecut=    50.00 Ry     beta= 0.30
     Davidson diagonalization with overlap
     ethr =  4.41E-08,  avg # of iterations =  2.9

     total cpu time spent up to now is      140.6 secs

     total energy              =    -359.91602833 Ry
     estimated scf accuracy    <       0.00000966 Ry

     iteration # 18     ecut=    50.00 Ry     beta= 0.30
     Davidson diagonalization with overlap
     ethr =  2.68E-08,  avg # of iterations =  8.1

     total cpu time spent up to now is      147.3 secs

     total energy              =    -359.91603163 Ry
     estimated scf accuracy    <       0.00000144 Ry

     iteration # 19     ecut=    50.00 Ry     beta= 0.30
     Davidson diagonalization with overlap
     ethr =  4.00E-09,  avg # of iterations =  4.8

     total cpu time spent up to now is      153.0 secs

     total energy              =    -359.91603156 Ry
     estimated scf accuracy    <       0.00000041 Ry

     iteration # 20     ecut=    50.00 Ry     beta= 0.30
     Davidson diagonalization with overlap
     c_bands:  1 eigenvalues not converged
     c_bands:  1 eigenvalues not converged
     c_bands:  1 eigenvalues not converged
     c_bands:  2 eigenvalues not converged
     ethr =  1.15E-09,  avg # of iterations = 13.8

     total cpu time spent up to now is      164.7 secs

     total energy              =    -359.91603227 Ry
     estimated scf accuracy    <       0.00000345 Ry

     iteration # 21     ecut=    50.00 Ry     beta= 0.30
     Davidson diagonalization with overlap
     ethr =  1.15E-09,  avg # of iterations =  1.9

     total cpu time spent up to now is      169.2 secs

     total energy              =    -359.91603149 Ry
     estimated scf accuracy    <       0.00000286 Ry

     iteration # 22     ecut=    50.00 Ry     beta= 0.30
     Davidson diagonalization with overlap
     ethr =  1.15E-09,  avg # of iterations = 11.3

     total cpu time spent up to now is      178.6 secs

     total energy              =    -359.91603196 Ry
     estimated scf accuracy    <       0.00000001 Ry

     iteration # 23     ecut=    50.00 Ry     beta= 0.30
     Davidson diagonalization with overlap
     ethr =  3.85E-11,  avg # of iterations =  6.1

     total cpu time spent up to now is      185.7 secs

     total energy              =    -359.91603196 Ry
     estimated scf accuracy    <       0.00000002 Ry

     iteration # 24     ecut=    50.00 Ry     beta= 0.30
     Davidson diagonalization with overlap
     ethr =  3.85E-11,  avg # of iterations =  3.9

     total cpu time spent up to now is      190.7 secs

     End of self-consistent calculation

     Number of k-points >= 100: set verbosity='high' to print the bands.

     highest occupied level (ev):    12.3751

!    total energy              =    -359.91603196 Ry
     estimated scf accuracy    <          3.4E-09 Ry

     The total energy is the sum of the following terms:
     one-electron contribution =    -195.78424016 Ry
     hartree contribution      =     140.79931989 Ry
     xc contribution           =    -110.51606977 Ry
     ewald contribution        =    -194.41504192 Ry

     convergence has been achieved in  24 iterations

     Forces acting on atoms (cartesian axes, Ry/au):

     atom    1 type  1   force =    -0.72537070   -0.12987799   -0.57833103
     atom    2 type  1   force =    -0.00820209   -0.02228780    0.21595164
     atom    3 type  2   force =     0.68050969    1.44737707    1.40575499
     atom    4 type  2   force =     0.05306310   -1.29521128   -1.04337561
     The non-local contrib.  to forces
     atom    1 type  1   force =    -0.22525285    0.32359111    0.32011235
     atom    2 type  1   force =    -0.19894726    0.13838485   -0.14158418
     atom    3 type  2   force =    -0.75951749   -0.59257717    0.40617928
     atom    4 type  2   force =     0.19057446    0.88749018    0.12088778
     The ionic contribution  to forces
     atom    1 type  1   force =    -7.30469720    2.12155673  -18.91552853
     atom    2 type  1   force =     0.40981327   -0.48715124   28.34702725
     atom    3 type  2   force =     6.38927199   10.17676279   11.83237198
     atom    4 type  2   force =     0.50561193  -11.81116827  -21.26387070
     The local contribution  to forces
     atom    1 type  1   force =     6.70464704   -2.55301128   17.96436957
     atom    2 type  1   force =    -0.23091775    0.33180730  -27.96110509
     atom    3 type  2   force =    -4.95281969   -8.13631849  -10.82311934
     atom    4 type  2   force =    -0.64101636    9.63011416   20.09506367
     The core correction contribution to forces
     atom    1 type  1   force =     0.09991342   -0.02194313    0.05282145
     atom    2 type  1   force =     0.01185050   -0.00533029   -0.02838314
     atom    3 type  2   force =     0.00355513   -0.00051283   -0.00962553
     atom    4 type  2   force =    -0.00209187   -0.00164614    0.00454090
     The Hubbard contrib.    to forces
     atom    1 type  1   force =     0.00000000    0.00000000    0.00000000
     atom    2 type  1   force =     0.00000000    0.00000000    0.00000000
     atom    3 type  2   force =     0.00000000    0.00000000    0.00000000
     atom    4 type  2   force =     0.00000000    0.00000000    0.00000000
     The SCF correction term to forces
     atom    1 type  1   force =     0.00002427   -0.00008020   -0.00011956
     atom    2 type  1   force =     0.00000453   -0.00000720   -0.00001688
     atom    3 type  2   force =     0.00002512    0.00001399   -0.00006508
     atom    4 type  2   force =    -0.00000968   -0.00000998   -0.00001095

     Total force =     2.868424     Total SCF correction =     0.000164

     Writing all to output data dir ./ZnO_ANN.save/

     init_run     :      3.20s CPU      3.28s WALL (       1 calls)
     electrons    :    183.57s CPU    187.01s WALL (       1 calls)
     forces       :      0.95s CPU      0.96s WALL (       1 calls)

     Called by init_run:
     wfcinit      :      2.34s CPU      2.40s WALL (       1 calls)
     potinit      :      0.23s CPU      0.23s WALL (       1 calls)
     hinit0       :      0.56s CPU      0.57s WALL (       1 calls)

     Called by electrons:
     c_bands      :    165.88s CPU    168.89s WALL (      24 calls)
     sum_band     :     16.16s CPU     16.55s WALL (      24 calls)
     v_of_rho     :      0.34s CPU      0.36s WALL (      25 calls)
     newd         :      1.15s CPU      1.18s WALL (      25 calls)
     mix_rho      :      0.05s CPU      0.06s WALL (      24 calls)

     Called by c_bands:
     init_us_2    :      0.94s CPU      0.96s WALL (    5600 calls)
     init_us_2:cp :      0.92s CPU      0.95s WALL (    5600 calls)
     cegterg      :    162.65s CPU    165.57s WALL (    2688 calls)

     Called by *egterg:
     cdiaghg      :     22.98s CPU     23.23s WALL (   21979 calls)
     h_psi        :     94.09s CPU     96.16s WALL (   22091 calls)
     s_psi        :      8.67s CPU      8.78s WALL (   22091 calls)
     g_psi        :      0.29s CPU      0.30s WALL (   19291 calls)

     Called by h_psi:
     h_psi:calbec :     11.55s CPU     11.91s WALL (   22091 calls)
     vloc_psi     :     73.52s CPU     75.14s WALL (   22091 calls)
     add_vuspsi   :      8.71s CPU      8.81s WALL (   22091 calls)

     General routines
     calbec       :     15.24s CPU     15.71s WALL (   25227 calls)
     fft          :      0.54s CPU      0.58s WALL (     334 calls)
     ffts         :      0.08s CPU      0.08s WALL (      49 calls)
     fftw         :     76.48s CPU     78.18s WALL (  385830 calls)
     interpolate  :      0.09s CPU      0.09s WALL (      25 calls)

     Parallel routines

     PWSCF        :   3m 8.41s CPU   3m12.08s WALL


   This run was terminated on:  15:28:18  24Jun2025            

=------------------------------------------------------------------------------=
   JOB DONE.
=------------------------------------------------------------------------------=
Note: The following floating-point exceptions are signalling: IEEE_INVALID_FLAG
