
     Program PWSCF v.7.2 starts on 24Jun2025 at 18:43: 2 

     This program is part of the open-source Quantum ESPRESSO suite
     for quantum simulation of materials; please cite
         "P. Giannozzi et al., J. Phys.:Condens. Matter 21 395502 (2009);
         "P. Giannozzi et al., J. Phys.:Condens. Matter 29 465901 (2017);
         "P. Giannozzi et al., J. Chem. Phys. 152 154105 (2020);
          URL http://www.quantum-espresso.org", 
     in publications or presentations arising from this work. More details at
     http://www.quantum-espresso.org/quote

     Parallel version (MPI), running on     8 processors

     MPI processes distributed on     1 nodes
     90843 MiB available memory on the printing compute node when the environment starts

     Reading input from /home/jvc/QEspresso7.2/ZnO_DataBase/scf_025_NOSYM.in/scf-6.43-1.74-0.25-5.in

     Current dimensions of program PWSCF are:
     Max number of different atomic species (ntypx) = 10
     Max number of k-points (npk) =  40000
     Max angular momentum in pseudopotentials (lmaxx) =  4
     file Zn.upf: wavefunction(s)  3D renormalized

     R & G space division:  proc/nbgrp/npool/nimage =       8
     Subspace diagonalization in iterative solution of the eigenvalue problem:
     a serial algorithm will be used


     Parallelization info
     --------------------
     sticks:   dense  smooth     PW     G-vecs:    dense   smooth      PW
     Min         143      71     20                 6229     2189     360
     Max         145      73     21                 6232     2190     367
     Sum        1147     571    163                49835    17513    2899

     Using Slab Decomposition



     bravais-lattice index     =            0
     lattice parameter (alat)  =       6.4260  a.u.
     unit-cell volume          =     367.6779 (a.u.)^3
     number of atoms/cell      =            4
     number of atomic types    =            2
     number of electrons       =        36.00
     number of Kohn-Sham states=           18
     kinetic-energy cutoff     =      50.0000  Ry
     charge density cutoff     =     400.0000  Ry
     scf convergence threshold =      1.0E-08
     mixing beta               =       0.3000
     number of iterations used =            8  plain     mixing
     Exchange-correlation= PBE
                           (   1   4   3   4   0   0   0)

     celldm(1)=   6.425974  celldm(2)=   0.000000  celldm(3)=   0.000000
     celldm(4)=   0.000000  celldm(5)=   0.000000  celldm(6)=   0.000000

     crystal axes: (cart. coord. in units of alat)
               a(1) = (   1.000000   0.000000   0.000000 )  
               a(2) = (  -0.500000   0.866025   0.000000 )  
               a(3) = (   0.000000   0.000000   1.600000 )  

     reciprocal axes: (cart. coord. in units 2 pi/alat)
               b(1) = (  1.000000  0.577350 -0.000000 )  
               b(2) = (  0.000000  1.154701  0.000000 )  
               b(3) = (  0.000000 -0.000000  0.625000 )  


     PseudoPot. # 1 for Zn read from file:
     ./pseudos/Zn.upf
     MD5 check sum: 7f56cabf9682ed8c977c2f7d0c5985c5
     Pseudo is Ultrasoft + core correction, Zval = 12.0
     Generated using &quot;atomic&quot; code by A. Dal Corso  v.6.2.2
     Using radial grid of 1201 points,  6 beta functions with: 
                l(1) =   0
                l(2) =   0
                l(3) =   1
                l(4) =   1
                l(5) =   2
                l(6) =   2
     Q(r) pseudized with 0 coefficients 


     PseudoPot. # 2 for O  read from file:
     ./pseudos/O.upf
     MD5 check sum: 91400c9766925bcf19f520983a725ff0
     Pseudo is Ultrasoft + core correction, Zval =  6.0
     Generated using &quot;atomic&quot; code by A. Dal Corso  v.6.3MaX
     Using radial grid of 1095 points,  4 beta functions with: 
                l(1) =   0
                l(2) =   0
                l(3) =   1
                l(4) =   1
     Q(r) pseudized with 0 coefficients 


     atomic species   valence    mass     pseudopotential
        Zn            12.00    63.38000     Zn( 1.00)
        O              6.00    15.99900     O ( 1.00)

     No symmetry found



   Cartesian axes

     site n.     atom                  positions (alat units)
         1           Zn  tau(   1) = (   0.8050212   0.1325125   1.0050370  )
         2           Zn  tau(   2) = (   0.0446133   0.4944824   0.1050480  )
         3           O   tau(   3) = (   0.3824082   0.2728106   1.4895038  )
         4           O   tau(   4) = (   0.1639654   0.4799395   0.3206129  )

     number of k points=   112

     Number of k-points >= 100: set verbosity='high' to print them.

     Dense  grid:    49835 G-vectors     FFT dimensions: (  45,  45,  72)

     Smooth grid:    17513 G-vectors     FFT dimensions: (  30,  30,  48)

     Estimated max dynamical RAM per process >      34.06 MB

     Estimated total dynamical RAM >     272.46 MB

     Check: negative core charge=   -0.000002

     Initial potential from superposition of free atoms

     starting charge      35.9925, renormalised to      36.0000
     Starting wfcs are   26 randomized atomic wfcs

     total cpu time spent up to now is        4.3 secs

     Self-consistent Calculation

     iteration #  1     ecut=    50.00 Ry     beta= 0.30
     Davidson diagonalization with overlap
     ethr =  1.00E-02,  avg # of iterations =  4.0

     total cpu time spent up to now is       12.6 secs

     total energy              =    -354.54099501 Ry
     estimated scf accuracy    <       1.10672160 Ry

     iteration #  2     ecut=    50.00 Ry     beta= 0.30
     Davidson diagonalization with overlap
     ethr =  3.07E-03,  avg # of iterations =  2.0

     total cpu time spent up to now is       18.7 secs

     total energy              =    -354.53456147 Ry
     estimated scf accuracy    <       0.26181560 Ry

     iteration #  3     ecut=    50.00 Ry     beta= 0.30
     Davidson diagonalization with overlap
     ethr =  7.27E-04,  avg # of iterations =  9.7

     total cpu time spent up to now is       31.1 secs

     total energy              =    -354.69638875 Ry
     estimated scf accuracy    <       0.29687970 Ry

     iteration #  4     ecut=    50.00 Ry     beta= 0.30
     Davidson diagonalization with overlap
     ethr =  7.27E-04,  avg # of iterations =  2.0

     total cpu time spent up to now is       36.8 secs

     total energy              =    -354.62991684 Ry
     estimated scf accuracy    <       0.11038478 Ry

     iteration #  5     ecut=    50.00 Ry     beta= 0.30
     Davidson diagonalization with overlap
     ethr =  3.07E-04,  avg # of iterations =  9.7

     total cpu time spent up to now is       52.6 secs

     total energy              =    -354.68261954 Ry
     estimated scf accuracy    <       0.89565455 Ry

     iteration #  6     ecut=    50.00 Ry     beta= 0.30
     Davidson diagonalization with overlap
     ethr =  3.07E-04,  avg # of iterations =  5.6

     total cpu time spent up to now is       61.6 secs

     total energy              =    -354.71959170 Ry
     estimated scf accuracy    <       0.14998415 Ry

     iteration #  7     ecut=    50.00 Ry     beta= 0.30
     Davidson diagonalization with overlap
     ethr =  3.07E-04,  avg # of iterations =  2.0

     total cpu time spent up to now is       67.3 secs

     total energy              =    -354.67906327 Ry
     estimated scf accuracy    <       0.07923529 Ry

     iteration #  8     ecut=    50.00 Ry     beta= 0.30
     Davidson diagonalization with overlap
     ethr =  2.20E-04,  avg # of iterations =  7.0

     total cpu time spent up to now is       77.3 secs

     total energy              =    -354.74198243 Ry
     estimated scf accuracy    <       0.11764173 Ry

     iteration #  9     ecut=    50.00 Ry     beta= 0.30
     Davidson diagonalization with overlap
     ethr =  2.20E-04,  avg # of iterations =  1.1

     total cpu time spent up to now is       82.3 secs

     total energy              =    -354.70450729 Ry
     estimated scf accuracy    <       0.09227382 Ry

     iteration # 10     ecut=    50.00 Ry     beta= 0.30
     Davidson diagonalization with overlap
     ethr =  2.20E-04,  avg # of iterations =  5.5

     total cpu time spent up to now is       90.2 secs

     total energy              =    -354.72614361 Ry
     estimated scf accuracy    <       0.00449201 Ry

     iteration # 11     ecut=    50.00 Ry     beta= 0.30
     Davidson diagonalization with overlap
     ethr =  1.25E-05,  avg # of iterations =  5.7

     total cpu time spent up to now is       99.1 secs

     total energy              =    -354.72706264 Ry
     estimated scf accuracy    <       0.00326444 Ry

     iteration # 12     ecut=    50.00 Ry     beta= 0.30
     Davidson diagonalization with overlap
     ethr =  9.07E-06,  avg # of iterations =  8.1

     total cpu time spent up to now is      110.2 secs

     total energy              =    -354.72819090 Ry
     estimated scf accuracy    <       0.00466158 Ry

     iteration # 13     ecut=    50.00 Ry     beta= 0.30
     Davidson diagonalization with overlap
     ethr =  9.07E-06,  avg # of iterations =  3.1

     total cpu time spent up to now is      116.4 secs

     total energy              =    -354.72821913 Ry
     estimated scf accuracy    <       0.00103162 Ry

     iteration # 14     ecut=    50.00 Ry     beta= 0.30
     Davidson diagonalization with overlap
     ethr =  2.87E-06,  avg # of iterations =  6.9

     total cpu time spent up to now is      126.5 secs

     total energy              =    -354.72880260 Ry
     estimated scf accuracy    <       0.00036010 Ry

     iteration # 15     ecut=    50.00 Ry     beta= 0.30
     Davidson diagonalization with overlap
     ethr =  1.00E-06,  avg # of iterations =  1.9

     total cpu time spent up to now is      132.0 secs

     total energy              =    -354.72874731 Ry
     estimated scf accuracy    <       0.00019773 Ry

     iteration # 16     ecut=    50.00 Ry     beta= 0.30
     Davidson diagonalization with overlap
     ethr =  5.49E-07,  avg # of iterations =  4.7

     total cpu time spent up to now is      139.2 secs

     total energy              =    -354.72879735 Ry
     estimated scf accuracy    <       0.00000623 Ry

     iteration # 17     ecut=    50.00 Ry     beta= 0.30
     Davidson diagonalization with overlap
     ethr =  1.73E-08,  avg # of iterations =  9.5

     total cpu time spent up to now is      151.4 secs

     total energy              =    -354.72880705 Ry
     estimated scf accuracy    <       0.00000160 Ry

     iteration # 18     ecut=    50.00 Ry     beta= 0.30
     Davidson diagonalization with overlap
     c_bands:  1 eigenvalues not converged
     c_bands:  1 eigenvalues not converged
     c_bands:  1 eigenvalues not converged
     c_bands:  1 eigenvalues not converged
     ethr =  4.43E-09,  avg # of iterations = 12.3

     total cpu time spent up to now is      167.7 secs

     total energy              =    -354.72880349 Ry
     estimated scf accuracy    <       0.00002589 Ry

     iteration # 19     ecut=    50.00 Ry     beta= 0.30
     Davidson diagonalization with overlap
     c_bands:  1 eigenvalues not converged
     c_bands:  1 eigenvalues not converged
     c_bands:  1 eigenvalues not converged
     c_bands:  1 eigenvalues not converged
     c_bands:  1 eigenvalues not converged
     ethr =  4.43E-09,  avg # of iterations = 12.9

     total cpu time spent up to now is      182.6 secs

     total energy              =    -354.72880653 Ry
     estimated scf accuracy    <       0.00000210 Ry

     iteration # 20     ecut=    50.00 Ry     beta= 0.30
     Davidson diagonalization with overlap
     ethr =  4.43E-09,  avg # of iterations =  5.8

     total cpu time spent up to now is      191.5 secs

     total energy              =    -354.72880677 Ry
     estimated scf accuracy    <       0.00000161 Ry

     iteration # 21     ecut=    50.00 Ry     beta= 0.30
     Davidson diagonalization with overlap
     ethr =  4.43E-09,  avg # of iterations =  2.2

     total cpu time spent up to now is      197.2 secs

     total energy              =    -354.72880660 Ry
     estimated scf accuracy    <       0.00000050 Ry

     iteration # 22     ecut=    50.00 Ry     beta= 0.30
     Davidson diagonalization with overlap
     ethr =  1.40E-09,  avg # of iterations = 10.0

     total cpu time spent up to now is      209.4 secs

     total energy              =    -354.72880691 Ry
     estimated scf accuracy    <       0.00000141 Ry

     iteration # 23     ecut=    50.00 Ry     beta= 0.30
     Davidson diagonalization with overlap
     ethr =  1.40E-09,  avg # of iterations =  2.5

     total cpu time spent up to now is      215.2 secs

     total energy              =    -354.72880678 Ry
     estimated scf accuracy    <       0.00000067 Ry

     iteration # 24     ecut=    50.00 Ry     beta= 0.30
     Davidson diagonalization with overlap
     ethr =  1.40E-09,  avg # of iterations =  5.6

     total cpu time spent up to now is      223.7 secs

     total energy              =    -354.72880696 Ry
     estimated scf accuracy    <       0.00000004 Ry

     iteration # 25     ecut=    50.00 Ry     beta= 0.30
     Davidson diagonalization with overlap
     ethr =  1.09E-10,  avg # of iterations =  7.1

     total cpu time spent up to now is      231.9 secs

     total energy              =    -354.72880697 Ry
     estimated scf accuracy    <       0.00000003 Ry

     iteration # 26     ecut=    50.00 Ry     beta= 0.30
     Davidson diagonalization with overlap
     ethr =  8.49E-11,  avg # of iterations =  1.1

     total cpu time spent up to now is      237.0 secs

     total energy              =    -354.72880697 Ry
     estimated scf accuracy    <       0.00000003 Ry

     iteration # 27     ecut=    50.00 Ry     beta= 0.30
     Davidson diagonalization with overlap
     ethr =  7.22E-11,  avg # of iterations =  2.1

     total cpu time spent up to now is      242.7 secs

     total energy              =    -354.72880697 Ry
     estimated scf accuracy    <       0.00000001 Ry

     iteration # 28     ecut=    50.00 Ry     beta= 0.30
     Davidson diagonalization with overlap
     ethr =  3.19E-11,  avg # of iterations =  4.2

     total cpu time spent up to now is      249.0 secs

     End of self-consistent calculation

     Number of k-points >= 100: set verbosity='high' to print the bands.

     highest occupied level (ev):     8.4253

!    total energy              =    -354.72880696 Ry
     estimated scf accuracy    <          5.1E-09 Ry

     The total energy is the sum of the following terms:
     one-electron contribution =    -236.18544097 Ry
     hartree contribution      =     153.63525587 Ry
     xc contribution           =    -110.92037514 Ry
     ewald contribution        =    -161.25824672 Ry

     convergence has been achieved in  28 iterations

     Forces acting on atoms (cartesian axes, Ry/au):

     atom    1 type  1   force =    -0.00736734   -0.00543085   -0.02639723
     atom    2 type  1   force =    -8.67264081    1.18362561  -15.04686754
     atom    3 type  2   force =     0.32787547   -0.22642241   -0.31700440
     atom    4 type  2   force =     8.35213268   -0.95177235   15.39026917
     The non-local contrib.  to forces
     atom    1 type  1   force =     0.08846035    0.04504902    0.10485758
     atom    2 type  1   force =     2.51413839   -0.46383340    3.93933060
     atom    3 type  2   force =    -0.74448165    0.47653196    0.59399376
     atom    4 type  2   force =    -0.83794152    0.15328194   -1.22571398
     The ionic contribution  to forces
     atom    1 type  1   force =     0.46533685   -0.94516679  -11.11907807
     atom    2 type  1   force =   -31.86310124    7.67107744  -34.54749469
     atom    3 type  2   force =     6.94402416   -4.84331147   -8.32633252
     atom    4 type  2   force =    24.45374023   -1.88259918   53.99290529
     The local contribution  to forces
     atom    1 type  1   force =    -0.55725939    0.89450353   10.98500227
     atom    2 type  1   force =    20.29464061   -5.96349382   14.93685158
     atom    3 type  2   force =    -5.87634135    4.14320405    7.41913297
     atom    4 type  2   force =   -15.25240806    0.77739363  -37.35042046
     The core correction contribution to forces
     atom    1 type  1   force =    -0.00389447    0.00017069    0.00264609
     atom    2 type  1   force =     0.38167721   -0.06009414    0.62470352
     atom    3 type  2   force =     0.00465746   -0.00283815   -0.00379332
     atom    4 type  2   force =    -0.01128241    0.00016957   -0.02640422
     The Hubbard contrib.    to forces
     atom    1 type  1   force =     0.00000000    0.00000000    0.00000000
     atom    2 type  1   force =     0.00000000    0.00000000    0.00000000
     atom    3 type  2   force =     0.00000000    0.00000000    0.00000000
     atom    4 type  2   force =     0.00000000    0.00000000    0.00000000
     The SCF correction term to forces
     atom    1 type  1   force =    -0.00001399    0.00001376    0.00017026
     atom    2 type  1   force =     0.00000092   -0.00002940   -0.00026320
     atom    3 type  2   force =     0.00001354   -0.00000773   -0.00000994
     atom    4 type  2   force =     0.00002114   -0.00001724   -0.00010210

     Total force =    24.714536     Total SCF correction =     0.000333

     Writing all to output data dir ./ZnO_ANN.save/

     init_run     :      3.79s CPU      3.88s WALL (       1 calls)
     electrons    :    240.61s CPU    244.63s WALL (       1 calls)
     forces       :      1.27s CPU      1.28s WALL (       1 calls)

     Called by init_run:
     wfcinit      :      2.78s CPU      2.84s WALL (       1 calls)
     potinit      :      0.37s CPU      0.38s WALL (       1 calls)
     hinit0       :      0.55s CPU      0.56s WALL (       1 calls)

     Called by electrons:
     c_bands      :    215.97s CPU    219.45s WALL (      28 calls)
     sum_band     :     22.15s CPU     22.62s WALL (      28 calls)
     v_of_rho     :      0.56s CPU      0.60s WALL (      29 calls)
     newd         :      1.86s CPU      1.89s WALL (      29 calls)
     mix_rho      :      0.09s CPU      0.10s WALL (      28 calls)

     Called by c_bands:
     init_us_2    :      1.64s CPU      1.67s WALL (    6496 calls)
     init_us_2:cp :      1.62s CPU      1.65s WALL (    6496 calls)
     cegterg      :    210.83s CPU    214.23s WALL (    3136 calls)

     Called by *egterg:
     cdiaghg      :     22.95s CPU     23.13s WALL (   20415 calls)
     h_psi        :    122.39s CPU    124.93s WALL (   20527 calls)
     s_psi        :     15.28s CPU     15.39s WALL (   20527 calls)
     g_psi        :      0.43s CPU      0.43s WALL (   17279 calls)

     Called by h_psi:
     h_psi:calbec :     16.96s CPU     17.42s WALL (   20527 calls)
     vloc_psi     :     89.74s CPU     91.68s WALL (   20527 calls)
     add_vuspsi   :     15.30s CPU     15.43s WALL (   20527 calls)

     General routines
     calbec       :     22.53s CPU     23.12s WALL (   24111 calls)
     fft          :      0.65s CPU      0.70s WALL (     386 calls)
     ffts         :      0.16s CPU      0.16s WALL (      57 calls)
     fftw         :     89.93s CPU     91.89s WALL (  433956 calls)
     interpolate  :      0.18s CPU      0.18s WALL (      29 calls)

     Parallel routines

     PWSCF        :   4m 6.39s CPU   4m10.75s WALL


   This run was terminated on:  18:47:13  24Jun2025            

=------------------------------------------------------------------------------=
   JOB DONE.
=------------------------------------------------------------------------------=
Note: The following floating-point exceptions are signalling: IEEE_INVALID_FLAG
