
     Program PWSCF v.7.2 starts on 24Jun2025 at 14:42:22 

     This program is part of the open-source Quantum ESPRESSO suite
     for quantum simulation of materials; please cite
         "P. Giannozzi et al., J. Phys.:Condens. Matter 21 395502 (2009);
         "P. Giannozzi et al., J. Phys.:Condens. Matter 29 465901 (2017);
         "P. Giannozzi et al., J. Chem. Phys. 152 154105 (2020);
          URL http://www.quantum-espresso.org", 
     in publications or presentations arising from this work. More details at
     http://www.quantum-espresso.org/quote

     Parallel version (MPI), running on     8 processors

     MPI processes distributed on     1 nodes
     91292 MiB available memory on the printing compute node when the environment starts

     Reading input from /home/jvc/QEspresso7.2/ZnO_DataBase/scf_025_NOSYM.in/scf-5.56-1.74-0.25-1.in

     Current dimensions of program PWSCF are:
     Max number of different atomic species (ntypx) = 10
     Max number of k-points (npk) =  40000
     Max angular momentum in pseudopotentials (lmaxx) =  4
     file Zn.upf: wavefunction(s)  3D renormalized

     R & G space division:  proc/nbgrp/npool/nimage =       8
     Subspace diagonalization in iterative solution of the eigenvalue problem:
     a serial algorithm will be used


     Parallelization info
     --------------------
     sticks:   dense  smooth     PW     G-vecs:    dense   smooth      PW
     Min         105      53     15                 4025     1425     243
     Max         106      55     16                 4034     1428     250
     Sum         847     433    127                32259    11417    1961

     Using Slab Decomposition



     bravais-lattice index     =            0
     lattice parameter (alat)  =       5.5609  a.u.
     unit-cell volume          =     238.2841 (a.u.)^3
     number of atoms/cell      =            4
     number of atomic types    =            2
     number of electrons       =        36.00
     number of Kohn-Sham states=           18
     kinetic-energy cutoff     =      50.0000  Ry
     charge density cutoff     =     400.0000  Ry
     scf convergence threshold =      1.0E-08
     mixing beta               =       0.3000
     number of iterations used =            8  plain     mixing
     Exchange-correlation= PBE
                           (   1   4   3   4   0   0   0)

     celldm(1)=   5.560939  celldm(2)=   0.000000  celldm(3)=   0.000000
     celldm(4)=   0.000000  celldm(5)=   0.000000  celldm(6)=   0.000000

     crystal axes: (cart. coord. in units of alat)
               a(1) = (   1.000000   0.000000   0.000000 )  
               a(2) = (  -0.500000   0.866025   0.000000 )  
               a(3) = (   0.000000   0.000000   1.600000 )  

     reciprocal axes: (cart. coord. in units 2 pi/alat)
               b(1) = (  1.000000  0.577350 -0.000000 )  
               b(2) = (  0.000000  1.154701  0.000000 )  
               b(3) = (  0.000000 -0.000000  0.625000 )  


     PseudoPot. # 1 for Zn read from file:
     ./pseudos/Zn.upf
     MD5 check sum: 7f56cabf9682ed8c977c2f7d0c5985c5
     Pseudo is Ultrasoft + core correction, Zval = 12.0
     Generated using &quot;atomic&quot; code by A. Dal Corso  v.6.2.2
     Using radial grid of 1201 points,  6 beta functions with: 
                l(1) =   0
                l(2) =   0
                l(3) =   1
                l(4) =   1
                l(5) =   2
                l(6) =   2
     Q(r) pseudized with 0 coefficients 


     PseudoPot. # 2 for O  read from file:
     ./pseudos/O.upf
     MD5 check sum: 91400c9766925bcf19f520983a725ff0
     Pseudo is Ultrasoft + core correction, Zval =  6.0
     Generated using &quot;atomic&quot; code by A. Dal Corso  v.6.3MaX
     Using radial grid of 1095 points,  4 beta functions with: 
                l(1) =   0
                l(2) =   0
                l(3) =   1
                l(4) =   1
     Q(r) pseudized with 0 coefficients 


     atomic species   valence    mass     pseudopotential
        Zn            12.00    63.38000     Zn( 1.00)
        O              6.00    15.99900     O ( 1.00)

     No symmetry found



   Cartesian axes

     site n.     atom                  positions (alat units)
         1           Zn  tau(   1) = (   0.4719316   0.1616115   0.6702083  )
         2           Zn  tau(   2) = (  -0.0442178   0.7193173  -0.3813877  )
         3           O   tau(   3) = (   0.5578854   0.3451310   1.4986831  )
         4           O   tau(   4) = (   0.1593796   0.4256452   0.7619686  )

     number of k points=   112

     Number of k-points >= 100: set verbosity='high' to print them.

     Dense  grid:    32259 G-vectors     FFT dimensions: (  36,  36,  60)

     Smooth grid:    11417 G-vectors     FFT dimensions: (  25,  25,  45)

     Estimated max dynamical RAM per process >      23.07 MB

     Estimated total dynamical RAM >     184.57 MB

     Check: negative core charge=   -0.000002

     Initial potential from superposition of free atoms

     starting charge      35.9925, renormalised to      36.0000
     Starting wfcs are   26 randomized atomic wfcs

     total cpu time spent up to now is        3.2 secs

     Self-consistent Calculation

     iteration #  1     ecut=    50.00 Ry     beta= 0.30
     Davidson diagonalization with overlap
     ethr =  1.00E-02,  avg # of iterations =  2.6

     total cpu time spent up to now is        7.3 secs

     total energy              =    -360.16605136 Ry
     estimated scf accuracy    <       1.01509959 Ry

     iteration #  2     ecut=    50.00 Ry     beta= 0.30
     Davidson diagonalization with overlap
     ethr =  2.82E-03,  avg # of iterations =  2.0

     total cpu time spent up to now is       11.7 secs

     total energy              =    -360.17348270 Ry
     estimated scf accuracy    <       0.23486180 Ry

     iteration #  3     ecut=    50.00 Ry     beta= 0.30
     Davidson diagonalization with overlap
     ethr =  6.52E-04,  avg # of iterations =  6.3

     total cpu time spent up to now is       20.0 secs

     total energy              =    -360.33349379 Ry
     estimated scf accuracy    <       0.20976734 Ry

     iteration #  4     ecut=    50.00 Ry     beta= 0.30
     Davidson diagonalization with overlap
     ethr =  5.83E-04,  avg # of iterations =  2.0

     total cpu time spent up to now is       24.1 secs

     total energy              =    -360.31743512 Ry
     estimated scf accuracy    <       0.04555740 Ry

     iteration #  5     ecut=    50.00 Ry     beta= 0.30
     Davidson diagonalization with overlap
     ethr =  1.27E-04,  avg # of iterations =  8.0

     total cpu time spent up to now is       35.5 secs

     total energy              =    -360.30373615 Ry
     estimated scf accuracy    <       0.37350940 Ry

     iteration #  6     ecut=    50.00 Ry     beta= 0.30
     Davidson diagonalization with overlap
     ethr =  1.27E-04,  avg # of iterations =  6.7

     total cpu time spent up to now is       44.5 secs

     total energy              =    -360.36270252 Ry
     estimated scf accuracy    <       0.00466076 Ry

     iteration #  7     ecut=    50.00 Ry     beta= 0.30
     Davidson diagonalization with overlap
     ethr =  1.29E-05,  avg # of iterations =  4.9

     total cpu time spent up to now is       50.4 secs

     total energy              =    -360.36442632 Ry
     estimated scf accuracy    <       0.00046468 Ry

     iteration #  8     ecut=    50.00 Ry     beta= 0.30
     Davidson diagonalization with overlap
     ethr =  1.29E-06,  avg # of iterations =  8.1

     total cpu time spent up to now is       61.5 secs

     total energy              =    -360.36434180 Ry
     estimated scf accuracy    <       0.00282510 Ry

     iteration #  9     ecut=    50.00 Ry     beta= 0.30
     Davidson diagonalization with overlap
     ethr =  1.29E-06,  avg # of iterations =  6.4

     total cpu time spent up to now is       70.3 secs

     total energy              =    -360.36488751 Ry
     estimated scf accuracy    <       0.00000708 Ry

     iteration # 10     ecut=    50.00 Ry     beta= 0.30
     Davidson diagonalization with overlap
     ethr =  1.97E-08,  avg # of iterations =  9.6

     total cpu time spent up to now is       82.7 secs

     total energy              =    -360.36491272 Ry
     estimated scf accuracy    <       0.00005037 Ry

     iteration # 11     ecut=    50.00 Ry     beta= 0.30
     Davidson diagonalization with overlap
     ethr =  1.97E-08,  avg # of iterations =  1.5

     total cpu time spent up to now is       86.3 secs

     total energy              =    -360.36489040 Ry
     estimated scf accuracy    <       0.00003806 Ry

     iteration # 12     ecut=    50.00 Ry     beta= 0.30
     Davidson diagonalization with overlap
     ethr =  1.97E-08,  avg # of iterations =  7.5

     total cpu time spent up to now is       96.5 secs

     total energy              =    -360.36490412 Ry
     estimated scf accuracy    <       0.00000654 Ry

     iteration # 13     ecut=    50.00 Ry     beta= 0.30
     Davidson diagonalization with overlap
     ethr =  1.82E-08,  avg # of iterations =  1.2

     total cpu time spent up to now is       99.8 secs

     total energy              =    -360.36490283 Ry
     estimated scf accuracy    <       0.00000307 Ry

     iteration # 14     ecut=    50.00 Ry     beta= 0.30
     Davidson diagonalization with overlap
     ethr =  8.52E-09,  avg # of iterations =  4.5

     total cpu time spent up to now is      105.2 secs

     total energy              =    -360.36490395 Ry
     estimated scf accuracy    <       0.00000017 Ry

     iteration # 15     ecut=    50.00 Ry     beta= 0.30
     Davidson diagonalization with overlap
     ethr =  4.73E-10,  avg # of iterations =  5.0

     total cpu time spent up to now is      111.1 secs

     total energy              =    -360.36490403 Ry
     estimated scf accuracy    <       0.00000002 Ry

     iteration # 16     ecut=    50.00 Ry     beta= 0.30
     Davidson diagonalization with overlap
     ethr =  4.55E-11,  avg # of iterations =  6.5

     total cpu time spent up to now is      117.9 secs

     total energy              =    -360.36490404 Ry
     estimated scf accuracy    <       0.00000001 Ry

     iteration # 17     ecut=    50.00 Ry     beta= 0.30
     Davidson diagonalization with overlap
     ethr =  3.81E-11,  avg # of iterations =  6.2

     total cpu time spent up to now is      124.5 secs

     total energy              =    -360.36490404 Ry
     estimated scf accuracy    <       0.00000002 Ry

     iteration # 18     ecut=    50.00 Ry     beta= 0.30
     Davidson diagonalization with overlap
     ethr =  3.81E-11,  avg # of iterations =  2.1

     total cpu time spent up to now is      128.3 secs

     End of self-consistent calculation

     Number of k-points >= 100: set verbosity='high' to print the bands.

     highest occupied level (ev):    12.9145

!    total energy              =    -360.36490404 Ry
     estimated scf accuracy    <          7.0E-09 Ry

     The total energy is the sum of the following terms:
     one-electron contribution =    -156.88106975 Ry
     hartree contribution      =     124.15114872 Ry
     xc contribution           =    -110.67242743 Ry
     ewald contribution        =    -216.96255559 Ry

     convergence has been achieved in  18 iterations

     Forces acting on atoms (cartesian axes, Ry/au):

     atom    1 type  1   force =     1.75445791   -1.30060676   -0.95422678
     atom    2 type  1   force =    -0.03063744   -0.20872132    0.49747468
     atom    3 type  2   force =    -0.01294003    0.09741805    0.16043191
     atom    4 type  2   force =    -1.71088045    1.41191003    0.29632018
     The non-local contrib.  to forces
     atom    1 type  1   force =     0.70384247   -0.70595062    0.03005161
     atom    2 type  1   force =    -0.03066396    0.07432615   -0.83221989
     atom    3 type  2   force =     0.20488829   -0.29022293   -0.60851358
     atom    4 type  2   force =     0.05415505    0.27651695    0.05097550
     The ionic contribution  to forces
     atom    1 type  1   force =    11.64414917   -5.26515362  -28.25958526
     atom    2 type  1   force =    -1.11930696   -3.66064564   22.07200786
     atom    3 type  2   force =    -0.42218734    2.51077153   13.16100345
     atom    4 type  2   force =   -10.10265486    6.41502772   -6.97342605
     The local contribution  to forces
     atom    1 type  1   force =   -10.41372391    4.54374647   27.18912416
     atom    2 type  1   force =     1.10963814    3.36825975  -20.73429860
     atom    3 type  2   force =     0.20625307   -2.12518139  -12.39590571
     atom    4 type  2   force =     8.33144274   -5.27197911    7.21977872
     The core correction contribution to forces
     atom    1 type  1   force =    -0.17982351    0.12677362    0.08609056
     atom    2 type  1   force =     0.00968776    0.00934843   -0.00782457
     atom    3 type  2   force =    -0.00189592    0.00205603    0.00389242
     atom    4 type  2   force =     0.00617279   -0.00765525   -0.00103439
     The Hubbard contrib.    to forces
     atom    1 type  1   force =     0.00000000    0.00000000    0.00000000
     atom    2 type  1   force =     0.00000000    0.00000000    0.00000000
     atom    3 type  2   force =     0.00000000    0.00000000    0.00000000
     atom    4 type  2   force =     0.00000000    0.00000000    0.00000000
     The SCF correction term to forces
     atom    1 type  1   force =     0.00001304   -0.00002242    0.00008732
     atom    2 type  1   force =     0.00000693   -0.00000983   -0.00019496
     atom    3 type  2   force =     0.00000122   -0.00000502   -0.00004950
     atom    4 type  2   force =     0.00000317   -0.00000009    0.00002157

     Total force =     3.319042     Total SCF correction =     0.000222

     Writing all to output data dir ./ZnO_ANN.save/

     init_run     :      2.65s CPU      2.73s WALL (       1 calls)
     electrons    :    122.25s CPU    125.13s WALL (       1 calls)
     forces       :      0.83s CPU      0.84s WALL (       1 calls)

     Called by init_run:
     wfcinit      :      1.87s CPU      1.91s WALL (       1 calls)
     potinit      :      0.20s CPU      0.20s WALL (       1 calls)
     hinit0       :      0.53s CPU      0.54s WALL (       1 calls)

     Called by electrons:
     c_bands      :    112.09s CPU    114.67s WALL (      18 calls)
     sum_band     :      9.19s CPU      9.46s WALL (      18 calls)
     v_of_rho     :      0.20s CPU      0.22s WALL (      19 calls)
     newd         :      0.76s CPU      0.78s WALL (      19 calls)
     mix_rho      :      0.03s CPU      0.04s WALL (      18 calls)

     Called by c_bands:
     init_us_2    :      0.69s CPU      0.70s WALL (    4256 calls)
     init_us_2:cp :      0.68s CPU      0.69s WALL (    4256 calls)
     cegterg      :    109.90s CPU    112.44s WALL (    2016 calls)

     Called by *egterg:
     cdiaghg      :     14.13s CPU     14.25s WALL (   12233 calls)
     h_psi        :     60.47s CPU     62.39s WALL (   12345 calls)
     s_psi        :      7.71s CPU      7.79s WALL (   12345 calls)
     g_psi        :      0.24s CPU      0.24s WALL (   10217 calls)

     Called by h_psi:
     h_psi:calbec :      8.68s CPU      9.04s WALL (   12345 calls)
     vloc_psi     :     43.87s CPU     45.32s WALL (   12345 calls)
     add_vuspsi   :      7.71s CPU      7.82s WALL (   12345 calls)

     General routines
     calbec       :     11.21s CPU     11.66s WALL (   14809 calls)
     fft          :      0.41s CPU      0.44s WALL (     256 calls)
     ffts         :      0.05s CPU      0.05s WALL (      37 calls)
     fftw         :     43.30s CPU     44.70s WALL (  330266 calls)
     interpolate  :      0.06s CPU      0.06s WALL (      19 calls)

     Parallel routines

     PWSCF        :   2m 6.41s CPU   2m 9.50s WALL


   This run was terminated on:  14:44:31  24Jun2025            

=------------------------------------------------------------------------------=
   JOB DONE.
=------------------------------------------------------------------------------=
Note: The following floating-point exceptions are signalling: IEEE_INVALID_FLAG
