
     Program PWSCF v.7.2 starts on 24Jun2025 at 21: 3:21 

     This program is part of the open-source Quantum ESPRESSO suite
     for quantum simulation of materials; please cite
         "P. Giannozzi et al., J. Phys.:Condens. Matter 21 395502 (2009);
         "P. Giannozzi et al., J. Phys.:Condens. Matter 29 465901 (2017);
         "P. Giannozzi et al., J. Chem. Phys. 152 154105 (2020);
          URL http://www.quantum-espresso.org", 
     in publications or presentations arising from this work. More details at
     http://www.quantum-espresso.org/quote

     Parallel version (MPI), running on     8 processors

     MPI processes distributed on     1 nodes
     90558 MiB available memory on the printing compute node when the environment starts

     Reading input from /home/jvc/QEspresso7.2/ZnO_DataBase/scf_025_NOSYM.in/scf-6.80-1.65-0.25-5.in

     Current dimensions of program PWSCF are:
     Max number of different atomic species (ntypx) = 10
     Max number of k-points (npk) =  40000
     Max angular momentum in pseudopotentials (lmaxx) =  4
     file Zn.upf: wavefunction(s)  3D renormalized

     R & G space division:  proc/nbgrp/npool/nimage =       8
     Subspace diagonalization in iterative solution of the eigenvalue problem:
     a serial algorithm will be used


     Parallelization info
     --------------------
     sticks:   dense  smooth     PW     G-vecs:    dense   smooth      PW
     Min         160      81     24                 7354     2595     429
     Max         162      82     26                 7355     2598     432
     Sum        1285     649    199                58833    20773    3441

     Using Slab Decomposition



     bravais-lattice index     =            0
     lattice parameter (alat)  =       6.7967  a.u.
     unit-cell volume          =     435.0564 (a.u.)^3
     number of atoms/cell      =            4
     number of atomic types    =            2
     number of electrons       =        36.00
     number of Kohn-Sham states=           18
     kinetic-energy cutoff     =      50.0000  Ry
     charge density cutoff     =     400.0000  Ry
     scf convergence threshold =      1.0E-08
     mixing beta               =       0.3000
     number of iterations used =            8  plain     mixing
     Exchange-correlation= PBE
                           (   1   4   3   4   0   0   0)

     celldm(1)=   6.796704  celldm(2)=   0.000000  celldm(3)=   0.000000
     celldm(4)=   0.000000  celldm(5)=   0.000000  celldm(6)=   0.000000

     crystal axes: (cart. coord. in units of alat)
               a(1) = (   1.000000   0.000000   0.000000 )  
               a(2) = (  -0.500000   0.866025   0.000000 )  
               a(3) = (   0.000000   0.000000   1.600000 )  

     reciprocal axes: (cart. coord. in units 2 pi/alat)
               b(1) = (  1.000000  0.577350 -0.000000 )  
               b(2) = (  0.000000  1.154701  0.000000 )  
               b(3) = (  0.000000 -0.000000  0.625000 )  


     PseudoPot. # 1 for Zn read from file:
     ./pseudos/Zn.upf
     MD5 check sum: 7f56cabf9682ed8c977c2f7d0c5985c5
     Pseudo is Ultrasoft + core correction, Zval = 12.0
     Generated using &quot;atomic&quot; code by A. Dal Corso  v.6.2.2
     Using radial grid of 1201 points,  6 beta functions with: 
                l(1) =   0
                l(2) =   0
                l(3) =   1
                l(4) =   1
                l(5) =   2
                l(6) =   2
     Q(r) pseudized with 0 coefficients 


     PseudoPot. # 2 for O  read from file:
     ./pseudos/O.upf
     MD5 check sum: 91400c9766925bcf19f520983a725ff0
     Pseudo is Ultrasoft + core correction, Zval =  6.0
     Generated using &quot;atomic&quot; code by A. Dal Corso  v.6.3MaX
     Using radial grid of 1095 points,  4 beta functions with: 
                l(1) =   0
                l(2) =   0
                l(3) =   1
                l(4) =   1
     Q(r) pseudized with 0 coefficients 


     atomic species   valence    mass     pseudopotential
        Zn            12.00    63.38000     Zn( 1.00)
        O              6.00    15.99900     O ( 1.00)

     No symmetry found



   Cartesian axes

     site n.     atom                  positions (alat units)
         1           Zn  tau(   1) = (   0.5517024   0.3060392   0.8336705  )
         2           Zn  tau(   2) = (   0.1299073   0.6668566  -0.3313924  )
         3           O   tau(   3) = (   0.4396560   0.5010612   1.4122893  )
         4           O   tau(   4) = (   0.0185809   0.7209336   0.8620003  )

     number of k points=   112

     Number of k-points >= 100: set verbosity='high' to print them.

     Dense  grid:    58833 G-vectors     FFT dimensions: (  45,  45,  72)

     Smooth grid:    20773 G-vectors     FFT dimensions: (  32,  32,  50)

     Estimated max dynamical RAM per process >      39.41 MB

     Estimated total dynamical RAM >     315.24 MB

     Check: negative core charge=   -0.000002

     Initial potential from superposition of free atoms

     starting charge      35.9925, renormalised to      36.0000
     Starting wfcs are   26 randomized atomic wfcs

     total cpu time spent up to now is        4.6 secs

     Self-consistent Calculation

     iteration #  1     ecut=    50.00 Ry     beta= 0.30
     Davidson diagonalization with overlap
     ethr =  1.00E-02,  avg # of iterations =  2.2

     total cpu time spent up to now is       11.3 secs

     total energy              =    -360.57611138 Ry
     estimated scf accuracy    <       1.35253602 Ry

     iteration #  2     ecut=    50.00 Ry     beta= 0.30
     Davidson diagonalization with overlap
     ethr =  3.76E-03,  avg # of iterations =  2.2

     total cpu time spent up to now is       18.0 secs

     total energy              =    -360.60090721 Ry
     estimated scf accuracy    <       0.26538623 Ry

     iteration #  3     ecut=    50.00 Ry     beta= 0.30
     Davidson diagonalization with overlap
     ethr =  7.37E-04,  avg # of iterations =  9.6

     total cpu time spent up to now is       32.7 secs

     total energy              =    -360.76130309 Ry
     estimated scf accuracy    <       0.70710592 Ry

     iteration #  4     ecut=    50.00 Ry     beta= 0.30
     Davidson diagonalization with overlap
     ethr =  7.37E-04,  avg # of iterations =  5.9

     total cpu time spent up to now is       41.5 secs

     total energy              =    -360.85067961 Ry
     estimated scf accuracy    <       0.03140372 Ry

     iteration #  5     ecut=    50.00 Ry     beta= 0.30
     Davidson diagonalization with overlap
     ethr =  8.72E-05,  avg # of iterations =  7.2

     total cpu time spent up to now is       53.8 secs

     total energy              =    -360.91130496 Ry
     estimated scf accuracy    <       0.03192925 Ry

     iteration #  6     ecut=    50.00 Ry     beta= 0.30
     Davidson diagonalization with overlap
     ethr =  8.72E-05,  avg # of iterations =  7.3

     total cpu time spent up to now is       66.6 secs

     total energy              =    -360.81878651 Ry
     estimated scf accuracy    <       0.26998038 Ry

     iteration #  7     ecut=    50.00 Ry     beta= 0.30
     Davidson diagonalization with overlap
     ethr =  8.72E-05,  avg # of iterations =  7.9

     total cpu time spent up to now is       81.0 secs

     total energy              =    -360.86959204 Ry
     estimated scf accuracy    <       0.00370867 Ry

     iteration #  8     ecut=    50.00 Ry     beta= 0.30
     Davidson diagonalization with overlap
     ethr =  1.03E-05,  avg # of iterations =  4.1

     total cpu time spent up to now is       88.0 secs

     total energy              =    -360.86974965 Ry
     estimated scf accuracy    <       0.00154314 Ry

     iteration #  9     ecut=    50.00 Ry     beta= 0.30
     Davidson diagonalization with overlap
     ethr =  4.29E-06,  avg # of iterations =  6.5

     total cpu time spent up to now is       96.2 secs

     total energy              =    -360.87024688 Ry
     estimated scf accuracy    <       0.00015597 Ry

     iteration # 10     ecut=    50.00 Ry     beta= 0.30
     Davidson diagonalization with overlap
     ethr =  4.33E-07,  avg # of iterations =  6.2

     total cpu time spent up to now is      105.2 secs

     total energy              =    -360.87011033 Ry
     estimated scf accuracy    <       0.00040065 Ry

     iteration # 11     ecut=    50.00 Ry     beta= 0.30
     Davidson diagonalization with overlap
     ethr =  4.33E-07,  avg # of iterations =  9.0

     total cpu time spent up to now is      117.1 secs

     total energy              =    -360.87023055 Ry
     estimated scf accuracy    <       0.00014502 Ry

     iteration # 12     ecut=    50.00 Ry     beta= 0.30
     Davidson diagonalization with overlap
     ethr =  4.03E-07,  avg # of iterations =  2.0

     total cpu time spent up to now is      123.3 secs

     total energy              =    -360.87022256 Ry
     estimated scf accuracy    <       0.00009368 Ry

     iteration # 13     ecut=    50.00 Ry     beta= 0.30
     Davidson diagonalization with overlap
     ethr =  2.60E-07,  avg # of iterations =  2.6

     total cpu time spent up to now is      129.5 secs

     total energy              =    -360.87021981 Ry
     estimated scf accuracy    <       0.00004257 Ry

     iteration # 14     ecut=    50.00 Ry     beta= 0.30
     Davidson diagonalization with overlap
     ethr =  1.18E-07,  avg # of iterations =  5.6

     total cpu time spent up to now is      137.1 secs

     total energy              =    -360.87022837 Ry
     estimated scf accuracy    <       0.00000642 Ry

     iteration # 15     ecut=    50.00 Ry     beta= 0.30
     Davidson diagonalization with overlap
     ethr =  1.78E-08,  avg # of iterations =  5.7

     total cpu time spent up to now is      145.6 secs

     total energy              =    -360.87022959 Ry
     estimated scf accuracy    <       0.00000222 Ry

     iteration # 16     ecut=    50.00 Ry     beta= 0.30
     Davidson diagonalization with overlap
     ethr =  6.17E-09,  avg # of iterations =  4.8

     total cpu time spent up to now is      155.0 secs

     total energy              =    -360.87023055 Ry
     estimated scf accuracy    <       0.00000030 Ry

     iteration # 17     ecut=    50.00 Ry     beta= 0.30
     Davidson diagonalization with overlap
     ethr =  8.42E-10,  avg # of iterations =  7.3

     total cpu time spent up to now is      165.4 secs

     total energy              =    -360.87023046 Ry
     estimated scf accuracy    <       0.00000076 Ry

     iteration # 18     ecut=    50.00 Ry     beta= 0.30
     Davidson diagonalization with overlap
     ethr =  8.42E-10,  avg # of iterations =  4.5

     total cpu time spent up to now is      174.8 secs

     total energy              =    -360.87023050 Ry
     estimated scf accuracy    <       0.00000020 Ry

     iteration # 19     ecut=    50.00 Ry     beta= 0.30
     Davidson diagonalization with overlap
     ethr =  5.59E-10,  avg # of iterations =  7.2

     total cpu time spent up to now is      184.0 secs

     total energy              =    -360.87023052 Ry
     estimated scf accuracy    <       0.00000018 Ry

     iteration # 20     ecut=    50.00 Ry     beta= 0.30
     Davidson diagonalization with overlap
     ethr =  5.04E-10,  avg # of iterations =  2.6

     total cpu time spent up to now is      190.6 secs

     total energy              =    -360.87023053 Ry
     estimated scf accuracy    <       0.00000003 Ry

     iteration # 21     ecut=    50.00 Ry     beta= 0.30
     Davidson diagonalization with overlap
     ethr =  8.19E-11,  avg # of iterations =  6.9

     total cpu time spent up to now is      203.4 secs

     total energy              =    -360.87023055 Ry
     estimated scf accuracy    <       0.00000003 Ry

     iteration # 22     ecut=    50.00 Ry     beta= 0.30
     Davidson diagonalization with overlap
     ethr =  7.40E-11,  avg # of iterations =  2.4

     total cpu time spent up to now is      209.8 secs

     End of self-consistent calculation

     Number of k-points >= 100: set verbosity='high' to print the bands.

     highest occupied level (ev):     4.5134

!    total energy              =    -360.87023055 Ry
     estimated scf accuracy    <          7.0E-09 Ry

     The total energy is the sum of the following terms:
     one-electron contribution =    -296.98756779 Ry
     hartree contribution      =     184.21767391 Ry
     xc contribution           =    -109.89984774 Ry
     ewald contribution        =    -138.20048893 Ry

     convergence has been achieved in  22 iterations

     Forces acting on atoms (cartesian axes, Ry/au):

     atom    1 type  1   force =     0.03244053    0.30431484   -0.04662563
     atom    2 type  1   force =    -0.78650038    0.39892580    0.12389991
     atom    3 type  2   force =     0.97682935   -0.52638261    0.46644099
     atom    4 type  2   force =    -0.22276950   -0.17685803   -0.54371527
     The non-local contrib.  to forces
     atom    1 type  1   force =     0.06456936    0.72150049   -0.24453473
     atom    2 type  1   force =    -0.79052017    0.46120401    0.07171152
     atom    3 type  2   force =    -0.77420528    0.34696244   -0.76181642
     atom    4 type  2   force =    -0.11324129    0.62555144    0.51806343
     The ionic contribution  to forces
     atom    1 type  1   force =     1.28133479    6.99377974  -24.71321798
     atom    2 type  1   force =    -9.73148626    4.05193110   23.64282005
     atom    3 type  2   force =    12.02222763   -5.75518023   20.01272353
     atom    4 type  2   force =    -3.57207615   -5.29053062  -18.94232560
     The local contribution  to forces
     atom    1 type  1   force =    -1.30888587   -7.34160997   24.88416792
     atom    2 type  1   force =     9.60567189   -4.04450546  -23.53971493
     atom    3 type  2   force =   -10.27316055    4.88229805  -18.78850403
     atom    4 type  2   force =     3.45988758    4.49252992   17.88149645
     The core correction contribution to forces
     atom    1 type  1   force =    -0.00456891   -0.06928630    0.02690546
     atom    2 type  1   force =     0.12976641   -0.06966835   -0.05087466
     atom    3 type  2   force =     0.00198048   -0.00048047    0.00404139
     atom    4 type  2   force =     0.00267041   -0.00441161   -0.00095085
     The Hubbard contrib.    to forces
     atom    1 type  1   force =     0.00000000    0.00000000    0.00000000
     atom    2 type  1   force =     0.00000000    0.00000000    0.00000000
     atom    3 type  2   force =     0.00000000    0.00000000    0.00000000
     atom    4 type  2   force =     0.00000000    0.00000000    0.00000000
     The SCF correction term to forces
     atom    1 type  1   force =    -0.00000040   -0.00008292    0.00006970
     atom    2 type  1   force =     0.00007621   -0.00004930   -0.00002608
     atom    3 type  2   force =    -0.00000447    0.00000378    0.00001252
     atom    4 type  2   force =    -0.00000160   -0.00001098    0.00001729

     Total force =     1.647508     Total SCF correction =     0.000146

     Writing all to output data dir ./ZnO_ANN.save/

     init_run     :      4.06s CPU      4.16s WALL (       1 calls)
     electrons    :    201.83s CPU    205.22s WALL (       1 calls)
     forces       :      1.47s CPU      1.49s WALL (       1 calls)

     Called by init_run:
     wfcinit      :      2.96s CPU      3.02s WALL (       1 calls)
     potinit      :      0.39s CPU      0.39s WALL (       1 calls)
     hinit0       :      0.61s CPU      0.63s WALL (       1 calls)

     Called by electrons:
     c_bands      :    181.23s CPU    184.14s WALL (      22 calls)
     sum_band     :     18.42s CPU     18.84s WALL (      22 calls)
     v_of_rho     :      0.47s CPU      0.49s WALL (      23 calls)
     newd         :      1.69s CPU      1.72s WALL (      23 calls)
     mix_rho      :      0.07s CPU      0.08s WALL (      22 calls)

     Called by c_bands:
     init_us_2    :      1.52s CPU      1.55s WALL (    5152 calls)
     init_us_2:cp :      1.51s CPU      1.53s WALL (    5152 calls)
     cegterg      :    176.33s CPU    179.19s WALL (    2464 calls)

     Called by *egterg:
     cdiaghg      :     17.39s CPU     17.53s WALL (   15864 calls)
     h_psi        :     98.94s CPU    101.10s WALL (   15976 calls)
     s_psi        :     13.32s CPU     13.42s WALL (   15976 calls)
     g_psi        :      0.39s CPU      0.39s WALL (   13400 calls)

     Called by h_psi:
     h_psi:calbec :     15.39s CPU     15.84s WALL (   15976 calls)
     vloc_psi     :     69.84s CPU     71.46s WALL (   15976 calls)
     add_vuspsi   :     13.35s CPU     13.46s WALL (   15976 calls)

     General routines
     calbec       :     20.62s CPU     21.18s WALL (   18888 calls)
     fft          :      0.59s CPU      0.63s WALL (     308 calls)
     ffts         :      0.13s CPU      0.13s WALL (      45 calls)
     fftw         :     68.92s CPU     70.53s WALL (  342028 calls)
     interpolate  :      0.14s CPU      0.15s WALL (      23 calls)

     Parallel routines

     PWSCF        :   3m28.15s CPU   3m31.97s WALL


   This run was terminated on:  21: 6:53  24Jun2025            

=------------------------------------------------------------------------------=
   JOB DONE.
=------------------------------------------------------------------------------=
Note: The following floating-point exceptions are signalling: IEEE_INVALID_FLAG
