
     Program PWSCF v.7.2 starts on 24Jun2025 at 16: 8:31 

     This program is part of the open-source Quantum ESPRESSO suite
     for quantum simulation of materials; please cite
         "P. Giannozzi et al., J. Phys.:Condens. Matter 21 395502 (2009);
         "P. Giannozzi et al., J. Phys.:Condens. Matter 29 465901 (2017);
         "P. Giannozzi et al., J. Chem. Phys. 152 154105 (2020);
          URL http://www.quantum-espresso.org", 
     in publications or presentations arising from this work. More details at
     http://www.quantum-espresso.org/quote

     Parallel version (MPI), running on     8 processors

     MPI processes distributed on     1 nodes
     91152 MiB available memory on the printing compute node when the environment starts

     Reading input from /home/jvc/QEspresso7.2/ZnO_DataBase/scf_025_NOSYM.in/scf-5.93-1.78-0.25-1.in

     Current dimensions of program PWSCF are:
     Max number of different atomic species (ntypx) = 10
     Max number of k-points (npk) =  40000
     Max angular momentum in pseudopotentials (lmaxx) =  4
     file Zn.upf: wavefunction(s)  3D renormalized

     R & G space division:  proc/nbgrp/npool/nimage =       8
     Subspace diagonalization in iterative solution of the eigenvalue problem:
     a serial algorithm will be used


     Parallelization info
     --------------------
     sticks:   dense  smooth     PW     G-vecs:    dense   smooth      PW
     Min         119      62     18                 4887     1734     288
     Max         120      63     19                 4898     1737     293
     Sum         955     499    151                39127    13885    2333

     Using Slab Decomposition



     bravais-lattice index     =            0
     lattice parameter (alat)  =       5.9317  a.u.
     unit-cell volume          =     289.1886 (a.u.)^3
     number of atoms/cell      =            4
     number of atomic types    =            2
     number of electrons       =        36.00
     number of Kohn-Sham states=           18
     kinetic-energy cutoff     =      50.0000  Ry
     charge density cutoff     =     400.0000  Ry
     scf convergence threshold =      1.0E-08
     mixing beta               =       0.3000
     number of iterations used =            8  plain     mixing
     Exchange-correlation= PBE
                           (   1   4   3   4   0   0   0)

     celldm(1)=   5.931669  celldm(2)=   0.000000  celldm(3)=   0.000000
     celldm(4)=   0.000000  celldm(5)=   0.000000  celldm(6)=   0.000000

     crystal axes: (cart. coord. in units of alat)
               a(1) = (   1.000000   0.000000   0.000000 )  
               a(2) = (  -0.500000   0.866025   0.000000 )  
               a(3) = (   0.000000   0.000000   1.600000 )  

     reciprocal axes: (cart. coord. in units 2 pi/alat)
               b(1) = (  1.000000  0.577350 -0.000000 )  
               b(2) = (  0.000000  1.154701  0.000000 )  
               b(3) = (  0.000000 -0.000000  0.625000 )  


     PseudoPot. # 1 for Zn read from file:
     ./pseudos/Zn.upf
     MD5 check sum: 7f56cabf9682ed8c977c2f7d0c5985c5
     Pseudo is Ultrasoft + core correction, Zval = 12.0
     Generated using &quot;atomic&quot; code by A. Dal Corso  v.6.2.2
     Using radial grid of 1201 points,  6 beta functions with: 
                l(1) =   0
                l(2) =   0
                l(3) =   1
                l(4) =   1
                l(5) =   2
                l(6) =   2
     Q(r) pseudized with 0 coefficients 


     PseudoPot. # 2 for O  read from file:
     ./pseudos/O.upf
     MD5 check sum: 91400c9766925bcf19f520983a725ff0
     Pseudo is Ultrasoft + core correction, Zval =  6.0
     Generated using &quot;atomic&quot; code by A. Dal Corso  v.6.3MaX
     Using radial grid of 1095 points,  4 beta functions with: 
                l(1) =   0
                l(2) =   0
                l(3) =   1
                l(4) =   1
     Q(r) pseudized with 0 coefficients 


     atomic species   valence    mass     pseudopotential
        Zn            12.00    63.38000     Zn( 1.00)
        O              6.00    15.99900     O ( 1.00)

     No symmetry found



   Cartesian axes

     site n.     atom                  positions (alat units)
         1           Zn  tau(   1) = (   0.1934337   0.4195306   0.6310641  )
         2           Zn  tau(   2) = (  -0.0697686   0.4929734  -0.1654790  )
         3           O   tau(   3) = (   0.3726367   0.1737694   1.3058173  )
         4           O   tau(   4) = (  -0.2845882   0.6648109   0.6408461  )

     number of k points=   112

     Number of k-points >= 100: set verbosity='high' to print them.

     Dense  grid:    39127 G-vectors     FFT dimensions: (  40,  40,  64)

     Smooth grid:    13885 G-vectors     FFT dimensions: (  27,  27,  45)

     Estimated max dynamical RAM per process >      27.34 MB

     Estimated total dynamical RAM >     218.72 MB

     Check: negative core charge=   -0.000002

     Initial potential from superposition of free atoms

     starting charge      35.9925, renormalised to      36.0000
     Starting wfcs are   26 randomized atomic wfcs

     total cpu time spent up to now is        3.8 secs

     Self-consistent Calculation

     iteration #  1     ecut=    50.00 Ry     beta= 0.30
     Davidson diagonalization with overlap
     ethr =  1.00E-02,  avg # of iterations =  2.0

     total cpu time spent up to now is        8.7 secs

     total energy              =    -361.28884220 Ry
     estimated scf accuracy    <       0.79882693 Ry

     iteration #  2     ecut=    50.00 Ry     beta= 0.30
     Davidson diagonalization with overlap
     ethr =  2.22E-03,  avg # of iterations =  2.0

     total cpu time spent up to now is       14.7 secs

     total energy              =    -361.38552206 Ry
     estimated scf accuracy    <       0.10913025 Ry

     iteration #  3     ecut=    50.00 Ry     beta= 0.30
     Davidson diagonalization with overlap
     ethr =  3.03E-04,  avg # of iterations =  6.5

     total cpu time spent up to now is       25.0 secs

     total energy              =    -361.43825786 Ry
     estimated scf accuracy    <       0.10080360 Ry

     iteration #  4     ecut=    50.00 Ry     beta= 0.30
     Davidson diagonalization with overlap
     ethr =  2.80E-04,  avg # of iterations =  4.3

     total cpu time spent up to now is       31.6 secs

     total energy              =    -361.47205987 Ry
     estimated scf accuracy    <       0.00705578 Ry

     iteration #  5     ecut=    50.00 Ry     beta= 0.30
     Davidson diagonalization with overlap
     ethr =  1.96E-05,  avg # of iterations =  9.0

     total cpu time spent up to now is       46.7 secs

     total energy              =    -361.44871654 Ry
     estimated scf accuracy    <       0.13140487 Ry

     iteration #  6     ecut=    50.00 Ry     beta= 0.30
     Davidson diagonalization with overlap
     ethr =  1.96E-05,  avg # of iterations =  8.3

     total cpu time spent up to now is       60.7 secs

     total energy              =    -361.46635578 Ry
     estimated scf accuracy    <       0.00203466 Ry

     iteration #  7     ecut=    50.00 Ry     beta= 0.30
     Davidson diagonalization with overlap
     c_bands:  1 eigenvalues not converged
     ethr =  5.65E-06,  avg # of iterations =  8.5

     total cpu time spent up to now is       73.9 secs

     total energy              =    -361.46589375 Ry
     estimated scf accuracy    <       0.00958959 Ry

     iteration #  8     ecut=    50.00 Ry     beta= 0.30
     Davidson diagonalization with overlap
     ethr =  5.65E-06,  avg # of iterations =  6.3

     total cpu time spent up to now is       84.2 secs

     total energy              =    -361.46764614 Ry
     estimated scf accuracy    <       0.00001320 Ry

     iteration #  9     ecut=    50.00 Ry     beta= 0.30
     Davidson diagonalization with overlap
     c_bands:  3 eigenvalues not converged
     ethr =  3.67E-08,  avg # of iterations =  9.9

     total cpu time spent up to now is       99.5 secs

     total energy              =    -361.46769067 Ry
     estimated scf accuracy    <       0.00007603 Ry

     iteration # 10     ecut=    50.00 Ry     beta= 0.30
     Davidson diagonalization with overlap
     ethr =  3.67E-08,  avg # of iterations =  4.7

     total cpu time spent up to now is      107.5 secs

     total energy              =    -361.46769366 Ry
     estimated scf accuracy    <       0.00000996 Ry

     iteration # 11     ecut=    50.00 Ry     beta= 0.30
     Davidson diagonalization with overlap
     ethr =  2.77E-08,  avg # of iterations =  2.8

     total cpu time spent up to now is      112.9 secs

     total energy              =    -361.46769396 Ry
     estimated scf accuracy    <       0.00000189 Ry

     iteration # 12     ecut=    50.00 Ry     beta= 0.30
     Davidson diagonalization with overlap
     ethr =  5.25E-09,  avg # of iterations =  7.1

     total cpu time spent up to now is      123.7 secs

     total energy              =    -361.46769606 Ry
     estimated scf accuracy    <       0.00000293 Ry

     iteration # 13     ecut=    50.00 Ry     beta= 0.30
     Davidson diagonalization with overlap
     ethr =  5.25E-09,  avg # of iterations =  1.1

     total cpu time spent up to now is      128.1 secs

     total energy              =    -361.46769594 Ry
     estimated scf accuracy    <       0.00000145 Ry

     iteration # 14     ecut=    50.00 Ry     beta= 0.30
     Davidson diagonalization with overlap
     ethr =  4.03E-09,  avg # of iterations =  2.0

     total cpu time spent up to now is      133.2 secs

     total energy              =    -361.46769579 Ry
     estimated scf accuracy    <       0.00000070 Ry

     iteration # 15     ecut=    50.00 Ry     beta= 0.30
     Davidson diagonalization with overlap
     ethr =  1.95E-09,  avg # of iterations =  4.2

     total cpu time spent up to now is      140.1 secs

     End of self-consistent calculation

     Number of k-points >= 100: set verbosity='high' to print the bands.

     highest occupied level (ev):     9.2451

!    total energy              =    -361.46769601 Ry
     estimated scf accuracy    <          3.9E-09 Ry

     The total energy is the sum of the following terms:
     one-electron contribution =    -142.09874123 Ry
     hartree contribution      =     114.00241183 Ry
     xc contribution           =    -109.78681841 Ry
     ewald contribution        =    -223.58454821 Ry

     convergence has been achieved in  15 iterations

     Forces acting on atoms (cartesian axes, Ry/au):

     atom    1 type  1   force =     0.11222810   -0.09752195    0.00395226
     atom    2 type  1   force =    -0.08836993   -0.02474596    0.03117104
     atom    3 type  2   force =     0.07291771    0.05868971    0.02880305
     atom    4 type  2   force =    -0.09677588    0.06357819   -0.06392635
     The non-local contrib.  to forces
     atom    1 type  1   force =     0.11451537   -0.18694225   -0.07456331
     atom    2 type  1   force =    -0.19378850   -0.12953715    0.35799103
     atom    3 type  2   force =    -0.23636436    0.05711333    0.66797504
     atom    4 type  2   force =     0.11780498   -0.31782598   -0.37890325
     The ionic contribution  to forces
     atom    1 type  1   force =     2.11634318   -1.45730540   -5.05825925
     atom    2 type  1   force =    -2.46867492   -0.88765072    6.95292740
     atom    3 type  2   force =     2.35191823    0.42039568    0.13834749
     atom    4 type  2   force =    -1.99958649    1.92456044   -2.03301564
     The local contribution  to forces
     atom    1 type  1   force =    -2.10060433    1.52397795    5.13006052
     atom    2 type  1   force =     2.55150313    0.98166745   -7.24840952
     atom    3 type  2   force =    -2.04431689   -0.41797751   -0.77130592
     atom    4 type  2   force =     1.78553071   -1.54570031    2.34417329
     The core correction contribution to forces
     atom    1 type  1   force =    -0.01805546    0.02274609    0.00685344
     atom    2 type  1   force =     0.02262629    0.01076218   -0.03148979
     atom    3 type  2   force =     0.00166716   -0.00083813   -0.00629374
     atom    4 type  2   force =    -0.00051557    0.00252851    0.00394099
     The Hubbard contrib.    to forces
     atom    1 type  1   force =     0.00000000    0.00000000    0.00000000
     atom    2 type  1   force =     0.00000000    0.00000000    0.00000000
     atom    3 type  2   force =     0.00000000    0.00000000    0.00000000
     atom    4 type  2   force =     0.00000000    0.00000000    0.00000000
     The SCF correction term to forces
     atom    1 type  1   force =     0.00002780   -0.00000166   -0.00013550
     atom    2 type  1   force =    -0.00003748    0.00000896    0.00015558
     atom    3 type  2   force =     0.00001204   -0.00000698    0.00008383
     atom    4 type  2   force =    -0.00001105    0.00001222   -0.00011810

     Total force =     0.242074     Total SCF correction =     0.000257

     Writing all to output data dir ./ZnO_ANN.save/

     init_run     :      3.26s CPU      3.34s WALL (       1 calls)
     electrons    :    133.58s CPU    136.30s WALL (       1 calls)
     forces       :      1.05s CPU      1.06s WALL (       1 calls)

     Called by init_run:
     wfcinit      :      2.40s CPU      2.45s WALL (       1 calls)
     potinit      :      0.24s CPU      0.25s WALL (       1 calls)
     hinit0       :      0.55s CPU      0.56s WALL (       1 calls)

     Called by electrons:
     c_bands      :    122.20s CPU    124.65s WALL (      15 calls)
     sum_band     :     10.34s CPU     10.58s WALL (      15 calls)
     v_of_rho     :      0.22s CPU      0.24s WALL (      16 calls)
     newd         :      0.83s CPU      0.85s WALL (      16 calls)
     mix_rho      :      0.04s CPU      0.04s WALL (      15 calls)

     Called by c_bands:
     init_us_2    :      0.72s CPU      0.73s WALL (    3584 calls)
     init_us_2:cp :      0.70s CPU      0.72s WALL (    3584 calls)
     cegterg      :    120.04s CPU    122.44s WALL (    1680 calls)

     Called by *egterg:
     cdiaghg      :     12.64s CPU     12.72s WALL (   10507 calls)
     h_psi        :     72.64s CPU     74.46s WALL (   10619 calls)
     s_psi        :      8.67s CPU      8.75s WALL (   10619 calls)
     g_psi        :      0.24s CPU      0.24s WALL (    8827 calls)

     Called by h_psi:
     h_psi:calbec :      8.82s CPU      9.16s WALL (   10619 calls)
     vloc_psi     :     54.94s CPU     56.35s WALL (   10619 calls)
     add_vuspsi   :      8.65s CPU      8.73s WALL (   10619 calls)

     General routines
     calbec       :     11.39s CPU     11.82s WALL (   12747 calls)
     fft          :      0.40s CPU      0.42s WALL (     217 calls)
     ffts         :      0.07s CPU      0.07s WALL (      31 calls)
     fftw         :     54.90s CPU     56.29s WALL (  281900 calls)
     interpolate  :      0.08s CPU      0.08s WALL (      16 calls)

     Parallel routines

     PWSCF        :   2m18.61s CPU   2m21.59s WALL


   This run was terminated on:  16:10:53  24Jun2025            

=------------------------------------------------------------------------------=
   JOB DONE.
=------------------------------------------------------------------------------=
Note: The following floating-point exceptions are signalling: IEEE_INVALID_FLAG
