
     Program PWSCF v.7.2 starts on 24Jun2025 at 16: 6:41 

     This program is part of the open-source Quantum ESPRESSO suite
     for quantum simulation of materials; please cite
         "P. Giannozzi et al., J. Phys.:Condens. Matter 21 395502 (2009);
         "P. Giannozzi et al., J. Phys.:Condens. Matter 29 465901 (2017);
         "P. Giannozzi et al., J. Chem. Phys. 152 154105 (2020);
          URL http://www.quantum-espresso.org", 
     in publications or presentations arising from this work. More details at
     http://www.quantum-espresso.org/quote

     Parallel version (MPI), running on     8 processors

     MPI processes distributed on     1 nodes
     91154 MiB available memory on the printing compute node when the environment starts

     Reading input from /home/jvc/QEspresso7.2/ZnO_DataBase/scf_025_NOSYM.in/scf-5.93-1.74-0.25-3.in

     Current dimensions of program PWSCF are:
     Max number of different atomic species (ntypx) = 10
     Max number of k-points (npk) =  40000
     Max angular momentum in pseudopotentials (lmaxx) =  4
     file Zn.upf: wavefunction(s)  3D renormalized

     R & G space division:  proc/nbgrp/npool/nimage =       8
     Subspace diagonalization in iterative solution of the eigenvalue problem:
     a serial algorithm will be used


     Parallelization info
     --------------------
     sticks:   dense  smooth     PW     G-vecs:    dense   smooth      PW
     Min         119      62     18                 4887     1734     288
     Max         120      63     19                 4898     1737     293
     Sum         955     499    151                39127    13885    2333

     Using Slab Decomposition



     bravais-lattice index     =            0
     lattice parameter (alat)  =       5.9317  a.u.
     unit-cell volume          =     289.1886 (a.u.)^3
     number of atoms/cell      =            4
     number of atomic types    =            2
     number of electrons       =        36.00
     number of Kohn-Sham states=           18
     kinetic-energy cutoff     =      50.0000  Ry
     charge density cutoff     =     400.0000  Ry
     scf convergence threshold =      1.0E-08
     mixing beta               =       0.3000
     number of iterations used =            8  plain     mixing
     Exchange-correlation= PBE
                           (   1   4   3   4   0   0   0)

     celldm(1)=   5.931669  celldm(2)=   0.000000  celldm(3)=   0.000000
     celldm(4)=   0.000000  celldm(5)=   0.000000  celldm(6)=   0.000000

     crystal axes: (cart. coord. in units of alat)
               a(1) = (   1.000000   0.000000   0.000000 )  
               a(2) = (  -0.500000   0.866025   0.000000 )  
               a(3) = (   0.000000   0.000000   1.600000 )  

     reciprocal axes: (cart. coord. in units 2 pi/alat)
               b(1) = (  1.000000  0.577350 -0.000000 )  
               b(2) = (  0.000000  1.154701  0.000000 )  
               b(3) = (  0.000000 -0.000000  0.625000 )  


     PseudoPot. # 1 for Zn read from file:
     ./pseudos/Zn.upf
     MD5 check sum: 7f56cabf9682ed8c977c2f7d0c5985c5
     Pseudo is Ultrasoft + core correction, Zval = 12.0
     Generated using &quot;atomic&quot; code by A. Dal Corso  v.6.2.2
     Using radial grid of 1201 points,  6 beta functions with: 
                l(1) =   0
                l(2) =   0
                l(3) =   1
                l(4) =   1
                l(5) =   2
                l(6) =   2
     Q(r) pseudized with 0 coefficients 


     PseudoPot. # 2 for O  read from file:
     ./pseudos/O.upf
     MD5 check sum: 91400c9766925bcf19f520983a725ff0
     Pseudo is Ultrasoft + core correction, Zval =  6.0
     Generated using &quot;atomic&quot; code by A. Dal Corso  v.6.3MaX
     Using radial grid of 1095 points,  4 beta functions with: 
                l(1) =   0
                l(2) =   0
                l(3) =   1
                l(4) =   1
     Q(r) pseudized with 0 coefficients 


     atomic species   valence    mass     pseudopotential
        Zn            12.00    63.38000     Zn( 1.00)
        O              6.00    15.99900     O ( 1.00)

     No symmetry found



   Cartesian axes

     site n.     atom                  positions (alat units)
         1           Zn  tau(   1) = (   0.4799299   0.2186462   1.0261981  )
         2           Zn  tau(   2) = (  -0.1621647   0.6121547   0.2046430  )
         3           O   tau(   3) = (   0.4413062   0.2645501   1.0541006  )
         4           O   tau(   4) = (  -0.1317038   0.5405637   0.7312958  )

     number of k points=   112

     Number of k-points >= 100: set verbosity='high' to print them.

     Dense  grid:    39127 G-vectors     FFT dimensions: (  40,  40,  64)

     Smooth grid:    13885 G-vectors     FFT dimensions: (  27,  27,  45)

     Estimated max dynamical RAM per process >      27.34 MB

     Estimated total dynamical RAM >     218.72 MB

     Check: negative core charge=   -0.000002

     Initial potential from superposition of free atoms

     starting charge      35.9925, renormalised to      36.0000
     Starting wfcs are   26 randomized atomic wfcs

     total cpu time spent up to now is        3.8 secs

     Self-consistent Calculation

     iteration #  1     ecut=    50.00 Ry     beta= 0.30
     Davidson diagonalization with overlap
     ethr =  1.00E-02,  avg # of iterations =  4.7

     total cpu time spent up to now is       11.4 secs

     total energy              =    -150.35979866 Ry
     estimated scf accuracy    <      13.70180810 Ry

     iteration #  2     ecut=    50.00 Ry     beta= 0.30
     Davidson diagonalization with overlap
     ethr =  1.00E-02,  avg # of iterations =  6.7

     total cpu time spent up to now is       19.3 secs

     total energy              =    -152.21907812 Ry
     estimated scf accuracy    <       1.44117148 Ry

     iteration #  3     ecut=    50.00 Ry     beta= 0.30
     Davidson diagonalization with overlap
     ethr =  4.00E-03,  avg # of iterations =  2.2

     total cpu time spent up to now is       24.4 secs

     total energy              =    -151.92607953 Ry
     estimated scf accuracy    <       0.55663747 Ry

     iteration #  4     ecut=    50.00 Ry     beta= 0.30
     Davidson diagonalization with overlap
     ethr =  1.55E-03,  avg # of iterations = 10.0

     total cpu time spent up to now is       33.2 secs

     total energy              =    -152.23330942 Ry
     estimated scf accuracy    <       0.95112587 Ry

     iteration #  5     ecut=    50.00 Ry     beta= 0.30
     Davidson diagonalization with overlap
     ethr =  1.55E-03,  avg # of iterations =  1.2

     total cpu time spent up to now is       37.7 secs

     total energy              =    -151.88793660 Ry
     estimated scf accuracy    <       0.71511578 Ry

     iteration #  6     ecut=    50.00 Ry     beta= 0.30
     Davidson diagonalization with overlap
     ethr =  1.55E-03,  avg # of iterations =  7.4

     total cpu time spent up to now is       45.2 secs

     total energy              =    -152.05398016 Ry
     estimated scf accuracy    <       0.43383417 Ry

     iteration #  7     ecut=    50.00 Ry     beta= 0.30
     Davidson diagonalization with overlap
     ethr =  1.21E-03,  avg # of iterations =  6.4

     total cpu time spent up to now is       51.8 secs

     total energy              =    -152.21264099 Ry
     estimated scf accuracy    <       0.04598804 Ry

     iteration #  8     ecut=    50.00 Ry     beta= 0.30
     Davidson diagonalization with overlap
     c_bands:  1 eigenvalues not converged
     c_bands:  1 eigenvalues not converged
     c_bands:  1 eigenvalues not converged
     c_bands:  1 eigenvalues not converged
     c_bands:  1 eigenvalues not converged
     c_bands:  1 eigenvalues not converged
     c_bands:  1 eigenvalues not converged
     c_bands:  1 eigenvalues not converged
     c_bands:  1 eigenvalues not converged
     c_bands:  1 eigenvalues not converged
     ethr =  1.28E-04,  avg # of iterations = 14.0

     total cpu time spent up to now is       63.6 secs

     total energy              =    -152.08965141 Ry
     estimated scf accuracy    <       0.88391303 Ry

     iteration #  9     ecut=    50.00 Ry     beta= 0.30
     Davidson diagonalization with overlap
     c_bands:  1 eigenvalues not converged
     ethr =  1.28E-04,  avg # of iterations = 12.3

     total cpu time spent up to now is       73.5 secs

     total energy              =    -152.15801989 Ry
     estimated scf accuracy    <       0.02953897 Ry

     iteration # 10     ecut=    50.00 Ry     beta= 0.30
     Davidson diagonalization with overlap
     ethr =  8.21E-05,  avg # of iterations =  7.0

     total cpu time spent up to now is       79.8 secs

     total energy              =    -152.16454852 Ry
     estimated scf accuracy    <       0.00250773 Ry

     iteration # 11     ecut=    50.00 Ry     beta= 0.30
     Davidson diagonalization with overlap
     ethr =  6.97E-06,  avg # of iterations =  8.2

     total cpu time spent up to now is       87.5 secs

     total energy              =    -152.16598536 Ry
     estimated scf accuracy    <       0.00072323 Ry

     iteration # 12     ecut=    50.00 Ry     beta= 0.30
     Davidson diagonalization with overlap
     c_bands:  1 eigenvalues not converged
     c_bands:  1 eigenvalues not converged
     c_bands:  1 eigenvalues not converged
     c_bands:  1 eigenvalues not converged
     c_bands:  1 eigenvalues not converged
     c_bands:  1 eigenvalues not converged
     c_bands:  1 eigenvalues not converged
     c_bands:  1 eigenvalues not converged
     c_bands:  1 eigenvalues not converged
     c_bands:  1 eigenvalues not converged
     c_bands:  1 eigenvalues not converged
     c_bands:  1 eigenvalues not converged
     c_bands:  1 eigenvalues not converged
     ethr =  2.01E-06,  avg # of iterations = 13.7

     total cpu time spent up to now is       98.7 secs

     total energy              =    -152.16456754 Ry
     estimated scf accuracy    <       0.01124139 Ry

     iteration # 13     ecut=    50.00 Ry     beta= 0.30
     Davidson diagonalization with overlap
     c_bands:  1 eigenvalues not converged
     c_bands:  1 eigenvalues not converged
     c_bands:  1 eigenvalues not converged
     c_bands:  1 eigenvalues not converged
     ethr =  2.01E-06,  avg # of iterations = 12.1

     total cpu time spent up to now is      108.4 secs

     total energy              =    -152.16560634 Ry
     estimated scf accuracy    <       0.00039143 Ry

     iteration # 14     ecut=    50.00 Ry     beta= 0.30
     Davidson diagonalization with overlap
     ethr =  1.09E-06,  avg # of iterations =  2.2

     total cpu time spent up to now is      113.0 secs

     total energy              =    -152.16564351 Ry
     estimated scf accuracy    <       0.00026385 Ry

     iteration # 15     ecut=    50.00 Ry     beta= 0.30
     Davidson diagonalization with overlap
     ethr =  7.33E-07,  avg # of iterations =  2.2

     total cpu time spent up to now is      117.8 secs

     total energy              =    -152.16564633 Ry
     estimated scf accuracy    <       0.00031870 Ry

     iteration # 16     ecut=    50.00 Ry     beta= 0.30
     Davidson diagonalization with overlap
     ethr =  7.33E-07,  avg # of iterations =  1.1

     total cpu time spent up to now is      122.0 secs

     total energy              =    -152.16560006 Ry
     estimated scf accuracy    <       0.00030756 Ry

     iteration # 17     ecut=    50.00 Ry     beta= 0.30
     Davidson diagonalization with overlap
     ethr =  7.33E-07,  avg # of iterations =  1.3

     total cpu time spent up to now is      126.3 secs

     total energy              =    -152.16554229 Ry
     estimated scf accuracy    <       0.00019766 Ry

     iteration # 18     ecut=    50.00 Ry     beta= 0.30
     Davidson diagonalization with overlap
     ethr =  5.49E-07,  avg # of iterations =  7.5

     total cpu time spent up to now is      132.5 secs

     total energy              =    -152.16560879 Ry
     estimated scf accuracy    <       0.00002548 Ry

     iteration # 19     ecut=    50.00 Ry     beta= 0.30
     Davidson diagonalization with overlap
     ethr =  7.08E-08,  avg # of iterations =  4.8

     total cpu time spent up to now is      138.4 secs

     total energy              =    -152.16560581 Ry
     estimated scf accuracy    <       0.00004899 Ry

     iteration # 20     ecut=    50.00 Ry     beta= 0.30
     Davidson diagonalization with overlap
     ethr =  7.08E-08,  avg # of iterations =  1.9

     total cpu time spent up to now is      143.1 secs

     total energy              =    -152.16559715 Ry
     estimated scf accuracy    <       0.00002977 Ry

     iteration # 21     ecut=    50.00 Ry     beta= 0.30
     Davidson diagonalization with overlap
     ethr =  7.08E-08,  avg # of iterations =  8.0

     total cpu time spent up to now is      149.8 secs

     total energy              =    -152.16560477 Ry
     estimated scf accuracy    <       0.00000375 Ry

     iteration # 22     ecut=    50.00 Ry     beta= 0.30
     Davidson diagonalization with overlap
     ethr =  1.04E-08,  avg # of iterations =  7.6

     total cpu time spent up to now is      156.3 secs

     total energy              =    -152.16560597 Ry
     estimated scf accuracy    <       0.00000014 Ry

     iteration # 23     ecut=    50.00 Ry     beta= 0.30
     Davidson diagonalization with overlap
     c_bands:  1 eigenvalues not converged
     c_bands:  1 eigenvalues not converged
     c_bands:  1 eigenvalues not converged
     c_bands:  1 eigenvalues not converged
     c_bands:  1 eigenvalues not converged
     c_bands:  1 eigenvalues not converged
     c_bands:  1 eigenvalues not converged
     c_bands:  1 eigenvalues not converged
     c_bands:  1 eigenvalues not converged
     c_bands:  1 eigenvalues not converged
     c_bands:  1 eigenvalues not converged
     c_bands:  1 eigenvalues not converged
     c_bands:  1 eigenvalues not converged
     c_bands:  1 eigenvalues not converged
     c_bands:  1 eigenvalues not converged
     c_bands:  1 eigenvalues not converged
     c_bands:  1 eigenvalues not converged
     c_bands:  1 eigenvalues not converged
     c_bands:  1 eigenvalues not converged
     c_bands:  1 eigenvalues not converged
     c_bands:  1 eigenvalues not converged
     ethr =  3.87E-10,  avg # of iterations = 15.8

     total cpu time spent up to now is      169.5 secs

     total energy              =    -152.16560549 Ry
     estimated scf accuracy    <       0.00000384 Ry

     iteration # 24     ecut=    50.00 Ry     beta= 0.30
     Davidson diagonalization with overlap
     c_bands:  1 eigenvalues not converged
     c_bands:  1 eigenvalues not converged
     c_bands:  1 eigenvalues not converged
     c_bands:  1 eigenvalues not converged
     c_bands:  1 eigenvalues not converged
     c_bands:  1 eigenvalues not converged
     c_bands:  1 eigenvalues not converged
     c_bands:  1 eigenvalues not converged
     c_bands:  1 eigenvalues not converged
     c_bands:  1 eigenvalues not converged
     c_bands:  1 eigenvalues not converged
     c_bands:  1 eigenvalues not converged
     c_bands:  1 eigenvalues not converged
     c_bands:  1 eigenvalues not converged
     c_bands:  1 eigenvalues not converged
     c_bands:  1 eigenvalues not converged
     c_bands:  1 eigenvalues not converged
     c_bands:  1 eigenvalues not converged
     c_bands:  1 eigenvalues not converged
     c_bands:  1 eigenvalues not converged
     ethr =  3.87E-10,  avg # of iterations = 15.5

     total cpu time spent up to now is      181.6 secs

     total energy              =    -152.16560591 Ry
     estimated scf accuracy    <       0.00000007 Ry

     iteration # 25     ecut=    50.00 Ry     beta= 0.30
     Davidson diagonalization with overlap
     ethr =  2.06E-10,  avg # of iterations =  2.2

     total cpu time spent up to now is      186.2 secs

     total energy              =    -152.16560590 Ry
     estimated scf accuracy    <       0.00000007 Ry

     iteration # 26     ecut=    50.00 Ry     beta= 0.30
     Davidson diagonalization with overlap
     ethr =  2.00E-10,  avg # of iterations =  3.1

     total cpu time spent up to now is      191.1 secs

     total energy              =    -152.16560589 Ry
     estimated scf accuracy    <       0.00000003 Ry

     iteration # 27     ecut=    50.00 Ry     beta= 0.30
     Davidson diagonalization with overlap
     ethr =  8.28E-11,  avg # of iterations =  8.7

     total cpu time spent up to now is      198.3 secs

     total energy              =    -152.16560591 Ry
     estimated scf accuracy    <       0.00000002 Ry

     iteration # 28     ecut=    50.00 Ry     beta= 0.30
     Davidson diagonalization with overlap
     ethr =  6.26E-11,  avg # of iterations =  1.6

     total cpu time spent up to now is      202.8 secs

     total energy              =    -152.16560590 Ry
     estimated scf accuracy    <       0.00000003 Ry

     iteration # 29     ecut=    50.00 Ry     beta= 0.30
     Davidson diagonalization with overlap
     ethr =  6.26E-11,  avg # of iterations =  2.9

     total cpu time spent up to now is      207.7 secs

     End of self-consistent calculation

     Number of k-points >= 100: set verbosity='high' to print the bands.

     highest occupied level (ev):    12.9342

!    total energy              =    -152.16560590 Ry
     estimated scf accuracy    <          6.8E-09 Ry

     The total energy is the sum of the following terms:
     one-electron contribution =    -301.39049690 Ry
     hartree contribution      =     181.09241514 Ry
     xc contribution           =    -118.24940294 Ry
     ewald contribution        =      86.38187880 Ry

     convergence has been achieved in  29 iterations

     Forces acting on atoms (cartesian axes, Ry/au):

     atom    1 type  1   force =   508.35532247 -604.22793677 -367.12995002
     atom    2 type  1   force =    -0.00414402    0.02130088   -0.20319105
     atom    3 type  2   force =  -508.47264501  604.20621213  367.42976531
     atom    4 type  2   force =     0.12146657    0.00042376   -0.09662424
     The non-local contrib.  to forces
     atom    1 type  1   force =   -24.79775555   30.28160755   17.98794999
     atom    2 type  1   force =    -0.05974345    0.03209132   -0.36990672
     atom    3 type  2   force =     1.91226010   -1.96333168   -1.28433899
     atom    4 type  2   force =    -0.18925073   -0.00734506   -0.36416478
     The ionic contribution  to forces
     atom    1 type  1   force =   542.97460525 -647.61013435 -384.35227780
     atom    2 type  1   force =    -0.23788356    0.83389255  -10.78467769
     atom    3 type  2   force =  -545.79739315  647.38141313  398.60277354
     atom    4 type  2   force =     3.06067146   -0.60517133   -3.46581805
     The local contribution  to forces
     atom    1 type  1   force =    -8.82465940   11.94830872   -1.47999370
     atom    2 type  1   force =     0.28915621   -0.83698163   10.89503578
     atom    3 type  2   force =    35.10029755  -40.84102914  -29.66287842
     atom    4 type  2   force =    -2.75021218    0.61275494    3.72971998
     The core correction contribution to forces
     atom    1 type  1   force =    -0.99690218    1.15228524    0.71467447
     atom    2 type  1   force =     0.00430169   -0.00765702    0.05605927
     atom    3 type  2   force =     0.31216004   -0.37081469   -0.22565982
     atom    4 type  2   force =     0.00025312    0.00022151    0.00354742
     The Hubbard contrib.    to forces
     atom    1 type  1   force =     0.00000000    0.00000000    0.00000000
     atom    2 type  1   force =     0.00000000    0.00000000    0.00000000
     atom    3 type  2   force =     0.00000000    0.00000000    0.00000000
     atom    4 type  2   force =     0.00000000    0.00000000    0.00000000
     The SCF correction term to forces
     atom    1 type  1   force =     0.00001656    0.00002796   -0.00033594
     atom    2 type  1   force =     0.00000730   -0.00001246    0.00026535
     atom    3 type  2   force =     0.00001266    0.00000639   -0.00016395
     atom    4 type  2   force =    -0.00001289   -0.00000443    0.00005824

     Total force =  1231.631117     Total SCF correction =     0.000464

     Writing all to output data dir ./ZnO_ANN.save/

     init_run     :      3.30s CPU      3.39s WALL (       1 calls)
     electrons    :    199.77s CPU    203.87s WALL (       1 calls)
     forces       :      0.98s CPU      1.00s WALL (       1 calls)

     Called by init_run:
     wfcinit      :      2.45s CPU      2.50s WALL (       1 calls)
     potinit      :      0.24s CPU      0.25s WALL (       1 calls)
     hinit0       :      0.53s CPU      0.54s WALL (       1 calls)

     Called by electrons:
     c_bands      :    178.33s CPU    181.87s WALL (      29 calls)
     sum_band     :     19.49s CPU     19.98s WALL (      29 calls)
     v_of_rho     :      0.41s CPU      0.44s WALL (      30 calls)
     newd         :      1.50s CPU      1.53s WALL (      30 calls)
     mix_rho      :      0.07s CPU      0.08s WALL (      29 calls)

     Called by c_bands:
     init_us_2    :      1.32s CPU      1.34s WALL (    6720 calls)
     init_us_2:cp :      1.30s CPU      1.32s WALL (    6720 calls)
     cegterg      :    174.14s CPU    177.61s WALL (    3248 calls)

     Called by *egterg:
     cdiaghg      :     27.22s CPU     27.57s WALL (   24756 calls)
     h_psi        :    100.27s CPU    102.69s WALL (   24868 calls)
     s_psi        :     11.55s CPU     11.67s WALL (   24868 calls)
     g_psi        :      0.32s CPU      0.32s WALL (   21508 calls)

     Called by h_psi:
     h_psi:calbec :     12.53s CPU     12.99s WALL (   24868 calls)
     vloc_psi     :     75.83s CPU     77.64s WALL (   24868 calls)
     add_vuspsi   :     11.51s CPU     11.66s WALL (   24868 calls)

     General routines
     calbec       :     16.97s CPU     17.58s WALL (   28564 calls)
     fft          :      0.50s CPU      0.54s WALL (     399 calls)
     ffts         :      0.08s CPU      0.08s WALL (      59 calls)
     fftw         :     78.55s CPU     80.46s WALL (  411718 calls)
     interpolate  :      0.09s CPU      0.10s WALL (      30 calls)

     Parallel routines

     PWSCF        :   3m24.78s CPU   3m29.14s WALL


   This run was terminated on:  16:10:10  24Jun2025            

=------------------------------------------------------------------------------=
   JOB DONE.
=------------------------------------------------------------------------------=
Note: The following floating-point exceptions are signalling: IEEE_INVALID_FLAG
