
     Program PWSCF v.7.2 starts on 24Jun2025 at 19:51:10 

     This program is part of the open-source Quantum ESPRESSO suite
     for quantum simulation of materials; please cite
         "P. Giannozzi et al., J. Phys.:Condens. Matter 21 395502 (2009);
         "P. Giannozzi et al., J. Phys.:Condens. Matter 29 465901 (2017);
         "P. Giannozzi et al., J. Chem. Phys. 152 154105 (2020);
          URL http://www.quantum-espresso.org", 
     in publications or presentations arising from this work. More details at
     http://www.quantum-espresso.org/quote

     Parallel version (MPI), running on     8 processors

     MPI processes distributed on     1 nodes
     90692 MiB available memory on the printing compute node when the environment starts

     Reading input from /home/jvc/QEspresso7.2/ZnO_DataBase/scf_025_NOSYM.in/scf-6.67-1.55-0.25-1.in

     Current dimensions of program PWSCF are:
     Max number of different atomic species (ntypx) = 10
     Max number of k-points (npk) =  40000
     Max angular momentum in pseudopotentials (lmaxx) =  4
     file Zn.upf: wavefunction(s)  3D renormalized

     R & G space division:  proc/nbgrp/npool/nimage =       8
     Subspace diagonalization in iterative solution of the eigenvalue problem:
     a serial algorithm will be used


     Parallelization info
     --------------------
     sticks:   dense  smooth     PW     G-vecs:    dense   smooth      PW
     Min         154      75     23                 6952     2457     407
     Max         155      78     24                 6957     2461     412
     Sum        1237     613    187                55639    19669    3273

     Using Slab Decomposition



     bravais-lattice index     =            0
     lattice parameter (alat)  =       6.6731  a.u.
     unit-cell volume          =     411.7549 (a.u.)^3
     number of atoms/cell      =            4
     number of atomic types    =            2
     number of electrons       =        36.00
     number of Kohn-Sham states=           18
     kinetic-energy cutoff     =      50.0000  Ry
     charge density cutoff     =     400.0000  Ry
     scf convergence threshold =      1.0E-08
     mixing beta               =       0.3000
     number of iterations used =            8  plain     mixing
     Exchange-correlation= PBE
                           (   1   4   3   4   0   0   0)

     celldm(1)=   6.673127  celldm(2)=   0.000000  celldm(3)=   0.000000
     celldm(4)=   0.000000  celldm(5)=   0.000000  celldm(6)=   0.000000

     crystal axes: (cart. coord. in units of alat)
               a(1) = (   1.000000   0.000000   0.000000 )  
               a(2) = (  -0.500000   0.866025   0.000000 )  
               a(3) = (   0.000000   0.000000   1.600000 )  

     reciprocal axes: (cart. coord. in units 2 pi/alat)
               b(1) = (  1.000000  0.577350 -0.000000 )  
               b(2) = (  0.000000  1.154701  0.000000 )  
               b(3) = (  0.000000 -0.000000  0.625000 )  


     PseudoPot. # 1 for Zn read from file:
     ./pseudos/Zn.upf
     MD5 check sum: 7f56cabf9682ed8c977c2f7d0c5985c5
     Pseudo is Ultrasoft + core correction, Zval = 12.0
     Generated using &quot;atomic&quot; code by A. Dal Corso  v.6.2.2
     Using radial grid of 1201 points,  6 beta functions with: 
                l(1) =   0
                l(2) =   0
                l(3) =   1
                l(4) =   1
                l(5) =   2
                l(6) =   2
     Q(r) pseudized with 0 coefficients 


     PseudoPot. # 2 for O  read from file:
     ./pseudos/O.upf
     MD5 check sum: 91400c9766925bcf19f520983a725ff0
     Pseudo is Ultrasoft + core correction, Zval =  6.0
     Generated using &quot;atomic&quot; code by A. Dal Corso  v.6.3MaX
     Using radial grid of 1095 points,  4 beta functions with: 
                l(1) =   0
                l(2) =   0
                l(3) =   1
                l(4) =   1
     Q(r) pseudized with 0 coefficients 


     atomic species   valence    mass     pseudopotential
        Zn            12.00    63.38000     Zn( 1.00)
        O              6.00    15.99900     O ( 1.00)

     No symmetry found



   Cartesian axes

     site n.     atom                  positions (alat units)
         1           Zn  tau(   1) = (   0.5815160   0.4199199   1.0166193  )
         2           Zn  tau(   2) = (  -0.1316285   0.5793642   0.3322436  )
         3           O   tau(   3) = (   0.4228642   0.3540546   1.0979975  )
         4           O   tau(   4) = (   0.1379711   0.6838520   0.2177844  )

     number of k points=   112

     Number of k-points >= 100: set verbosity='high' to print them.

     Dense  grid:    55639 G-vectors     FFT dimensions: (  45,  45,  72)

     Smooth grid:    19669 G-vectors     FFT dimensions: (  32,  32,  50)

     Estimated max dynamical RAM per process >      37.53 MB

     Estimated total dynamical RAM >     300.20 MB

     Check: negative core charge=   -0.000002

     Initial potential from superposition of free atoms

     starting charge      35.9925, renormalised to      36.0000
     Starting wfcs are   26 randomized atomic wfcs

     total cpu time spent up to now is        4.5 secs

     Self-consistent Calculation

     iteration #  1     ecut=    50.00 Ry     beta= 0.30
     Davidson diagonalization with overlap
     ethr =  1.00E-02,  avg # of iterations =  5.8

     total cpu time spent up to now is       15.2 secs

     total energy              =    -345.16468373 Ry
     estimated scf accuracy    <       1.59166282 Ry

     iteration #  2     ecut=    50.00 Ry     beta= 0.30
     Davidson diagonalization with overlap
     ethr =  4.42E-03,  avg # of iterations =  2.0

     total cpu time spent up to now is       21.3 secs

     total energy              =    -345.03408310 Ry
     estimated scf accuracy    <       0.40103541 Ry

     iteration #  3     ecut=    50.00 Ry     beta= 0.30
     Davidson diagonalization with overlap
     ethr =  1.11E-03,  avg # of iterations =  8.3

     total cpu time spent up to now is       32.7 secs

     total energy              =    -345.56770228 Ry
     estimated scf accuracy    <       1.18045905 Ry

     iteration #  4     ecut=    50.00 Ry     beta= 0.30
     Davidson diagonalization with overlap
     ethr =  1.11E-03,  avg # of iterations =  1.0

     total cpu time spent up to now is       38.0 secs

     total energy              =    -345.52477712 Ry
     estimated scf accuracy    <       1.17348656 Ry

     iteration #  5     ecut=    50.00 Ry     beta= 0.30
     Davidson diagonalization with overlap
     ethr =  1.11E-03,  avg # of iterations =  1.0

     total cpu time spent up to now is       43.2 secs

     total energy              =    -344.99543012 Ry
     estimated scf accuracy    <       1.07359986 Ry

     iteration #  6     ecut=    50.00 Ry     beta= 0.30
     Davidson diagonalization with overlap
     ethr =  1.11E-03,  avg # of iterations =  6.6

     total cpu time spent up to now is       54.8 secs

     total energy              =    -345.61418046 Ry
     estimated scf accuracy    <       0.26878478 Ry

     iteration #  7     ecut=    50.00 Ry     beta= 0.30
     Davidson diagonalization with overlap
     ethr =  7.47E-04,  avg # of iterations =  4.6

     total cpu time spent up to now is       63.9 secs

     total energy              =    -345.29513926 Ry
     estimated scf accuracy    <       1.40276543 Ry

     iteration #  8     ecut=    50.00 Ry     beta= 0.30
     Davidson diagonalization with overlap
     ethr =  7.47E-04,  avg # of iterations =  4.6

     total cpu time spent up to now is       71.9 secs

     total energy              =    -345.33693816 Ry
     estimated scf accuracy    <       0.30610147 Ry

     iteration #  9     ecut=    50.00 Ry     beta= 0.30
     Davidson diagonalization with overlap
     ethr =  7.47E-04,  avg # of iterations =  1.3

     total cpu time spent up to now is       77.2 secs

     total energy              =    -345.31365817 Ry
     estimated scf accuracy    <       0.20707239 Ry

     iteration # 10     ecut=    50.00 Ry     beta= 0.30
     Davidson diagonalization with overlap
     ethr =  5.75E-04,  avg # of iterations =  2.0

     total cpu time spent up to now is       83.0 secs

     total energy              =    -345.29904160 Ry
     estimated scf accuracy    <       0.10367562 Ry

     iteration # 11     ecut=    50.00 Ry     beta= 0.30
     Davidson diagonalization with overlap
     ethr =  2.88E-04,  avg # of iterations =  4.0

     total cpu time spent up to now is       89.5 secs

     total energy              =    -345.30314791 Ry
     estimated scf accuracy    <       0.01870974 Ry

     iteration # 12     ecut=    50.00 Ry     beta= 0.30
     Davidson diagonalization with overlap
     ethr =  5.20E-05,  avg # of iterations =  7.6

     total cpu time spent up to now is      100.3 secs

     total energy              =    -345.31620994 Ry
     estimated scf accuracy    <       0.02570071 Ry

     iteration # 13     ecut=    50.00 Ry     beta= 0.30
     Davidson diagonalization with overlap
     ethr =  5.20E-05,  avg # of iterations =  2.0

     total cpu time spent up to now is      106.2 secs

     total energy              =    -345.31501305 Ry
     estimated scf accuracy    <       0.01013314 Ry

     iteration # 14     ecut=    50.00 Ry     beta= 0.30
     Davidson diagonalization with overlap
     ethr =  2.81E-05,  avg # of iterations =  6.0

     total cpu time spent up to now is      114.1 secs

     total energy              =    -345.31821518 Ry
     estimated scf accuracy    <       0.00064568 Ry

     iteration # 15     ecut=    50.00 Ry     beta= 0.30
     Davidson diagonalization with overlap
     ethr =  1.79E-06,  avg # of iterations =  6.2

     total cpu time spent up to now is      123.4 secs

     total energy              =    -345.31826754 Ry
     estimated scf accuracy    <       0.00183750 Ry

     iteration # 16     ecut=    50.00 Ry     beta= 0.30
     Davidson diagonalization with overlap
     ethr =  1.79E-06,  avg # of iterations =  1.9

     total cpu time spent up to now is      129.1 secs

     total energy              =    -345.31813311 Ry
     estimated scf accuracy    <       0.00117254 Ry

     iteration # 17     ecut=    50.00 Ry     beta= 0.30
     Davidson diagonalization with overlap
     ethr =  1.79E-06,  avg # of iterations =  2.0

     total cpu time spent up to now is      134.9 secs

     total energy              =    -345.31819245 Ry
     estimated scf accuracy    <       0.00067499 Ry

     iteration # 18     ecut=    50.00 Ry     beta= 0.30
     Davidson diagonalization with overlap
     ethr =  1.79E-06,  avg # of iterations =  1.0

     total cpu time spent up to now is      140.0 secs

     total energy              =    -345.31820203 Ry
     estimated scf accuracy    <       0.00067044 Ry

     iteration # 19     ecut=    50.00 Ry     beta= 0.30
     Davidson diagonalization with overlap
     ethr =  1.79E-06,  avg # of iterations =  1.1

     total cpu time spent up to now is      145.2 secs

     total energy              =    -345.31820105 Ry
     estimated scf accuracy    <       0.00062071 Ry

     iteration # 20     ecut=    50.00 Ry     beta= 0.30
     Davidson diagonalization with overlap
     ethr =  1.72E-06,  avg # of iterations =  1.1

     total cpu time spent up to now is      150.3 secs

     total energy              =    -345.31816583 Ry
     estimated scf accuracy    <       0.00056180 Ry

     iteration # 21     ecut=    50.00 Ry     beta= 0.30
     Davidson diagonalization with overlap
     ethr =  1.56E-06,  avg # of iterations =  1.2

     total cpu time spent up to now is      155.5 secs

     total energy              =    -345.31815129 Ry
     estimated scf accuracy    <       0.00040823 Ry

     iteration # 22     ecut=    50.00 Ry     beta= 0.30
     Davidson diagonalization with overlap
     ethr =  1.13E-06,  avg # of iterations =  1.1

     total cpu time spent up to now is      160.8 secs

     total energy              =    -345.31801604 Ry
     estimated scf accuracy    <       0.00031293 Ry

     iteration # 23     ecut=    50.00 Ry     beta= 0.30
     Davidson diagonalization with overlap
     ethr =  8.69E-07,  avg # of iterations =  6.5

     total cpu time spent up to now is      169.1 secs

     total energy              =    -345.31810149 Ry
     estimated scf accuracy    <       0.00006121 Ry

     iteration # 24     ecut=    50.00 Ry     beta= 0.30
     Davidson diagonalization with overlap
     ethr =  1.70E-07,  avg # of iterations =  6.3

     total cpu time spent up to now is      176.8 secs

     total energy              =    -345.31811686 Ry
     estimated scf accuracy    <       0.00000267 Ry

     iteration # 25     ecut=    50.00 Ry     beta= 0.30
     Davidson diagonalization with overlap
     ethr =  7.43E-09,  avg # of iterations =  5.3

     total cpu time spent up to now is      185.3 secs

     total energy              =    -345.31811794 Ry
     estimated scf accuracy    <       0.00000100 Ry

     iteration # 26     ecut=    50.00 Ry     beta= 0.30
     Davidson diagonalization with overlap
     ethr =  2.77E-09,  avg # of iterations =  4.2

     total cpu time spent up to now is      191.9 secs

     total energy              =    -345.31811799 Ry
     estimated scf accuracy    <       0.00000020 Ry

     iteration # 27     ecut=    50.00 Ry     beta= 0.30
     Davidson diagonalization with overlap
     ethr =  5.55E-10,  avg # of iterations =  8.4

     total cpu time spent up to now is      203.9 secs

     total energy              =    -345.31811807 Ry
     estimated scf accuracy    <       0.00000057 Ry

     iteration # 28     ecut=    50.00 Ry     beta= 0.30
     Davidson diagonalization with overlap
     ethr =  5.55E-10,  avg # of iterations =  5.6

     total cpu time spent up to now is      212.0 secs

     total energy              =    -345.31811811 Ry
     estimated scf accuracy    <       0.00000005 Ry

     iteration # 29     ecut=    50.00 Ry     beta= 0.30
     Davidson diagonalization with overlap
     ethr =  1.39E-10,  avg # of iterations =  6.1

     total cpu time spent up to now is      221.0 secs

     total energy              =    -345.31811813 Ry
     estimated scf accuracy    <       0.00000003 Ry

     iteration # 30     ecut=    50.00 Ry     beta= 0.30
     Davidson diagonalization with overlap
     ethr =  7.19E-11,  avg # of iterations =  1.6

     total cpu time spent up to now is      226.5 secs

     total energy              =    -345.31811813 Ry
     estimated scf accuracy    <       0.00000001 Ry

     iteration # 31     ecut=    50.00 Ry     beta= 0.30
     Davidson diagonalization with overlap
     ethr =  3.14E-11,  avg # of iterations =  5.7

     total cpu time spent up to now is      235.2 secs

     End of self-consistent calculation

     Number of k-points >= 100: set verbosity='high' to print the bands.

     highest occupied level (ev):     5.2050

!    total energy              =    -345.31811813 Ry
     estimated scf accuracy    <          5.7E-09 Ry

     The total energy is the sum of the following terms:
     one-electron contribution =    -279.99981395 Ry
     hartree contribution      =     170.94010930 Ry
     xc contribution           =    -112.40708794 Ry
     ewald contribution        =    -123.85132554 Ry

     convergence has been achieved in  31 iterations

     Forces acting on atoms (cartesian axes, Ry/au):

     atom    1 type  1   force =    30.55779700   12.68437256  -15.66458518
     atom    2 type  1   force =    -3.96433203   -1.52490314    1.65203303
     atom    3 type  2   force =   -30.56015808  -12.68687074   15.67480618
     atom    4 type  2   force =     3.96669311    1.52740133   -1.66225403
     The non-local contrib.  to forces
     atom    1 type  1   force =   -13.71008978   -5.68991947    6.90917782
     atom    2 type  1   force =    -0.39056633   -0.12626677    0.13360739
     atom    3 type  2   force =     3.88269963    1.60726293   -2.05997263
     atom    4 type  2   force =    -0.94023862   -0.41751355    0.58181220
     The ionic contribution  to forces
     atom    1 type  1   force =    70.88186348   29.18975080  -32.13234122
     atom    2 type  1   force =   -22.92981419   -8.74232873    5.80263017
     atom    3 type  2   force =   -71.88469172  -30.00920183   38.74902067
     atom    4 type  2   force =    23.93264244    9.56177976  -12.41930962
     The local contribution  to forces
     atom    1 type  1   force =   -25.63493963  -10.40896743    9.05744737
     atom    2 type  1   force =    19.04971763    7.22434394   -4.15761350
     atom    3 type  2   force =    37.37414004   15.68688787  -20.97940493
     atom    4 type  2   force =   -19.01858548   -7.61459750   10.17382404
     The core correction contribution to forces
     atom    1 type  1   force =    -0.97909553   -0.40651298    0.50116015
     atom    2 type  1   force =     0.30614743    0.11927509   -0.12648031
     atom    3 type  2   force =     0.06779736    0.02822260   -0.03489579
     atom    4 type  2   force =    -0.00702927   -0.00222984    0.00137725
     The Hubbard contrib.    to forces
     atom    1 type  1   force =     0.00000000    0.00000000    0.00000000
     atom    2 type  1   force =     0.00000000    0.00000000    0.00000000
     atom    3 type  2   force =     0.00000000    0.00000000    0.00000000
     atom    4 type  2   force =     0.00000000    0.00000000    0.00000000
     The SCF correction term to forces
     atom    1 type  1   force =     0.00014737    0.00005680   -0.00007295
     atom    2 type  1   force =     0.00027233    0.00010849   -0.00015437
     atom    3 type  2   force =    -0.00001448   -0.00000715    0.00001522
     atom    4 type  2   force =    -0.00000706   -0.00000238   -0.00000155

     Total force =    52.175015     Total SCF correction =     0.000375

     Writing all to output data dir ./ZnO_ANN.save/

     init_run     :      3.92s CPU      4.02s WALL (       1 calls)
     electrons    :    226.72s CPU    230.75s WALL (       1 calls)
     forces       :      1.43s CPU      1.44s WALL (       1 calls)

     Called by init_run:
     wfcinit      :      2.88s CPU      2.94s WALL (       1 calls)
     potinit      :      0.36s CPU      0.37s WALL (       1 calls)
     hinit0       :      0.58s CPU      0.59s WALL (       1 calls)

     Called by electrons:
     c_bands      :    198.65s CPU    202.06s WALL (      31 calls)
     sum_band     :     25.10s CPU     25.64s WALL (      31 calls)
     v_of_rho     :      0.64s CPU      0.68s WALL (      32 calls)
     newd         :      2.24s CPU      2.28s WALL (      32 calls)
     mix_rho      :      0.10s CPU      0.11s WALL (      31 calls)

     Called by c_bands:
     init_us_2    :      2.10s CPU      2.14s WALL (    7168 calls)
     init_us_2:cp :      2.08s CPU      2.12s WALL (    7168 calls)
     cegterg      :    192.05s CPU    195.36s WALL (    3472 calls)

     Called by *egterg:
     cdiaghg      :     19.40s CPU     19.53s WALL (   17168 calls)
     h_psi        :    111.75s CPU    114.29s WALL (   17280 calls)
     s_psi        :     16.26s CPU     16.36s WALL (   17280 calls)
     g_psi        :      0.40s CPU      0.41s WALL (   13696 calls)

     Called by h_psi:
     h_psi:calbec :     17.04s CPU     17.55s WALL (   17280 calls)
     vloc_psi     :     77.96s CPU     79.89s WALL (   17280 calls)
     add_vuspsi   :     16.34s CPU     16.45s WALL (   17280 calls)

     General routines
     calbec       :     23.69s CPU     24.36s WALL (   21200 calls)
     fft          :      0.60s CPU      0.66s WALL (     425 calls)
     ffts         :      0.13s CPU      0.14s WALL (      63 calls)
     fftw         :     77.68s CPU     79.60s WALL (  412028 calls)
     interpolate  :      0.15s CPU      0.16s WALL (      32 calls)

     Parallel routines

     PWSCF        :   3m52.83s CPU   3m57.27s WALL


   This run was terminated on:  19:55: 8  24Jun2025            

=------------------------------------------------------------------------------=
   JOB DONE.
=------------------------------------------------------------------------------=
Note: The following floating-point exceptions are signalling: IEEE_INVALID_FLAG
