
     Program PWSCF v.7.2 starts on 24Jun2025 at 16:44:39 

     This program is part of the open-source Quantum ESPRESSO suite
     for quantum simulation of materials; please cite
         "P. Giannozzi et al., J. Phys.:Condens. Matter 21 395502 (2009);
         "P. Giannozzi et al., J. Phys.:Condens. Matter 29 465901 (2017);
         "P. Giannozzi et al., J. Chem. Phys. 152 154105 (2020);
          URL http://www.quantum-espresso.org", 
     in publications or presentations arising from this work. More details at
     http://www.quantum-espresso.org/quote

     Parallel version (MPI), running on     8 processors

     MPI processes distributed on     1 nodes
     91067 MiB available memory on the printing compute node when the environment starts

     Reading input from /home/jvc/QEspresso7.2/ZnO_DataBase/scf_025_NOSYM.in/scf-6.18-1.45-0.25-2.in

     Current dimensions of program PWSCF are:
     Max number of different atomic species (ntypx) = 10
     Max number of k-points (npk) =  40000
     Max angular momentum in pseudopotentials (lmaxx) =  4
     file Zn.upf: wavefunction(s)  3D renormalized

     R & G space division:  proc/nbgrp/npool/nimage =       8
     Subspace diagonalization in iterative solution of the eigenvalue problem:
     a serial algorithm will be used


     Parallelization info
     --------------------
     sticks:   dense  smooth     PW     G-vecs:    dense   smooth      PW
     Min         130      64     20                 5518     1944     332
     Max         131      66     21                 5522     1946     337
     Sum        1045     517    163                44163    15561    2671

     Using Slab Decomposition



     bravais-lattice index     =            0
     lattice parameter (alat)  =       6.1788  a.u.
     unit-cell volume          =     326.8643 (a.u.)^3
     number of atoms/cell      =            4
     number of atomic types    =            2
     number of electrons       =        36.00
     number of Kohn-Sham states=           18
     kinetic-energy cutoff     =      50.0000  Ry
     charge density cutoff     =     400.0000  Ry
     scf convergence threshold =      1.0E-08
     mixing beta               =       0.3000
     number of iterations used =            8  plain     mixing
     Exchange-correlation= PBE
                           (   1   4   3   4   0   0   0)

     celldm(1)=   6.178821  celldm(2)=   0.000000  celldm(3)=   0.000000
     celldm(4)=   0.000000  celldm(5)=   0.000000  celldm(6)=   0.000000

     crystal axes: (cart. coord. in units of alat)
               a(1) = (   1.000000   0.000000   0.000000 )  
               a(2) = (  -0.500000   0.866025   0.000000 )  
               a(3) = (   0.000000   0.000000   1.600000 )  

     reciprocal axes: (cart. coord. in units 2 pi/alat)
               b(1) = (  1.000000  0.577350 -0.000000 )  
               b(2) = (  0.000000  1.154701  0.000000 )  
               b(3) = (  0.000000 -0.000000  0.625000 )  


     PseudoPot. # 1 for Zn read from file:
     ./pseudos/Zn.upf
     MD5 check sum: 7f56cabf9682ed8c977c2f7d0c5985c5
     Pseudo is Ultrasoft + core correction, Zval = 12.0
     Generated using &quot;atomic&quot; code by A. Dal Corso  v.6.2.2
     Using radial grid of 1201 points,  6 beta functions with: 
                l(1) =   0
                l(2) =   0
                l(3) =   1
                l(4) =   1
                l(5) =   2
                l(6) =   2
     Q(r) pseudized with 0 coefficients 


     PseudoPot. # 2 for O  read from file:
     ./pseudos/O.upf
     MD5 check sum: 91400c9766925bcf19f520983a725ff0
     Pseudo is Ultrasoft + core correction, Zval =  6.0
     Generated using &quot;atomic&quot; code by A. Dal Corso  v.6.3MaX
     Using radial grid of 1095 points,  4 beta functions with: 
                l(1) =   0
                l(2) =   0
                l(3) =   1
                l(4) =   1
     Q(r) pseudized with 0 coefficients 


     atomic species   valence    mass     pseudopotential
        Zn            12.00    63.38000     Zn( 1.00)
        O              6.00    15.99900     O ( 1.00)

     No symmetry found



   Cartesian axes

     site n.     atom                  positions (alat units)
         1           Zn  tau(   1) = (   0.2439914   0.3857907   0.7713517  )
         2           Zn  tau(   2) = (   0.0780556   0.4875679  -0.3886516  )
         3           O   tau(   3) = (   0.6298887   0.1525774   1.7408531  )
         4           O   tau(   4) = (   0.2413689   0.5233617   0.3166198  )

     number of k points=   112

     Number of k-points >= 100: set verbosity='high' to print them.

     Dense  grid:    44163 G-vectors     FFT dimensions: (  40,  40,  64)

     Smooth grid:    15561 G-vectors     FFT dimensions: (  27,  27,  45)

     Estimated max dynamical RAM per process >      30.35 MB

     Estimated total dynamical RAM >     242.82 MB

     Check: negative core charge=   -0.000003

     Initial potential from superposition of free atoms

     starting charge      35.9925, renormalised to      36.0000
     Starting wfcs are   26 randomized atomic wfcs

     total cpu time spent up to now is        4.0 secs

     Self-consistent Calculation

     iteration #  1     ecut=    50.00 Ry     beta= 0.30
     Davidson diagonalization with overlap
     ethr =  1.00E-02,  avg # of iterations =  2.0

     total cpu time spent up to now is        9.2 secs

     total energy              =    -360.29251744 Ry
     estimated scf accuracy    <       0.54217490 Ry

     iteration #  2     ecut=    50.00 Ry     beta= 0.30
     Davidson diagonalization with overlap
     ethr =  1.51E-03,  avg # of iterations =  5.3

     total cpu time spent up to now is       16.1 secs

     total energy              =    -360.44819275 Ry
     estimated scf accuracy    <       0.08824787 Ry

     iteration #  3     ecut=    50.00 Ry     beta= 0.30
     Davidson diagonalization with overlap
     ethr =  2.45E-04,  avg # of iterations =  5.1

     total cpu time spent up to now is       23.1 secs

     total energy              =    -360.45655766 Ry
     estimated scf accuracy    <       0.03259367 Ry

     iteration #  4     ecut=    50.00 Ry     beta= 0.30
     Davidson diagonalization with overlap
     c_bands:  1 eigenvalues not converged
     ethr =  9.05E-05,  avg # of iterations =  6.1

     total cpu time spent up to now is       30.4 secs

     total energy              =    -360.46182335 Ry
     estimated scf accuracy    <       0.02010532 Ry

     iteration #  5     ecut=    50.00 Ry     beta= 0.30
     Davidson diagonalization with overlap
     ethr =  5.58E-05,  avg # of iterations =  6.1

     total cpu time spent up to now is       37.6 secs

     total energy              =    -360.46703473 Ry
     estimated scf accuracy    <       0.00703539 Ry

     iteration #  6     ecut=    50.00 Ry     beta= 0.30
     Davidson diagonalization with overlap
     ethr =  1.95E-05,  avg # of iterations =  4.9

     total cpu time spent up to now is       43.8 secs

     total energy              =    -360.46801226 Ry
     estimated scf accuracy    <       0.00052337 Ry

     iteration #  7     ecut=    50.00 Ry     beta= 0.30
     Davidson diagonalization with overlap
     c_bands:  1 eigenvalues not converged
     c_bands:  1 eigenvalues not converged
     c_bands:  1 eigenvalues not converged
     c_bands:  1 eigenvalues not converged
     ethr =  1.45E-06,  avg # of iterations = 13.5

     total cpu time spent up to now is       58.2 secs

     total energy              =    -360.46892031 Ry
     estimated scf accuracy    <       0.00312124 Ry

     iteration #  8     ecut=    50.00 Ry     beta= 0.30
     Davidson diagonalization with overlap
     ethr =  1.45E-06,  avg # of iterations =  5.1

     total cpu time spent up to now is       64.5 secs

     total energy              =    -360.46882669 Ry
     estimated scf accuracy    <       0.00113898 Ry

     iteration #  9     ecut=    50.00 Ry     beta= 0.30
     Davidson diagonalization with overlap
     ethr =  1.45E-06,  avg # of iterations =  4.3

     total cpu time spent up to now is       70.6 secs

     total energy              =    -360.46874065 Ry
     estimated scf accuracy    <       0.00037114 Ry

     iteration # 10     ecut=    50.00 Ry     beta= 0.30
     Davidson diagonalization with overlap
     c_bands:  1 eigenvalues not converged
     c_bands:  1 eigenvalues not converged
     ethr =  1.03E-06,  avg # of iterations =  8.2

     total cpu time spent up to now is       79.2 secs

     total energy              =    -360.46899131 Ry
     estimated scf accuracy    <       0.00052125 Ry

     iteration # 11     ecut=    50.00 Ry     beta= 0.30
     Davidson diagonalization with overlap
     ethr =  1.03E-06,  avg # of iterations =  1.1

     total cpu time spent up to now is       83.8 secs

     total energy              =    -360.46885946 Ry
     estimated scf accuracy    <       0.00040179 Ry

     iteration # 12     ecut=    50.00 Ry     beta= 0.30
     Davidson diagonalization with overlap
     ethr =  1.03E-06,  avg # of iterations =  5.2

     total cpu time spent up to now is       90.3 secs

     total energy              =    -360.46896137 Ry
     estimated scf accuracy    <       0.00001295 Ry

     iteration # 13     ecut=    50.00 Ry     beta= 0.30
     Davidson diagonalization with overlap
     ethr =  3.60E-08,  avg # of iterations =  8.1

     total cpu time spent up to now is      100.3 secs

     total energy              =    -360.46897348 Ry
     estimated scf accuracy    <       0.00005452 Ry

     iteration # 14     ecut=    50.00 Ry     beta= 0.30
     Davidson diagonalization with overlap
     ethr =  3.60E-08,  avg # of iterations =  1.1

     total cpu time spent up to now is      104.9 secs

     total energy              =    -360.46901171 Ry
     estimated scf accuracy    <       0.00004798 Ry

     iteration # 15     ecut=    50.00 Ry     beta= 0.30
     Davidson diagonalization with overlap
     c_bands:  2 eigenvalues not converged
     c_bands:  1 eigenvalues not converged
     c_bands:  1 eigenvalues not converged
     c_bands:  1 eigenvalues not converged
     c_bands:  1 eigenvalues not converged
     c_bands:  1 eigenvalues not converged
     ethr =  3.60E-08,  avg # of iterations = 11.6

     total cpu time spent up to now is      116.7 secs

     total energy              =    -360.46894154 Ry
     estimated scf accuracy    <       0.00043743 Ry

     iteration # 16     ecut=    50.00 Ry     beta= 0.30
     Davidson diagonalization with overlap
     c_bands:  1 eigenvalues not converged
     c_bands:  1 eigenvalues not converged
     c_bands:  1 eigenvalues not converged
     ethr =  3.60E-08,  avg # of iterations = 11.4

     total cpu time spent up to now is      128.2 secs

     total energy              =    -360.46895613 Ry
     estimated scf accuracy    <       0.00004124 Ry

     iteration # 17     ecut=    50.00 Ry     beta= 0.30
     Davidson diagonalization with overlap
     c_bands:  1 eigenvalues not converged
     c_bands:  1 eigenvalues not converged
     ethr =  3.60E-08,  avg # of iterations =  9.6

     total cpu time spent up to now is      137.6 secs

     total energy              =    -360.46896976 Ry
     estimated scf accuracy    <       0.00000765 Ry

     iteration # 18     ecut=    50.00 Ry     beta= 0.30
     Davidson diagonalization with overlap
     ethr =  2.13E-08,  avg # of iterations =  1.7

     total cpu time spent up to now is      142.3 secs

     total energy              =    -360.46896621 Ry
     estimated scf accuracy    <       0.00000943 Ry

     iteration # 19     ecut=    50.00 Ry     beta= 0.30
     Davidson diagonalization with overlap
     ethr =  2.13E-08,  avg # of iterations =  4.6

     total cpu time spent up to now is      148.3 secs

     total energy              =    -360.46896762 Ry
     estimated scf accuracy    <       0.00000024 Ry

     iteration # 20     ecut=    50.00 Ry     beta= 0.30
     Davidson diagonalization with overlap
     c_bands:  2 eigenvalues not converged
     ethr =  6.77E-10,  avg # of iterations = 10.9

     total cpu time spent up to now is      159.8 secs

     total energy              =    -360.46896805 Ry
     estimated scf accuracy    <       0.00000008 Ry

     iteration # 21     ecut=    50.00 Ry     beta= 0.30
     Davidson diagonalization with overlap
     ethr =  2.24E-10,  avg # of iterations =  8.3

     total cpu time spent up to now is      167.6 secs

     total energy              =    -360.46896807 Ry
     estimated scf accuracy    <       0.00000009 Ry

     iteration # 22     ecut=    50.00 Ry     beta= 0.30
     Davidson diagonalization with overlap
     ethr =  2.24E-10,  avg # of iterations =  1.7

     total cpu time spent up to now is      172.4 secs

     total energy              =    -360.46896804 Ry
     estimated scf accuracy    <       0.00000005 Ry

     iteration # 23     ecut=    50.00 Ry     beta= 0.30
     Davidson diagonalization with overlap
     c_bands:  1 eigenvalues not converged
     c_bands:  1 eigenvalues not converged
     ethr =  1.45E-10,  avg # of iterations =  8.8

     total cpu time spent up to now is      181.6 secs

     total energy              =    -360.46896806 Ry
     estimated scf accuracy    <       0.00000014 Ry

     iteration # 24     ecut=    50.00 Ry     beta= 0.30
     Davidson diagonalization with overlap
     ethr =  1.45E-10,  avg # of iterations =  4.9

     total cpu time spent up to now is      187.4 secs

     total energy              =    -360.46896806 Ry
     estimated scf accuracy    <       0.00000004 Ry

     iteration # 25     ecut=    50.00 Ry     beta= 0.30
     Davidson diagonalization with overlap
     ethr =  9.87E-11,  avg # of iterations =  4.0

     total cpu time spent up to now is      193.3 secs

     End of self-consistent calculation

     Number of k-points >= 100: set verbosity='high' to print the bands.

     highest occupied level (ev):     8.8316

!    total energy              =    -360.46896806 Ry
     estimated scf accuracy    <          6.6E-09 Ry

     The total energy is the sum of the following terms:
     one-electron contribution =    -172.70966370 Ry
     hartree contribution      =     125.91863395 Ry
     xc contribution           =    -109.46533949 Ry
     ewald contribution        =    -204.21259882 Ry

     convergence has been achieved in  25 iterations

     Forces acting on atoms (cartesian axes, Ry/au):

     atom    1 type  1   force =     0.44596325   -0.38181748   -0.82576057
     atom    2 type  1   force =    -0.46170175    0.27720593    1.27504079
     atom    3 type  2   force =    -0.03929295   -0.05667290   -0.01529722
     atom    4 type  2   force =     0.05503145    0.16128446   -0.43398300
     The non-local contrib.  to forces
     atom    1 type  1   force =    -0.09052520   -0.17708484    0.88234498
     atom    2 type  1   force =     0.08815765    0.03285689   -0.19167850
     atom    3 type  2   force =    -0.07222168   -0.32265241   -0.14100280
     atom    4 type  2   force =     0.12603681    0.17738980    0.60486448
     The ionic contribution  to forces
     atom    1 type  1   force =     6.68130413   -7.23003360  -10.03073753
     atom    2 type  1   force =    -7.48664924    3.94881936   20.44411996
     atom    3 type  2   force =     0.89680241    0.97548935   -1.78342659
     atom    4 type  2   force =    -0.09145731    2.30572489   -8.62995584
     The local contribution  to forces
     atom    1 type  1   force =    -6.11440142    6.97472112    8.33474832
     atom    2 type  1   force =     6.90847227   -3.68514755  -18.90529750
     atom    3 type  2   force =    -0.86413176   -0.71273524    1.90744941
     atom    4 type  2   force =     0.02144340   -2.31883563    7.59387167
     The core correction contribution to forces
     atom    1 type  1   force =    -0.03041728    0.05061514   -0.01240652
     atom    2 type  1   force =     0.02833593   -0.01933017   -0.07200030
     atom    3 type  2   force =     0.00022912    0.00322290    0.00180715
     atom    4 type  2   force =    -0.00099134   -0.00302599   -0.00271115
     The Hubbard contrib.    to forces
     atom    1 type  1   force =     0.00000000    0.00000000    0.00000000
     atom    2 type  1   force =     0.00000000    0.00000000    0.00000000
     atom    3 type  2   force =     0.00000000    0.00000000    0.00000000
     atom    4 type  2   force =     0.00000000    0.00000000    0.00000000
     The SCF correction term to forces
     atom    1 type  1   force =     0.00000059   -0.00004151    0.00031166
     atom    2 type  1   force =    -0.00002078    0.00000119   -0.00008138
     atom    3 type  2   force =     0.00002653   -0.00000370   -0.00010290
     atom    4 type  2   force =    -0.00000253    0.00002519   -0.00003067

     Total force =     1.778949     Total SCF correction =     0.000345

     Writing all to output data dir ./ZnO_ANN.save/

     init_run     :      3.43s CPU      3.52s WALL (       1 calls)
     electrons    :    185.95s CPU    189.36s WALL (       1 calls)
     forces       :      1.13s CPU      1.14s WALL (       1 calls)

     Called by init_run:
     wfcinit      :      2.54s CPU      2.60s WALL (       1 calls)
     potinit      :      0.26s CPU      0.27s WALL (       1 calls)
     hinit0       :      0.54s CPU      0.55s WALL (       1 calls)

     Called by electrons:
     c_bands      :    166.04s CPU    168.99s WALL (      25 calls)
     sum_band     :     18.00s CPU     18.41s WALL (      25 calls)
     v_of_rho     :      0.36s CPU      0.39s WALL (      26 calls)
     newd         :      1.51s CPU      1.53s WALL (      26 calls)
     mix_rho      :      0.06s CPU      0.07s WALL (      25 calls)

     Called by c_bands:
     init_us_2    :      1.31s CPU      1.33s WALL (    5824 calls)
     init_us_2:cp :      1.29s CPU      1.31s WALL (    5824 calls)
     cegterg      :    162.00s CPU    164.87s WALL (    2800 calls)

     Called by *egterg:
     cdiaghg      :     22.24s CPU     22.44s WALL (   20014 calls)
     h_psi        :     93.47s CPU     95.59s WALL (   20126 calls)
     s_psi        :     12.00s CPU     12.11s WALL (   20126 calls)
     g_psi        :      0.31s CPU      0.32s WALL (   17214 calls)

     Called by h_psi:
     h_psi:calbec :     12.47s CPU     12.90s WALL (   20126 calls)
     vloc_psi     :     68.62s CPU     70.18s WALL (   20126 calls)
     add_vuspsi   :     12.02s CPU     12.15s WALL (   20126 calls)

     General routines
     calbec       :     16.90s CPU     17.45s WALL (   23374 calls)
     fft          :      0.54s CPU      0.57s WALL (     347 calls)
     ffts         :      0.08s CPU      0.08s WALL (      51 calls)
     fftw         :     71.24s CPU     72.87s WALL (  363900 calls)
     interpolate  :      0.09s CPU      0.09s WALL (      26 calls)

     Parallel routines

     PWSCF        :   3m11.21s CPU   3m14.88s WALL


   This run was terminated on:  16:47:54  24Jun2025            

=------------------------------------------------------------------------------=
   JOB DONE.
=------------------------------------------------------------------------------=
Note: The following floating-point exceptions are signalling: IEEE_INVALID_FLAG
