
     Program PWSCF v.7.2 starts on 24Jun2025 at 21:10:54 

     This program is part of the open-source Quantum ESPRESSO suite
     for quantum simulation of materials; please cite
         "P. Giannozzi et al., J. Phys.:Condens. Matter 21 395502 (2009);
         "P. Giannozzi et al., J. Phys.:Condens. Matter 29 465901 (2017);
         "P. Giannozzi et al., J. Chem. Phys. 152 154105 (2020);
          URL http://www.quantum-espresso.org", 
     in publications or presentations arising from this work. More details at
     http://www.quantum-espresso.org/quote

     Parallel version (MPI), running on     8 processors

     MPI processes distributed on     1 nodes
     90586 MiB available memory on the printing compute node when the environment starts

     Reading input from /home/jvc/QEspresso7.2/ZnO_DataBase/scf_025_NOSYM.in/scf-6.80-1.71-0.25-4.in

     Current dimensions of program PWSCF are:
     Max number of different atomic species (ntypx) = 10
     Max number of k-points (npk) =  40000
     Max angular momentum in pseudopotentials (lmaxx) =  4
     file Zn.upf: wavefunction(s)  3D renormalized

     R & G space division:  proc/nbgrp/npool/nimage =       8
     Subspace diagonalization in iterative solution of the eigenvalue problem:
     a serial algorithm will be used


     Parallelization info
     --------------------
     sticks:   dense  smooth     PW     G-vecs:    dense   smooth      PW
     Min         160      81     24                 7354     2595     429
     Max         162      82     26                 7355     2598     432
     Sum        1285     649    199                58833    20773    3441

     Using Slab Decomposition



     bravais-lattice index     =            0
     lattice parameter (alat)  =       6.7967  a.u.
     unit-cell volume          =     435.0564 (a.u.)^3
     number of atoms/cell      =            4
     number of atomic types    =            2
     number of electrons       =        36.00
     number of Kohn-Sham states=           18
     kinetic-energy cutoff     =      50.0000  Ry
     charge density cutoff     =     400.0000  Ry
     scf convergence threshold =      1.0E-08
     mixing beta               =       0.3000
     number of iterations used =            8  plain     mixing
     Exchange-correlation= PBE
                           (   1   4   3   4   0   0   0)

     celldm(1)=   6.796704  celldm(2)=   0.000000  celldm(3)=   0.000000
     celldm(4)=   0.000000  celldm(5)=   0.000000  celldm(6)=   0.000000

     crystal axes: (cart. coord. in units of alat)
               a(1) = (   1.000000   0.000000   0.000000 )  
               a(2) = (  -0.500000   0.866025   0.000000 )  
               a(3) = (   0.000000   0.000000   1.600000 )  

     reciprocal axes: (cart. coord. in units 2 pi/alat)
               b(1) = (  1.000000  0.577350 -0.000000 )  
               b(2) = (  0.000000  1.154701  0.000000 )  
               b(3) = (  0.000000 -0.000000  0.625000 )  


     PseudoPot. # 1 for Zn read from file:
     ./pseudos/Zn.upf
     MD5 check sum: 7f56cabf9682ed8c977c2f7d0c5985c5
     Pseudo is Ultrasoft + core correction, Zval = 12.0
     Generated using &quot;atomic&quot; code by A. Dal Corso  v.6.2.2
     Using radial grid of 1201 points,  6 beta functions with: 
                l(1) =   0
                l(2) =   0
                l(3) =   1
                l(4) =   1
                l(5) =   2
                l(6) =   2
     Q(r) pseudized with 0 coefficients 


     PseudoPot. # 2 for O  read from file:
     ./pseudos/O.upf
     MD5 check sum: 91400c9766925bcf19f520983a725ff0
     Pseudo is Ultrasoft + core correction, Zval =  6.0
     Generated using &quot;atomic&quot; code by A. Dal Corso  v.6.3MaX
     Using radial grid of 1095 points,  4 beta functions with: 
                l(1) =   0
                l(2) =   0
                l(3) =   1
                l(4) =   1
     Q(r) pseudized with 0 coefficients 


     atomic species   valence    mass     pseudopotential
        Zn            12.00    63.38000     Zn( 1.00)
        O              6.00    15.99900     O ( 1.00)

     No symmetry found



   Cartesian axes

     site n.     atom                  positions (alat units)
         1           Zn  tau(   1) = (   0.7833968   0.0859336   0.9986801  )
         2           Zn  tau(   2) = (  -0.0197131   0.5392627   0.2724258  )
         3           O   tau(   3) = (   0.7247918   0.2336365   1.7371357  )
         4           O   tau(   4) = (   0.2157445   0.4497244   0.2403984  )

     number of k points=   112

     Number of k-points >= 100: set verbosity='high' to print them.

     Dense  grid:    58833 G-vectors     FFT dimensions: (  45,  45,  72)

     Smooth grid:    20773 G-vectors     FFT dimensions: (  32,  32,  50)

     Estimated max dynamical RAM per process >      39.41 MB

     Estimated total dynamical RAM >     315.24 MB

     Check: negative core charge=   -0.000002

     Initial potential from superposition of free atoms

     starting charge      35.9925, renormalised to      36.0000
     Starting wfcs are   26 randomized atomic wfcs

     total cpu time spent up to now is        4.7 secs

     Self-consistent Calculation

     iteration #  1     ecut=    50.00 Ry     beta= 0.30
     Davidson diagonalization with overlap
     ethr =  1.00E-02,  avg # of iterations =  4.0

     total cpu time spent up to now is       12.9 secs

     total energy              =    -356.51373745 Ry
     estimated scf accuracy    <       1.32178652 Ry

     iteration #  2     ecut=    50.00 Ry     beta= 0.30
     Davidson diagonalization with overlap
     ethr =  3.67E-03,  avg # of iterations =  2.1

     total cpu time spent up to now is       19.4 secs

     total energy              =    -356.40024685 Ry
     estimated scf accuracy    <       0.36446257 Ry

     iteration #  3     ecut=    50.00 Ry     beta= 0.30
     Davidson diagonalization with overlap
     ethr =  1.01E-03,  avg # of iterations =  9.5

     total cpu time spent up to now is       34.3 secs

     total energy              =    -356.81906751 Ry
     estimated scf accuracy    <       1.13036309 Ry

     iteration #  4     ecut=    50.00 Ry     beta= 0.30
     Davidson diagonalization with overlap
     ethr =  1.01E-03,  avg # of iterations =  1.3

     total cpu time spent up to now is       39.8 secs

     total energy              =    -356.45056121 Ry
     estimated scf accuracy    <       0.80889528 Ry

     iteration #  5     ecut=    50.00 Ry     beta= 0.30
     Davidson diagonalization with overlap
     ethr =  1.01E-03,  avg # of iterations =  6.3

     total cpu time spent up to now is       50.5 secs

     total energy              =    -356.83357058 Ry
     estimated scf accuracy    <       0.09884280 Ry

     iteration #  6     ecut=    50.00 Ry     beta= 0.30
     Davidson diagonalization with overlap
     ethr =  2.75E-04,  avg # of iterations =  7.0

     total cpu time spent up to now is       61.0 secs

     total energy              =    -356.75565500 Ry
     estimated scf accuracy    <       0.57068338 Ry

     iteration #  7     ecut=    50.00 Ry     beta= 0.30
     Davidson diagonalization with overlap
     ethr =  2.75E-04,  avg # of iterations =  3.7

     total cpu time spent up to now is       68.1 secs

     total energy              =    -356.65165385 Ry
     estimated scf accuracy    <       0.27245292 Ry

     iteration #  8     ecut=    50.00 Ry     beta= 0.30
     Davidson diagonalization with overlap
     ethr =  2.75E-04,  avg # of iterations =  6.2

     total cpu time spent up to now is       79.0 secs

     total energy              =    -356.73486091 Ry
     estimated scf accuracy    <       0.00949151 Ry

     iteration #  9     ecut=    50.00 Ry     beta= 0.30
     Davidson diagonalization with overlap
     ethr =  2.64E-05,  avg # of iterations =  6.4

     total cpu time spent up to now is       87.4 secs

     total energy              =    -356.73984836 Ry
     estimated scf accuracy    <       0.00973892 Ry

     iteration # 10     ecut=    50.00 Ry     beta= 0.30
     Davidson diagonalization with overlap
     ethr =  2.64E-05,  avg # of iterations =  1.4

     total cpu time spent up to now is       92.9 secs

     total energy              =    -356.73531512 Ry
     estimated scf accuracy    <       0.01426450 Ry

     iteration # 11     ecut=    50.00 Ry     beta= 0.30
     Davidson diagonalization with overlap
     ethr =  2.64E-05,  avg # of iterations =  2.0

     total cpu time spent up to now is       99.1 secs

     total energy              =    -356.73204111 Ry
     estimated scf accuracy    <       0.00556200 Ry

     iteration # 12     ecut=    50.00 Ry     beta= 0.30
     Davidson diagonalization with overlap
     ethr =  1.54E-05,  avg # of iterations =  8.7

     total cpu time spent up to now is      112.0 secs

     total energy              =    -356.74204814 Ry
     estimated scf accuracy    <       0.02063379 Ry

     iteration # 13     ecut=    50.00 Ry     beta= 0.30
     Davidson diagonalization with overlap
     ethr =  1.54E-05,  avg # of iterations =  1.7

     total cpu time spent up to now is      117.8 secs

     total energy              =    -356.74019124 Ry
     estimated scf accuracy    <       0.02447745 Ry

     iteration # 14     ecut=    50.00 Ry     beta= 0.30
     Davidson diagonalization with overlap
     ethr =  1.54E-05,  avg # of iterations =  1.0

     total cpu time spent up to now is      123.1 secs

     total energy              =    -356.73680392 Ry
     estimated scf accuracy    <       0.02151849 Ry

     iteration # 15     ecut=    50.00 Ry     beta= 0.30
     Davidson diagonalization with overlap
     ethr =  1.54E-05,  avg # of iterations =  1.8

     total cpu time spent up to now is      128.9 secs

     total energy              =    -356.73512385 Ry
     estimated scf accuracy    <       0.01435914 Ry

     iteration # 16     ecut=    50.00 Ry     beta= 0.30
     Davidson diagonalization with overlap
     ethr =  1.54E-05,  avg # of iterations =  2.9

     total cpu time spent up to now is      135.4 secs

     total energy              =    -356.73380854 Ry
     estimated scf accuracy    <       0.00715409 Ry

     iteration # 17     ecut=    50.00 Ry     beta= 0.30
     Davidson diagonalization with overlap
     ethr =  1.54E-05,  avg # of iterations =  5.5

     total cpu time spent up to now is      143.7 secs

     total energy              =    -356.73553869 Ry
     estimated scf accuracy    <       0.00027186 Ry

     iteration # 18     ecut=    50.00 Ry     beta= 0.30
     Davidson diagonalization with overlap
     c_bands:  1 eigenvalues not converged
     ethr =  7.55E-07,  avg # of iterations = 12.5

     total cpu time spent up to now is      161.7 secs

     total energy              =    -356.73741415 Ry
     estimated scf accuracy    <       0.00681844 Ry

     iteration # 19     ecut=    50.00 Ry     beta= 0.30
     Davidson diagonalization with overlap
     ethr =  7.55E-07,  avg # of iterations =  4.7

     total cpu time spent up to now is      169.6 secs

     total energy              =    -356.73552865 Ry
     estimated scf accuracy    <       0.00896969 Ry

     iteration # 20     ecut=    50.00 Ry     beta= 0.30
     Davidson diagonalization with overlap
     ethr =  7.55E-07,  avg # of iterations =  8.7

     total cpu time spent up to now is      182.9 secs

     total energy              =    -356.73534334 Ry
     estimated scf accuracy    <       0.00245055 Ry

     iteration # 21     ecut=    50.00 Ry     beta= 0.30
     Davidson diagonalization with overlap
     ethr =  7.55E-07,  avg # of iterations =  6.9

     total cpu time spent up to now is      193.2 secs

     total energy              =    -356.73551953 Ry
     estimated scf accuracy    <       0.00030088 Ry

     iteration # 22     ecut=    50.00 Ry     beta= 0.30
     Davidson diagonalization with overlap
     ethr =  7.55E-07,  avg # of iterations =  1.7

     total cpu time spent up to now is      198.9 secs

     total energy              =    -356.73545399 Ry
     estimated scf accuracy    <       0.00018076 Ry

     iteration # 23     ecut=    50.00 Ry     beta= 0.30
     Davidson diagonalization with overlap
     ethr =  5.02E-07,  avg # of iterations =  6.3

     total cpu time spent up to now is      208.5 secs

     total energy              =    -356.73553166 Ry
     estimated scf accuracy    <       0.00006852 Ry

     iteration # 24     ecut=    50.00 Ry     beta= 0.30
     Davidson diagonalization with overlap
     ethr =  1.90E-07,  avg # of iterations =  2.7

     total cpu time spent up to now is      215.0 secs

     total energy              =    -356.73552997 Ry
     estimated scf accuracy    <       0.00001738 Ry

     iteration # 25     ecut=    50.00 Ry     beta= 0.30
     Davidson diagonalization with overlap
     ethr =  4.83E-08,  avg # of iterations =  7.2

     total cpu time spent up to now is      226.0 secs

     total energy              =    -356.73555111 Ry
     estimated scf accuracy    <       0.00002534 Ry

     iteration # 26     ecut=    50.00 Ry     beta= 0.30
     Davidson diagonalization with overlap
     ethr =  4.83E-08,  avg # of iterations =  1.0

     total cpu time spent up to now is      231.3 secs

     total energy              =    -356.73555058 Ry
     estimated scf accuracy    <       0.00002779 Ry

     iteration # 27     ecut=    50.00 Ry     beta= 0.30
     Davidson diagonalization with overlap
     ethr =  4.83E-08,  avg # of iterations =  1.2

     total cpu time spent up to now is      236.6 secs

     total energy              =    -356.73554771 Ry
     estimated scf accuracy    <       0.00002878 Ry

     iteration # 28     ecut=    50.00 Ry     beta= 0.30
     Davidson diagonalization with overlap
     ethr =  4.83E-08,  avg # of iterations =  1.0

     total cpu time spent up to now is      241.9 secs

     total energy              =    -356.73554316 Ry
     estimated scf accuracy    <       0.00002305 Ry

     iteration # 29     ecut=    50.00 Ry     beta= 0.30
     Davidson diagonalization with overlap
     ethr =  4.83E-08,  avg # of iterations =  2.0

     total cpu time spent up to now is      247.8 secs

     total energy              =    -356.73554172 Ry
     estimated scf accuracy    <       0.00001113 Ry

     iteration # 30     ecut=    50.00 Ry     beta= 0.30
     Davidson diagonalization with overlap
     ethr =  3.09E-08,  avg # of iterations =  2.9

     total cpu time spent up to now is      254.2 secs

     total energy              =    -356.73554135 Ry
     estimated scf accuracy    <       0.00000418 Ry

     iteration # 31     ecut=    50.00 Ry     beta= 0.30
     Davidson diagonalization with overlap
     ethr =  1.16E-08,  avg # of iterations =  6.9

     total cpu time spent up to now is      264.2 secs

     total energy              =    -356.73554356 Ry
     estimated scf accuracy    <       0.00000178 Ry

     iteration # 32     ecut=    50.00 Ry     beta= 0.30
     Davidson diagonalization with overlap
     ethr =  4.96E-09,  avg # of iterations =  5.0

     total cpu time spent up to now is      271.9 secs

     End of self-consistent calculation

     Number of k-points >= 100: set verbosity='high' to print the bands.

     highest occupied level (ev):     5.9597

!    total energy              =    -356.73554393 Ry
     estimated scf accuracy    <          7.4E-09 Ry

     The total energy is the sum of the following terms:
     one-electron contribution =    -264.38243034 Ry
     hartree contribution      =     165.94273921 Ry
     xc contribution           =    -110.45373458 Ry
     ewald contribution        =    -147.84211822 Ry

     convergence has been achieved in  32 iterations

     Forces acting on atoms (cartesian axes, Ry/au):

     atom    1 type  1   force =    -0.00061076    0.00227568    0.01619849
     atom    2 type  1   force =   -10.91817573    4.54691621    1.64976114
     atom    3 type  2   force =    -0.28043672   -0.28999807   -0.17150437
     atom    4 type  2   force =    11.19922321   -4.25919382   -1.49445526
     The non-local contrib.  to forces
     atom    1 type  1   force =    -0.03516798    0.02719170    0.10840764
     atom    2 type  1   force =     2.75026463   -0.89238506   -0.30319288
     atom    3 type  2   force =     0.76353612    1.00463337    0.44866914
     atom    4 type  2   force =    -1.00752506    0.50767336    0.32622102
     The ionic contribution  to forces
     atom    1 type  1   force =     0.18668224   -0.41425935    2.91928935
     atom    2 type  1   force =   -34.44535156   22.42465192   10.19065110
     atom    3 type  2   force =    -6.63948378   -7.25496562   -7.85377771
     atom    4 type  2   force =    40.89815310  -14.75542695   -5.25616274
     The local contribution  to forces
     atom    1 type  1   force =    -0.15284472    0.38975858   -3.00911298
     atom    2 type  1   force =    20.29075525  -16.73623428   -8.14625985
     atom    3 type  2   force =     5.60055051    5.96742909    7.23615155
     atom    4 type  2   force =   -28.66847411    9.98213808    3.43446515
     The core correction contribution to forces
     atom    1 type  1   force =     0.00073454   -0.00035085   -0.00232552
     atom    2 type  1   force =     0.48595919   -0.24915283   -0.09160945
     atom    3 type  2   force =    -0.00498220   -0.00713779   -0.00260975
     atom    4 type  2   force =    -0.02290082    0.00633050    0.00091562
     The Hubbard contrib.    to forces
     atom    1 type  1   force =     0.00000000    0.00000000    0.00000000
     atom    2 type  1   force =     0.00000000    0.00000000    0.00000000
     atom    3 type  2   force =     0.00000000    0.00000000    0.00000000
     atom    4 type  2   force =     0.00000000    0.00000000    0.00000000
     The SCF correction term to forces
     atom    1 type  1   force =    -0.00000640   -0.00012721   -0.00009492
     atom    2 type  1   force =     0.00020518   -0.00002635    0.00013730
     atom    3 type  2   force =    -0.00004894   -0.00001993    0.00002748
     atom    4 type  2   force =    -0.00002148    0.00002838    0.00007077

     Total force =    16.987992     Total SCF correction =     0.000311

     Writing all to output data dir ./ZnO_ANN.save/

     init_run     :      4.11s CPU      4.22s WALL (       1 calls)
     electrons    :    262.25s CPU    267.22s WALL (       1 calls)
     forces       :      1.47s CPU      1.48s WALL (       1 calls)

     Called by init_run:
     wfcinit      :      2.96s CPU      3.03s WALL (       1 calls)
     potinit      :      0.41s CPU      0.41s WALL (       1 calls)
     hinit0       :      0.64s CPU      0.65s WALL (       1 calls)

     Called by electrons:
     c_bands      :    232.45s CPU    236.75s WALL (      32 calls)
     sum_band     :     26.65s CPU     27.24s WALL (      32 calls)
     v_of_rho     :      0.66s CPU      0.71s WALL (      33 calls)
     newd         :      2.39s CPU      2.43s WALL (      33 calls)
     mix_rho      :      0.11s CPU      0.12s WALL (      32 calls)

     Called by c_bands:
     init_us_2    :      2.26s CPU      2.30s WALL (    7392 calls)
     init_us_2:cp :      2.23s CPU      2.27s WALL (    7392 calls)
     cegterg      :    225.27s CPU    229.47s WALL (    3584 calls)

     Called by *egterg:
     cdiaghg      :     22.16s CPU     22.33s WALL (   19502 calls)
     h_psi        :    129.01s CPU    132.20s WALL (   19614 calls)
     s_psi        :     19.04s CPU     19.20s WALL (   19614 calls)
     g_psi        :      0.49s CPU      0.50s WALL (   15918 calls)

     Called by h_psi:
     h_psi:calbec :     19.97s CPU     20.62s WALL (   19614 calls)
     vloc_psi     :     89.53s CPU     91.91s WALL (   19614 calls)
     add_vuspsi   :     19.03s CPU     19.20s WALL (   19614 calls)

     General routines
     calbec       :     27.16s CPU     27.97s WALL (   23646 calls)
     fft          :      0.65s CPU      0.71s WALL (     438 calls)
     ffts         :      0.13s CPU      0.14s WALL (      65 calls)
     fftw         :     88.51s CPU     90.81s WALL (  454302 calls)
     interpolate  :      0.16s CPU      0.16s WALL (      33 calls)

     Parallel routines

     PWSCF        :   4m28.61s CPU   4m34.00s WALL


   This run was terminated on:  21:15:28  24Jun2025            

=------------------------------------------------------------------------------=
   JOB DONE.
=------------------------------------------------------------------------------=
Note: The following floating-point exceptions are signalling: IEEE_INVALID_FLAG
