
     Program PWSCF v.7.2 starts on 24Jun2025 at 18:19:47 

     This program is part of the open-source Quantum ESPRESSO suite
     for quantum simulation of materials; please cite
         "P. Giannozzi et al., J. Phys.:Condens. Matter 21 395502 (2009);
         "P. Giannozzi et al., J. Phys.:Condens. Matter 29 465901 (2017);
         "P. Giannozzi et al., J. Chem. Phys. 152 154105 (2020);
          URL http://www.quantum-espresso.org", 
     in publications or presentations arising from this work. More details at
     http://www.quantum-espresso.org/quote

     Parallel version (MPI), running on     8 processors

     MPI processes distributed on     1 nodes
     90857 MiB available memory on the printing compute node when the environment starts

     Reading input from /home/jvc/QEspresso7.2/ZnO_DataBase/scf_025_NOSYM.in/scf-6.43-1.58-0.25-1.in

     Current dimensions of program PWSCF are:
     Max number of different atomic species (ntypx) = 10
     Max number of k-points (npk) =  40000
     Max angular momentum in pseudopotentials (lmaxx) =  4
     file Zn.upf: wavefunction(s)  3D renormalized

     R & G space division:  proc/nbgrp/npool/nimage =       8
     Subspace diagonalization in iterative solution of the eigenvalue problem:
     a serial algorithm will be used


     Parallelization info
     --------------------
     sticks:   dense  smooth     PW     G-vecs:    dense   smooth      PW
     Min         143      71     20                 6229     2189     360
     Max         145      73     21                 6232     2190     367
     Sum        1147     571    163                49835    17513    2899

     Using Slab Decomposition



     bravais-lattice index     =            0
     lattice parameter (alat)  =       6.4260  a.u.
     unit-cell volume          =     367.6779 (a.u.)^3
     number of atoms/cell      =            4
     number of atomic types    =            2
     number of electrons       =        36.00
     number of Kohn-Sham states=           18
     kinetic-energy cutoff     =      50.0000  Ry
     charge density cutoff     =     400.0000  Ry
     scf convergence threshold =      1.0E-08
     mixing beta               =       0.3000
     number of iterations used =            8  plain     mixing
     Exchange-correlation= PBE
                           (   1   4   3   4   0   0   0)

     celldm(1)=   6.425974  celldm(2)=   0.000000  celldm(3)=   0.000000
     celldm(4)=   0.000000  celldm(5)=   0.000000  celldm(6)=   0.000000

     crystal axes: (cart. coord. in units of alat)
               a(1) = (   1.000000   0.000000   0.000000 )  
               a(2) = (  -0.500000   0.866025   0.000000 )  
               a(3) = (   0.000000   0.000000   1.600000 )  

     reciprocal axes: (cart. coord. in units 2 pi/alat)
               b(1) = (  1.000000  0.577350 -0.000000 )  
               b(2) = (  0.000000  1.154701  0.000000 )  
               b(3) = (  0.000000 -0.000000  0.625000 )  


     PseudoPot. # 1 for Zn read from file:
     ./pseudos/Zn.upf
     MD5 check sum: 7f56cabf9682ed8c977c2f7d0c5985c5
     Pseudo is Ultrasoft + core correction, Zval = 12.0
     Generated using &quot;atomic&quot; code by A. Dal Corso  v.6.2.2
     Using radial grid of 1201 points,  6 beta functions with: 
                l(1) =   0
                l(2) =   0
                l(3) =   1
                l(4) =   1
                l(5) =   2
                l(6) =   2
     Q(r) pseudized with 0 coefficients 


     PseudoPot. # 2 for O  read from file:
     ./pseudos/O.upf
     MD5 check sum: 91400c9766925bcf19f520983a725ff0
     Pseudo is Ultrasoft + core correction, Zval =  6.0
     Generated using &quot;atomic&quot; code by A. Dal Corso  v.6.3MaX
     Using radial grid of 1095 points,  4 beta functions with: 
                l(1) =   0
                l(2) =   0
                l(3) =   1
                l(4) =   1
     Q(r) pseudized with 0 coefficients 


     atomic species   valence    mass     pseudopotential
        Zn            12.00    63.38000     Zn( 1.00)
        O              6.00    15.99900     O ( 1.00)

     No symmetry found



   Cartesian axes

     site n.     atom                  positions (alat units)
         1           Zn  tau(   1) = (   0.2824539   0.2383544   1.0849278  )
         2           Zn  tau(   2) = (  -0.1702867   0.6748333  -0.0650061  )
         3           O   tau(   3) = (   0.4694271   0.0923452   1.4406631  )
         4           O   tau(   4) = (  -0.3344811   0.7671593   0.9795029  )

     number of k points=   112

     Number of k-points >= 100: set verbosity='high' to print them.

     Dense  grid:    49835 G-vectors     FFT dimensions: (  45,  45,  72)

     Smooth grid:    17513 G-vectors     FFT dimensions: (  30,  30,  48)

     Estimated max dynamical RAM per process >      34.06 MB

     Estimated total dynamical RAM >     272.46 MB

     Check: negative core charge=   -0.000002

     Initial potential from superposition of free atoms

     starting charge      35.9925, renormalised to      36.0000
     Starting wfcs are   26 randomized atomic wfcs

     total cpu time spent up to now is        4.4 secs

     Self-consistent Calculation

     iteration #  1     ecut=    50.00 Ry     beta= 0.30
     Davidson diagonalization with overlap
     ethr =  1.00E-02,  avg # of iterations =  3.0

     total cpu time spent up to now is       11.1 secs

     total energy              =    -358.45629790 Ry
     estimated scf accuracy    <       1.98195577 Ry

     iteration #  2     ecut=    50.00 Ry     beta= 0.30
     Davidson diagonalization with overlap
     ethr =  5.51E-03,  avg # of iterations =  2.1

     total cpu time spent up to now is       17.4 secs

     total energy              =    -358.45058941 Ry
     estimated scf accuracy    <       0.38273825 Ry

     iteration #  3     ecut=    50.00 Ry     beta= 0.30
     Davidson diagonalization with overlap
     c_bands:  1 eigenvalues not converged
     c_bands:  1 eigenvalues not converged
     ethr =  1.06E-03,  avg # of iterations = 12.8

     total cpu time spent up to now is       32.0 secs

     total energy              =    -359.01223554 Ry
     estimated scf accuracy    <       1.67442596 Ry

     iteration #  4     ecut=    50.00 Ry     beta= 0.30
     Davidson diagonalization with overlap
     ethr =  1.06E-03,  avg # of iterations =  1.3

     total cpu time spent up to now is       37.1 secs

     total energy              =    -358.58663264 Ry
     estimated scf accuracy    <       1.40338392 Ry

     iteration #  5     ecut=    50.00 Ry     beta= 0.30
     Davidson diagonalization with overlap
     ethr =  1.06E-03,  avg # of iterations =  9.4

     total cpu time spent up to now is       46.5 secs

     total energy              =    -358.82388609 Ry
     estimated scf accuracy    <       0.03522600 Ry

     iteration #  6     ecut=    50.00 Ry     beta= 0.30
     Davidson diagonalization with overlap
     c_bands:  1 eigenvalues not converged
     c_bands:  1 eigenvalues not converged
     ethr =  9.79E-05,  avg # of iterations =  8.8

     total cpu time spent up to now is       58.0 secs

     total energy              =    -358.83228519 Ry
     estimated scf accuracy    <       0.11108958 Ry

     iteration #  7     ecut=    50.00 Ry     beta= 0.30
     Davidson diagonalization with overlap
     ethr =  9.79E-05,  avg # of iterations =  3.4

     total cpu time spent up to now is       64.1 secs

     total energy              =    -358.83389751 Ry
     estimated scf accuracy    <       0.03778747 Ry

     iteration #  8     ecut=    50.00 Ry     beta= 0.30
     Davidson diagonalization with overlap
     ethr =  9.79E-05,  avg # of iterations =  1.8

     total cpu time spent up to now is       69.4 secs

     total energy              =    -358.82874506 Ry
     estimated scf accuracy    <       0.02578947 Ry

     iteration #  9     ecut=    50.00 Ry     beta= 0.30
     Davidson diagonalization with overlap
     ethr =  7.16E-05,  avg # of iterations =  5.7

     total cpu time spent up to now is       76.4 secs

     total energy              =    -358.83453114 Ry
     estimated scf accuracy    <       0.00073248 Ry

     iteration # 10     ecut=    50.00 Ry     beta= 0.30
     Davidson diagonalization with overlap
     c_bands:  1 eigenvalues not converged
     c_bands:  1 eigenvalues not converged
     c_bands:  1 eigenvalues not converged
     c_bands:  1 eigenvalues not converged
     c_bands:  1 eigenvalues not converged
     ethr =  2.03E-06,  avg # of iterations = 11.8

     total cpu time spent up to now is       91.0 secs

     total energy              =    -358.83810757 Ry
     estimated scf accuracy    <       0.00211963 Ry

     iteration # 11     ecut=    50.00 Ry     beta= 0.30
     Davidson diagonalization with overlap
     c_bands:  1 eigenvalues not converged
     c_bands:  1 eigenvalues not converged
     ethr =  2.03E-06,  avg # of iterations = 11.6

     total cpu time spent up to now is      103.3 secs

     total energy              =    -358.84027421 Ry
     estimated scf accuracy    <       0.01328417 Ry

     iteration # 12     ecut=    50.00 Ry     beta= 0.30
     Davidson diagonalization with overlap
     ethr =  2.03E-06,  avg # of iterations =  4.2

     total cpu time spent up to now is      109.6 secs

     total energy              =    -358.84055048 Ry
     estimated scf accuracy    <       0.01765065 Ry

     iteration # 13     ecut=    50.00 Ry     beta= 0.30
     Davidson diagonalization with overlap
     ethr =  2.03E-06,  avg # of iterations =  2.2

     total cpu time spent up to now is      115.1 secs

     total energy              =    -358.83951270 Ry
     estimated scf accuracy    <       0.01901345 Ry

     iteration # 14     ecut=    50.00 Ry     beta= 0.30
     Davidson diagonalization with overlap
     ethr =  2.03E-06,  avg # of iterations =  1.4

     total cpu time spent up to now is      120.4 secs

     total energy              =    -358.83882621 Ry
     estimated scf accuracy    <       0.01716546 Ry

     iteration # 15     ecut=    50.00 Ry     beta= 0.30
     Davidson diagonalization with overlap
     ethr =  2.03E-06,  avg # of iterations =  1.8

     total cpu time spent up to now is      125.8 secs

     total energy              =    -358.83864459 Ry
     estimated scf accuracy    <       0.01515176 Ry

     iteration # 16     ecut=    50.00 Ry     beta= 0.30
     Davidson diagonalization with overlap
     ethr =  2.03E-06,  avg # of iterations =  1.7

     total cpu time spent up to now is      131.0 secs

     total energy              =    -358.83870826 Ry
     estimated scf accuracy    <       0.01404635 Ry

     iteration # 17     ecut=    50.00 Ry     beta= 0.30
     Davidson diagonalization with overlap
     ethr =  2.03E-06,  avg # of iterations =  1.3

     total cpu time spent up to now is      136.1 secs

     total energy              =    -358.83826631 Ry
     estimated scf accuracy    <       0.01365758 Ry

     iteration # 18     ecut=    50.00 Ry     beta= 0.30
     Davidson diagonalization with overlap
     ethr =  2.03E-06,  avg # of iterations =  1.5

     total cpu time spent up to now is      141.3 secs

     total energy              =    -358.83318169 Ry
     estimated scf accuracy    <       0.01226128 Ry

     iteration # 19     ecut=    50.00 Ry     beta= 0.30
     Davidson diagonalization with overlap
     c_bands:  1 eigenvalues not converged
     c_bands:  1 eigenvalues not converged
     c_bands:  1 eigenvalues not converged
     c_bands:  1 eigenvalues not converged
     c_bands:  1 eigenvalues not converged
     c_bands:  1 eigenvalues not converged
     c_bands:  1 eigenvalues not converged
     ethr =  2.03E-06,  avg # of iterations = 14.8

     total cpu time spent up to now is      158.9 secs

     total energy              =    -358.83701317 Ry
     estimated scf accuracy    <       0.00185888 Ry

     iteration # 20     ecut=    50.00 Ry     beta= 0.30
     Davidson diagonalization with overlap
     ethr =  2.03E-06,  avg # of iterations =  1.7

     total cpu time spent up to now is      164.1 secs

     total energy              =    -358.83688219 Ry
     estimated scf accuracy    <       0.00262144 Ry

     iteration # 21     ecut=    50.00 Ry     beta= 0.30
     Davidson diagonalization with overlap
     ethr =  2.03E-06,  avg # of iterations =  1.0

     total cpu time spent up to now is      169.1 secs

     total energy              =    -358.83689932 Ry
     estimated scf accuracy    <       0.00229974 Ry

     iteration # 22     ecut=    50.00 Ry     beta= 0.30
     Davidson diagonalization with overlap
     ethr =  2.03E-06,  avg # of iterations =  1.0

     total cpu time spent up to now is      174.2 secs

     total energy              =    -358.83685709 Ry
     estimated scf accuracy    <       0.00238119 Ry

     iteration # 23     ecut=    50.00 Ry     beta= 0.30
     Davidson diagonalization with overlap
     ethr =  2.03E-06,  avg # of iterations =  1.0

     total cpu time spent up to now is      179.1 secs

     total energy              =    -358.83624591 Ry
     estimated scf accuracy    <       0.00230040 Ry

     iteration # 24     ecut=    50.00 Ry     beta= 0.30
     Davidson diagonalization with overlap
     c_bands:  1 eigenvalues not converged
     ethr =  2.03E-06,  avg # of iterations =  5.9

     total cpu time spent up to now is      186.1 secs

     total energy              =    -358.83628417 Ry
     estimated scf accuracy    <       0.00038605 Ry

     iteration # 25     ecut=    50.00 Ry     beta= 0.30
     Davidson diagonalization with overlap
     ethr =  1.07E-06,  avg # of iterations =  6.3

     total cpu time spent up to now is      194.5 secs

     total energy              =    -358.83643877 Ry
     estimated scf accuracy    <       0.00003291 Ry

     iteration # 26     ecut=    50.00 Ry     beta= 0.30
     Davidson diagonalization with overlap
     c_bands:  1 eigenvalues not converged
     ethr =  9.14E-08,  avg # of iterations =  9.3

     total cpu time spent up to now is      204.0 secs

     total energy              =    -358.83645067 Ry
     estimated scf accuracy    <       0.00007516 Ry

     iteration # 27     ecut=    50.00 Ry     beta= 0.30
     Davidson diagonalization with overlap
     ethr =  9.14E-08,  avg # of iterations =  1.9

     total cpu time spent up to now is      209.5 secs

     total energy              =    -358.83644007 Ry
     estimated scf accuracy    <       0.00004497 Ry

     iteration # 28     ecut=    50.00 Ry     beta= 0.30
     Davidson diagonalization with overlap
     ethr =  9.14E-08,  avg # of iterations =  6.6

     total cpu time spent up to now is      217.2 secs

     total energy              =    -358.83645186 Ry
     estimated scf accuracy    <       0.00000124 Ry

     iteration # 29     ecut=    50.00 Ry     beta= 0.30
     Davidson diagonalization with overlap
     c_bands:  1 eigenvalues not converged
     ethr =  3.44E-09,  avg # of iterations = 10.8

     total cpu time spent up to now is      230.0 secs

     total energy              =    -358.83644805 Ry
     estimated scf accuracy    <       0.00001090 Ry

     iteration # 30     ecut=    50.00 Ry     beta= 0.30
     Davidson diagonalization with overlap
     c_bands:  1 eigenvalues not converged
     c_bands:  1 eigenvalues not converged
     c_bands:  1 eigenvalues not converged
     c_bands:  1 eigenvalues not converged
     c_bands:  1 eigenvalues not converged
     c_bands:  1 eigenvalues not converged
     c_bands:  1 eigenvalues not converged
     c_bands:  1 eigenvalues not converged
     c_bands:  1 eigenvalues not converged
     c_bands:  1 eigenvalues not converged
     c_bands:  1 eigenvalues not converged
     c_bands:  1 eigenvalues not converged
     c_bands:  1 eigenvalues not converged
     c_bands:  1 eigenvalues not converged
     ethr =  3.44E-09,  avg # of iterations = 14.4

     total cpu time spent up to now is      247.4 secs

     total energy              =    -358.83645177 Ry
     estimated scf accuracy    <       0.00000811 Ry

     iteration # 31     ecut=    50.00 Ry     beta= 0.30
     Davidson diagonalization with overlap
     ethr =  3.44E-09,  avg # of iterations =  5.9

     total cpu time spent up to now is      254.5 secs

     total energy              =    -358.83645260 Ry
     estimated scf accuracy    <       0.00000285 Ry

     iteration # 32     ecut=    50.00 Ry     beta= 0.30
     Davidson diagonalization with overlap
     ethr =  3.44E-09,  avg # of iterations =  1.4

     total cpu time spent up to now is      259.7 secs

     total energy              =    -358.83645186 Ry
     estimated scf accuracy    <       0.00000370 Ry

     iteration # 33     ecut=    50.00 Ry     beta= 0.30
     Davidson diagonalization with overlap
     ethr =  3.44E-09,  avg # of iterations =  2.0

     total cpu time spent up to now is      265.4 secs

     total energy              =    -358.83645135 Ry
     estimated scf accuracy    <       0.00000204 Ry

     iteration # 34     ecut=    50.00 Ry     beta= 0.30
     Davidson diagonalization with overlap
     c_bands:  1 eigenvalues not converged
     ethr =  3.44E-09,  avg # of iterations =  7.0

     total cpu time spent up to now is      273.3 secs

     total energy              =    -358.83645177 Ry
     estimated scf accuracy    <       0.00000002 Ry

     iteration # 35     ecut=    50.00 Ry     beta= 0.30
     Davidson diagonalization with overlap
     c_bands:  1 eigenvalues not converged
     c_bands:  1 eigenvalues not converged
     c_bands:  1 eigenvalues not converged
     c_bands:  1 eigenvalues not converged
     c_bands:  1 eigenvalues not converged
     c_bands:  1 eigenvalues not converged
     c_bands:  1 eigenvalues not converged
     c_bands:  1 eigenvalues not converged
     c_bands:  1 eigenvalues not converged
     c_bands:  1 eigenvalues not converged
     c_bands:  1 eigenvalues not converged
     c_bands:  1 eigenvalues not converged
     c_bands:  1 eigenvalues not converged
     c_bands:  1 eigenvalues not converged
     c_bands:  1 eigenvalues not converged
     c_bands:  1 eigenvalues not converged
     c_bands:  1 eigenvalues not converged
     ethr =  5.35E-11,  avg # of iterations = 16.1

     total cpu time spent up to now is      294.4 secs

     total energy              =    -358.83645174 Ry
     estimated scf accuracy    <       0.00000097 Ry

     iteration # 36     ecut=    50.00 Ry     beta= 0.30
     Davidson diagonalization with overlap
     c_bands:  1 eigenvalues not converged
     c_bands:  1 eigenvalues not converged
     c_bands:  1 eigenvalues not converged
     c_bands:  1 eigenvalues not converged
     c_bands:  1 eigenvalues not converged
     c_bands:  1 eigenvalues not converged
     ethr =  5.35E-11,  avg # of iterations = 14.3

     total cpu time spent up to now is      311.5 secs

     total energy              =    -358.83645179 Ry
     estimated scf accuracy    <       0.00000009 Ry

     iteration # 37     ecut=    50.00 Ry     beta= 0.30
     Davidson diagonalization with overlap
     ethr =  5.35E-11,  avg # of iterations =  6.6

     total cpu time spent up to now is      318.8 secs

     total energy              =    -358.83645178 Ry
     estimated scf accuracy    <       0.00000002 Ry

     iteration # 38     ecut=    50.00 Ry     beta= 0.30
     Davidson diagonalization with overlap
     c_bands:  1 eigenvalues not converged
     c_bands:  1 eigenvalues not converged
     c_bands:  1 eigenvalues not converged
     c_bands:  1 eigenvalues not converged
     c_bands:  1 eigenvalues not converged
     c_bands:  1 eigenvalues not converged
     ethr =  5.35E-11,  avg # of iterations = 14.5

     total cpu time spent up to now is      335.5 secs

     total energy              =    -358.83645176 Ry
     estimated scf accuracy    <       0.00000026 Ry

     iteration # 39     ecut=    50.00 Ry     beta= 0.30
     Davidson diagonalization with overlap
     c_bands:  1 eigenvalues not converged
     c_bands:  1 eigenvalues not converged
     ethr =  5.35E-11,  avg # of iterations = 11.8

     total cpu time spent up to now is      349.4 secs

     End of self-consistent calculation

     Number of k-points >= 100: set verbosity='high' to print the bands.

     highest occupied level (ev):     7.7225

!    total energy              =    -358.83645179 Ry
     estimated scf accuracy    <          2.7E-09 Ry

     The total energy is the sum of the following terms:
     one-electron contribution =    -315.30135017 Ry
     hartree contribution      =     194.36068548 Ry
     xc contribution           =    -110.84572919 Ry
     ewald contribution        =    -127.05005791 Ry

     convergence has been achieved in  39 iterations

     Forces acting on atoms (cartesian axes, Ry/au):

     atom    1 type  1   force =     0.29827194    2.24672691   -0.31721094
     atom    2 type  1   force =    -1.75514840   -3.74072506    1.39865372
     atom    3 type  2   force =     2.24352068    3.41943160   -0.31384687
     atom    4 type  2   force =    -0.78664421   -1.92543346   -0.76759592
     The non-local contrib.  to forces
     atom    1 type  1   force =     0.10641154    1.03226301    0.15306952
     atom    2 type  1   force =    -0.32878562   -0.43393827    0.02375072
     atom    3 type  2   force =    -0.32346213   -0.08580953    0.23217839
     atom    4 type  2   force =    -0.13058064    0.46787008    0.33951000
     The ionic contribution  to forces
     atom    1 type  1   force =    -0.63486986   23.67273956  -27.54413882
     atom    2 type  1   force =    -9.16748698  -25.77346320   38.19207546
     atom    3 type  2   force =    17.43943042   17.89579955   12.26451588
     atom    4 type  2   force =    -7.63707358  -15.79507591  -22.91245252
     The local contribution  to forces
     atom    1 type  1   force =     0.84267848  -22.21230097   27.03280133
     atom    2 type  1   force =     7.60011580   22.16963064  -36.69763506
     atom    3 type  2   force =   -14.86596546  -14.37929303  -12.80770085
     atom    4 type  2   force =     6.97590390   13.39760639   21.80359357
     The core correction contribution to forces
     atom    1 type  1   force =    -0.01594312   -0.24585314    0.04107443
     atom    2 type  1   force =     0.14097855    0.29693892   -0.11939673
     atom    3 type  2   force =    -0.00646848   -0.01127174   -0.00275635
     atom    4 type  2   force =     0.00509452    0.00413500    0.00172405
     The Hubbard contrib.    to forces
     atom    1 type  1   force =     0.00000000    0.00000000    0.00000000
     atom    2 type  1   force =     0.00000000    0.00000000    0.00000000
     atom    3 type  2   force =     0.00000000    0.00000000    0.00000000
     atom    4 type  2   force =     0.00000000    0.00000000    0.00000000
     The SCF correction term to forces
     atom    1 type  1   force =    -0.00000469   -0.00012885   -0.00003627
     atom    2 type  1   force =     0.00003026    0.00009955   -0.00015955
     atom    3 type  2   force =    -0.00001326   -0.00000095   -0.00010282
     atom    4 type  2   force =     0.00001201    0.00002367    0.00001011

     Total force =     6.782837     Total SCF correction =     0.000256

     Writing all to output data dir ./ZnO_ANN.save/

     init_run     :      3.81s CPU      3.91s WALL (       1 calls)
     electrons    :    339.10s CPU    345.08s WALL (       1 calls)
     forces       :      1.30s CPU      1.31s WALL (       1 calls)

     Called by init_run:
     wfcinit      :      2.77s CPU      2.83s WALL (       1 calls)
     potinit      :      0.38s CPU      0.38s WALL (       1 calls)
     hinit0       :      0.58s CPU      0.59s WALL (       1 calls)

     Called by electrons:
     c_bands      :    305.16s CPU    310.36s WALL (      39 calls)
     sum_band     :     30.55s CPU     31.24s WALL (      39 calls)
     v_of_rho     :      0.77s CPU      0.82s WALL (      40 calls)
     newd         :      2.49s CPU      2.52s WALL (      40 calls)
     mix_rho      :      0.13s CPU      0.14s WALL (      39 calls)

     Called by c_bands:
     init_us_2    :      2.33s CPU      2.37s WALL (    8960 calls)
     init_us_2:cp :      2.30s CPU      2.35s WALL (    8960 calls)
     cegterg      :    298.00s CPU    303.09s WALL (    4368 calls)

     Called by *egterg:
     cdiaghg      :     36.38s CPU     36.71s WALL (   31256 calls)
     h_psi        :    171.42s CPU    175.17s WALL (   31368 calls)
     s_psi        :     22.27s CPU     22.46s WALL (   31368 calls)
     g_psi        :      0.61s CPU      0.62s WALL (   26888 calls)

     Called by h_psi:
     h_psi:calbec :     23.33s CPU     24.05s WALL (   31368 calls)
     vloc_psi     :    125.14s CPU    127.98s WALL (   31368 calls)
     add_vuspsi   :     22.35s CPU     22.54s WALL (   31368 calls)

     General routines
     calbec       :     30.67s CPU     31.60s WALL (   36184 calls)
     fft          :      0.78s CPU      0.85s WALL (     529 calls)
     ffts         :      0.17s CPU      0.17s WALL (      79 calls)
     fftw         :    124.61s CPU    127.46s WALL (  607282 calls)
     interpolate  :      0.20s CPU      0.20s WALL (      40 calls)

     Parallel routines

     PWSCF        :   5m44.94s CPU   5m51.32s WALL


   This run was terminated on:  18:25:38  24Jun2025            

=------------------------------------------------------------------------------=
   JOB DONE.
=------------------------------------------------------------------------------=
Note: The following floating-point exceptions are signalling: IEEE_INVALID_FLAG
