
     Program PWSCF v.7.2 starts on 24Jun2025 at 14:50:30 

     This program is part of the open-source Quantum ESPRESSO suite
     for quantum simulation of materials; please cite
         "P. Giannozzi et al., J. Phys.:Condens. Matter 21 395502 (2009);
         "P. Giannozzi et al., J. Phys.:Condens. Matter 29 465901 (2017);
         "P. Giannozzi et al., J. Chem. Phys. 152 154105 (2020);
          URL http://www.quantum-espresso.org", 
     in publications or presentations arising from this work. More details at
     http://www.quantum-espresso.org/quote

     Parallel version (MPI), running on     8 processors

     MPI processes distributed on     1 nodes
     91282 MiB available memory on the printing compute node when the environment starts

     Reading input from /home/jvc/QEspresso7.2/ZnO_DataBase/scf_025_NOSYM.in/scf-5.68-1.49-0.25-5.in

     Current dimensions of program PWSCF are:
     Max number of different atomic species (ntypx) = 10
     Max number of k-points (npk) =  40000
     Max angular momentum in pseudopotentials (lmaxx) =  4
     file Zn.upf: wavefunction(s)  3D renormalized

     R & G space division:  proc/nbgrp/npool/nimage =       8
     Subspace diagonalization in iterative solution of the eigenvalue problem:
     a serial algorithm will be used


     Parallelization info
     --------------------
     sticks:   dense  smooth     PW     G-vecs:    dense   smooth      PW
     Min         111      54     16                 4279     1514     257
     Max         112      55     18                 4284     1519     260
     Sum         889     439    139                34245    12143    2069

     Using Slab Decomposition



     bravais-lattice index     =            0
     lattice parameter (alat)  =       5.6845  a.u.
     unit-cell volume          =     254.5253 (a.u.)^3
     number of atoms/cell      =            4
     number of atomic types    =            2
     number of electrons       =        36.00
     number of Kohn-Sham states=           18
     kinetic-energy cutoff     =      50.0000  Ry
     charge density cutoff     =     400.0000  Ry
     scf convergence threshold =      1.0E-08
     mixing beta               =       0.3000
     number of iterations used =            8  plain     mixing
     Exchange-correlation= PBE
                           (   1   4   3   4   0   0   0)

     celldm(1)=   5.684516  celldm(2)=   0.000000  celldm(3)=   0.000000
     celldm(4)=   0.000000  celldm(5)=   0.000000  celldm(6)=   0.000000

     crystal axes: (cart. coord. in units of alat)
               a(1) = (   1.000000   0.000000   0.000000 )  
               a(2) = (  -0.500000   0.866025   0.000000 )  
               a(3) = (   0.000000   0.000000   1.600000 )  

     reciprocal axes: (cart. coord. in units 2 pi/alat)
               b(1) = (  1.000000  0.577350 -0.000000 )  
               b(2) = (  0.000000  1.154701  0.000000 )  
               b(3) = (  0.000000 -0.000000  0.625000 )  


     PseudoPot. # 1 for Zn read from file:
     ./pseudos/Zn.upf
     MD5 check sum: 7f56cabf9682ed8c977c2f7d0c5985c5
     Pseudo is Ultrasoft + core correction, Zval = 12.0
     Generated using &quot;atomic&quot; code by A. Dal Corso  v.6.2.2
     Using radial grid of 1201 points,  6 beta functions with: 
                l(1) =   0
                l(2) =   0
                l(3) =   1
                l(4) =   1
                l(5) =   2
                l(6) =   2
     Q(r) pseudized with 0 coefficients 


     PseudoPot. # 2 for O  read from file:
     ./pseudos/O.upf
     MD5 check sum: 91400c9766925bcf19f520983a725ff0
     Pseudo is Ultrasoft + core correction, Zval =  6.0
     Generated using &quot;atomic&quot; code by A. Dal Corso  v.6.3MaX
     Using radial grid of 1095 points,  4 beta functions with: 
                l(1) =   0
                l(2) =   0
                l(3) =   1
                l(4) =   1
     Q(r) pseudized with 0 coefficients 


     atomic species   valence    mass     pseudopotential
        Zn            12.00    63.38000     Zn( 1.00)
        O              6.00    15.99900     O ( 1.00)

     No symmetry found



   Cartesian axes

     site n.     atom                  positions (alat units)
         1           Zn  tau(   1) = (   0.4432163   0.3805298   1.0672456  )
         2           Zn  tau(   2) = (   0.1783421   0.4686806  -0.1798746  )
         3           O   tau(   3) = (   0.5580877   0.4851434   1.6659011  )
         4           O   tau(   4) = (   0.0501902   0.7138222   0.9456689  )

     number of k points=   112

     Number of k-points >= 100: set verbosity='high' to print them.

     Dense  grid:    34245 G-vectors     FFT dimensions: (  40,  40,  60)

     Smooth grid:    12143 G-vectors     FFT dimensions: (  25,  25,  45)

     Estimated max dynamical RAM per process >      24.48 MB

     Estimated total dynamical RAM >     195.83 MB

     Check: negative core charge=   -0.000002

     Initial potential from superposition of free atoms

     starting charge      35.9925, renormalised to      36.0000
     Starting wfcs are   26 randomized atomic wfcs

     total cpu time spent up to now is        3.3 secs

     Self-consistent Calculation

     iteration #  1     ecut=    50.00 Ry     beta= 0.30
     Davidson diagonalization with overlap
     ethr =  1.00E-02,  avg # of iterations =  2.4

     total cpu time spent up to now is        7.9 secs

     total energy              =    -359.09569468 Ry
     estimated scf accuracy    <       1.09357380 Ry

     iteration #  2     ecut=    50.00 Ry     beta= 0.30
     Davidson diagonalization with overlap
     ethr =  3.04E-03,  avg # of iterations =  2.3

     total cpu time spent up to now is       12.4 secs

     total energy              =    -359.09124768 Ry
     estimated scf accuracy    <       0.25762913 Ry

     iteration #  3     ecut=    50.00 Ry     beta= 0.30
     Davidson diagonalization with overlap
     ethr =  7.16E-04,  avg # of iterations =  6.3

     total cpu time spent up to now is       21.6 secs

     total energy              =    -359.33250083 Ry
     estimated scf accuracy    <       0.31585819 Ry

     iteration #  4     ecut=    50.00 Ry     beta= 0.30
     Davidson diagonalization with overlap
     ethr =  7.16E-04,  avg # of iterations =  1.2

     total cpu time spent up to now is       25.2 secs

     total energy              =    -359.22753087 Ry
     estimated scf accuracy    <       0.14860216 Ry

     iteration #  5     ecut=    50.00 Ry     beta= 0.30
     Davidson diagonalization with overlap
     ethr =  4.13E-04,  avg # of iterations =  6.5

     total cpu time spent up to now is       35.0 secs

     total energy              =    -359.32252700 Ry
     estimated scf accuracy    <       0.27527077 Ry

     iteration #  6     ecut=    50.00 Ry     beta= 0.30
     Davidson diagonalization with overlap
     ethr =  4.13E-04,  avg # of iterations =  2.0

     total cpu time spent up to now is       39.0 secs

     total energy              =    -359.27277974 Ry
     estimated scf accuracy    <       0.11972638 Ry

     iteration #  7     ecut=    50.00 Ry     beta= 0.30
     Davidson diagonalization with overlap
     ethr =  3.33E-04,  avg # of iterations =  5.0

     total cpu time spent up to now is       45.4 secs

     total energy              =    -359.32094109 Ry
     estimated scf accuracy    <       0.01232871 Ry

     iteration #  8     ecut=    50.00 Ry     beta= 0.30
     Davidson diagonalization with overlap
     ethr =  3.42E-05,  avg # of iterations =  4.3

     total cpu time spent up to now is       51.5 secs

     total energy              =    -359.32476973 Ry
     estimated scf accuracy    <       0.00149005 Ry

     iteration #  9     ecut=    50.00 Ry     beta= 0.30
     Davidson diagonalization with overlap
     ethr =  4.14E-06,  avg # of iterations =  5.4

     total cpu time spent up to now is       58.9 secs

     total energy              =    -359.32537054 Ry
     estimated scf accuracy    <       0.00081623 Ry

     iteration # 10     ecut=    50.00 Ry     beta= 0.30
     Davidson diagonalization with overlap
     ethr =  2.27E-06,  avg # of iterations =  2.2

     total cpu time spent up to now is       63.2 secs

     total energy              =    -359.32532609 Ry
     estimated scf accuracy    <       0.00017241 Ry

     iteration # 11     ecut=    50.00 Ry     beta= 0.30
     Davidson diagonalization with overlap
     ethr =  4.79E-07,  avg # of iterations =  7.6

     total cpu time spent up to now is       73.3 secs

     total energy              =    -359.32535135 Ry
     estimated scf accuracy    <       0.00049414 Ry

     iteration # 12     ecut=    50.00 Ry     beta= 0.30
     Davidson diagonalization with overlap
     ethr =  4.79E-07,  avg # of iterations =  6.6

     total cpu time spent up to now is       82.5 secs

     total energy              =    -359.32551897 Ry
     estimated scf accuracy    <       0.00007310 Ry

     iteration # 13     ecut=    50.00 Ry     beta= 0.30
     Davidson diagonalization with overlap
     ethr =  2.03E-07,  avg # of iterations =  1.5

     total cpu time spent up to now is       86.2 secs

     total energy              =    -359.32549516 Ry
     estimated scf accuracy    <       0.00004050 Ry

     iteration # 14     ecut=    50.00 Ry     beta= 0.30
     Davidson diagonalization with overlap
     ethr =  1.12E-07,  avg # of iterations =  5.5

     total cpu time spent up to now is       93.6 secs

     total energy              =    -359.32551493 Ry
     estimated scf accuracy    <       0.00001290 Ry

     iteration # 15     ecut=    50.00 Ry     beta= 0.30
     Davidson diagonalization with overlap
     ethr =  3.58E-08,  avg # of iterations =  1.5

     total cpu time spent up to now is       97.3 secs

     total energy              =    -359.32551457 Ry
     estimated scf accuracy    <       0.00000601 Ry

     iteration # 16     ecut=    50.00 Ry     beta= 0.30
     Davidson diagonalization with overlap
     ethr =  1.67E-08,  avg # of iterations =  2.0

     total cpu time spent up to now is      101.6 secs

     total energy              =    -359.32551498 Ry
     estimated scf accuracy    <       0.00000265 Ry

     iteration # 17     ecut=    50.00 Ry     beta= 0.30
     Davidson diagonalization with overlap
     ethr =  7.37E-09,  avg # of iterations =  1.8

     total cpu time spent up to now is      105.5 secs

     total energy              =    -359.32551501 Ry
     estimated scf accuracy    <       0.00000188 Ry

     iteration # 18     ecut=    50.00 Ry     beta= 0.30
     Davidson diagonalization with overlap
     ethr =  5.23E-09,  avg # of iterations =  1.9

     total cpu time spent up to now is      109.5 secs

     total energy              =    -359.32551473 Ry
     estimated scf accuracy    <       0.00000138 Ry

     iteration # 19     ecut=    50.00 Ry     beta= 0.30
     Davidson diagonalization with overlap
     ethr =  3.84E-09,  avg # of iterations =  2.2

     total cpu time spent up to now is      113.7 secs

     total energy              =    -359.32551474 Ry
     estimated scf accuracy    <       0.00000047 Ry

     iteration # 20     ecut=    50.00 Ry     beta= 0.30
     Davidson diagonalization with overlap
     ethr =  1.32E-09,  avg # of iterations =  4.8

     total cpu time spent up to now is      119.6 secs

     End of self-consistent calculation

     Number of k-points >= 100: set verbosity='high' to print the bands.

     highest occupied level (ev):    11.1876

!    total energy              =    -359.32551490 Ry
     estimated scf accuracy    <          7.5E-09 Ry

     The total energy is the sum of the following terms:
     one-electron contribution =    -240.61000481 Ry
     hartree contribution      =     163.66844070 Ry
     xc contribution           =    -111.43714992 Ry
     ewald contribution        =    -170.94680087 Ry

     convergence has been achieved in  20 iterations

     Forces acting on atoms (cartesian axes, Ry/au):

     atom    1 type  1   force =     2.05177163   -0.67232624   -2.54944941
     atom    2 type  1   force =    -2.82286888    0.47145807    2.17120450
     atom    3 type  2   force =     1.10545420    0.03900824    0.81099262
     atom    4 type  2   force =    -0.33435695    0.16185993   -0.43274771
     The non-local contrib.  to forces
     atom    1 type  1   force =    -0.82863759    0.38020284    1.47420847
     atom    2 type  1   force =     0.30789153   -0.69702239   -2.18567932
     atom    3 type  2   force =    -0.41600449   -0.18959803   -1.29649043
     atom    4 type  2   force =     0.22419252   -0.15578904    1.06645017
     The ionic contribution  to forces
     atom    1 type  1   force =    18.58186615   -6.19398787  -42.05567826
     atom    2 type  1   force =   -24.30533075    1.85959509   38.30343587
     atom    3 type  2   force =    10.50274123    1.36704052   26.99502829
     atom    4 type  2   force =    -4.77927662    2.96735226  -23.24278590
     The local contribution  to forces
     atom    1 type  1   force =   -15.57564892    5.11027560   37.90506376
     atom    2 type  1   force =    20.95702700   -0.70762565  -33.87565327
     atom    3 type  2   force =    -8.97989717   -1.13989639  -24.89397985
     atom    4 type  2   force =     4.22078359   -2.65012341   21.74938022
     The core correction contribution to forces
     atom    1 type  1   force =    -0.12581522    0.03117745    0.12679853
     atom    2 type  1   force =     0.21759968    0.01650837   -0.07061556
     atom    3 type  2   force =    -0.00138392    0.00147114    0.00654429
     atom    4 type  2   force =    -0.00008571    0.00043727   -0.00587938
     The Hubbard contrib.    to forces
     atom    1 type  1   force =     0.00000000    0.00000000    0.00000000
     atom    2 type  1   force =     0.00000000    0.00000000    0.00000000
     atom    3 type  2   force =     0.00000000    0.00000000    0.00000000
     atom    4 type  2   force =     0.00000000    0.00000000    0.00000000
     The SCF correction term to forces
     atom    1 type  1   force =     0.00000396    0.00002013    0.00015723
     atom    2 type  1   force =    -0.00005959    0.00001705   -0.00028406
     atom    3 type  2   force =    -0.00000470    0.00000539   -0.00011053
     atom    4 type  2   force =     0.00002602   -0.00000277    0.00008632

     Total force =     5.125719     Total SCF correction =     0.000361

     Writing all to output data dir ./ZnO_ANN.save/

     init_run     :      2.76s CPU      2.85s WALL (       1 calls)
     electrons    :    113.55s CPU    116.32s WALL (       1 calls)
     forces       :      0.93s CPU      0.95s WALL (       1 calls)

     Called by init_run:
     wfcinit      :      1.94s CPU      1.99s WALL (       1 calls)
     potinit      :      0.22s CPU      0.22s WALL (       1 calls)
     hinit0       :      0.54s CPU      0.55s WALL (       1 calls)

     Called by electrons:
     c_bands      :    101.58s CPU    103.96s WALL (      20 calls)
     sum_band     :     10.75s CPU     11.11s WALL (      20 calls)
     v_of_rho     :      0.28s CPU      0.30s WALL (      21 calls)
     newd         :      0.91s CPU      0.94s WALL (      21 calls)
     mix_rho      :      0.05s CPU      0.05s WALL (      20 calls)

     Called by c_bands:
     init_us_2    :      0.85s CPU      0.87s WALL (    4704 calls)
     init_us_2:cp :      0.84s CPU      0.85s WALL (    4704 calls)
     cegterg      :     99.00s CPU    101.32s WALL (    2240 calls)

     Called by *egterg:
     cdiaghg      :     12.10s CPU     12.19s WALL (   10408 calls)
     h_psi        :     56.90s CPU     58.75s WALL (   10520 calls)
     s_psi        :      7.92s CPU      7.99s WALL (   10520 calls)
     g_psi        :      0.20s CPU      0.20s WALL (    8168 calls)

     Called by h_psi:
     h_psi:calbec :      8.02s CPU      8.39s WALL (   10520 calls)
     vloc_psi     :     40.74s CPU     42.15s WALL (   10520 calls)
     add_vuspsi   :      7.93s CPU      8.01s WALL (   10520 calls)

     General routines
     calbec       :     10.92s CPU     11.39s WALL (   13208 calls)
     fft          :      0.46s CPU      0.49s WALL (     282 calls)
     ffts         :      0.05s CPU      0.06s WALL (      41 calls)
     fftw         :     40.35s CPU     41.76s WALL (  298532 calls)
     interpolate  :      0.06s CPU      0.06s WALL (      21 calls)

     Parallel routines

     PWSCF        :   1m57.97s CPU   2m 0.99s WALL


   This run was terminated on:  14:52:31  24Jun2025            

=------------------------------------------------------------------------------=
   JOB DONE.
=------------------------------------------------------------------------------=
Note: The following floating-point exceptions are signalling: IEEE_INVALID_FLAG
