
     Program PWSCF v.7.2 starts on 24Jun2025 at 19:30: 9 

     This program is part of the open-source Quantum ESPRESSO suite
     for quantum simulation of materials; please cite
         "P. Giannozzi et al., J. Phys.:Condens. Matter 21 395502 (2009);
         "P. Giannozzi et al., J. Phys.:Condens. Matter 29 465901 (2017);
         "P. Giannozzi et al., J. Chem. Phys. 152 154105 (2020);
          URL http://www.quantum-espresso.org", 
     in publications or presentations arising from this work. More details at
     http://www.quantum-espresso.org/quote

     Parallel version (MPI), running on     8 processors

     MPI processes distributed on     1 nodes
     90765 MiB available memory on the printing compute node when the environment starts

     Reading input from /home/jvc/QEspresso7.2/ZnO_DataBase/scf_025_NOSYM.in/scf-6.55-1.74-0.25-1.in

     Current dimensions of program PWSCF are:
     Max number of different atomic species (ntypx) = 10
     Max number of k-points (npk) =  40000
     Max angular momentum in pseudopotentials (lmaxx) =  4
     file Zn.upf: wavefunction(s)  3D renormalized

     R & G space division:  proc/nbgrp/npool/nimage =       8
     Subspace diagonalization in iterative solution of the eigenvalue problem:
     a serial algorithm will be used


     Parallelization info
     --------------------
     sticks:   dense  smooth     PW     G-vecs:    dense   smooth      PW
     Min         147      72     23                 6576     2326     385
     Max         148      73     24                 6577     2335     388
     Sum        1177     583    187                52615    18665    3091

     Using Slab Decomposition



     bravais-lattice index     =            0
     lattice parameter (alat)  =       6.5496  a.u.
     unit-cell volume          =     389.3007 (a.u.)^3
     number of atoms/cell      =            4
     number of atomic types    =            2
     number of electrons       =        36.00
     number of Kohn-Sham states=           18
     kinetic-energy cutoff     =      50.0000  Ry
     charge density cutoff     =     400.0000  Ry
     scf convergence threshold =      1.0E-08
     mixing beta               =       0.3000
     number of iterations used =            8  plain     mixing
     Exchange-correlation= PBE
                           (   1   4   3   4   0   0   0)

     celldm(1)=   6.549551  celldm(2)=   0.000000  celldm(3)=   0.000000
     celldm(4)=   0.000000  celldm(5)=   0.000000  celldm(6)=   0.000000

     crystal axes: (cart. coord. in units of alat)
               a(1) = (   1.000000   0.000000   0.000000 )  
               a(2) = (  -0.500000   0.866025   0.000000 )  
               a(3) = (   0.000000   0.000000   1.600000 )  

     reciprocal axes: (cart. coord. in units 2 pi/alat)
               b(1) = (  1.000000  0.577350 -0.000000 )  
               b(2) = (  0.000000  1.154701  0.000000 )  
               b(3) = (  0.000000 -0.000000  0.625000 )  


     PseudoPot. # 1 for Zn read from file:
     ./pseudos/Zn.upf
     MD5 check sum: 7f56cabf9682ed8c977c2f7d0c5985c5
     Pseudo is Ultrasoft + core correction, Zval = 12.0
     Generated using &quot;atomic&quot; code by A. Dal Corso  v.6.2.2
     Using radial grid of 1201 points,  6 beta functions with: 
                l(1) =   0
                l(2) =   0
                l(3) =   1
                l(4) =   1
                l(5) =   2
                l(6) =   2
     Q(r) pseudized with 0 coefficients 


     PseudoPot. # 2 for O  read from file:
     ./pseudos/O.upf
     MD5 check sum: 91400c9766925bcf19f520983a725ff0
     Pseudo is Ultrasoft + core correction, Zval =  6.0
     Generated using &quot;atomic&quot; code by A. Dal Corso  v.6.3MaX
     Using radial grid of 1095 points,  4 beta functions with: 
                l(1) =   0
                l(2) =   0
                l(3) =   1
                l(4) =   1
     Q(r) pseudized with 0 coefficients 


     atomic species   valence    mass     pseudopotential
        Zn            12.00    63.38000     Zn( 1.00)
        O              6.00    15.99900     O ( 1.00)

     No symmetry found



   Cartesian axes

     site n.     atom                  positions (alat units)
         1           Zn  tau(   1) = (   0.3941421   0.1780217   1.0916493  )
         2           Zn  tau(   2) = (  -0.2201770   0.7592496   0.2807399  )
         3           O   tau(   3) = (   0.7078750   0.1883843   1.4055906  )
         4           O   tau(   4) = (   0.1269995   0.6909275   0.2104049  )

     number of k points=   112

     Number of k-points >= 100: set verbosity='high' to print them.

     Dense  grid:    52615 G-vectors     FFT dimensions: (  45,  45,  72)

     Smooth grid:    18665 G-vectors     FFT dimensions: (  30,  30,  48)

     Estimated max dynamical RAM per process >      35.72 MB

     Estimated total dynamical RAM >     285.77 MB

     Check: negative core charge=   -0.000002

     Initial potential from superposition of free atoms

     starting charge      35.9925, renormalised to      36.0000
     Starting wfcs are   26 randomized atomic wfcs

     total cpu time spent up to now is        4.6 secs

     Self-consistent Calculation

     iteration #  1     ecut=    50.00 Ry     beta= 0.30
     Davidson diagonalization with overlap
     ethr =  1.00E-02,  avg # of iterations =  2.0

     total cpu time spent up to now is       10.8 secs

     total energy              =    -359.95468326 Ry
     estimated scf accuracy    <       1.89999770 Ry

     iteration #  2     ecut=    50.00 Ry     beta= 0.30
     Davidson diagonalization with overlap
     ethr =  5.28E-03,  avg # of iterations =  4.3

     total cpu time spent up to now is       17.7 secs

     total energy              =    -360.29280204 Ry
     estimated scf accuracy    <       0.09435983 Ry

     iteration #  3     ecut=    50.00 Ry     beta= 0.30
     Davidson diagonalization with overlap
     c_bands:  1 eigenvalues not converged
     c_bands:  1 eigenvalues not converged
     c_bands:  1 eigenvalues not converged
     c_bands:  1 eigenvalues not converged
     c_bands:  1 eigenvalues not converged
     c_bands:  1 eigenvalues not converged
     c_bands:  1 eigenvalues not converged
     c_bands:  1 eigenvalues not converged
     c_bands:  1 eigenvalues not converged
     c_bands:  1 eigenvalues not converged
     c_bands:  1 eigenvalues not converged
     c_bands:  1 eigenvalues not converged
     ethr =  2.62E-04,  avg # of iterations = 13.9

     total cpu time spent up to now is       34.2 secs

     total energy              =    -360.36943404 Ry
     estimated scf accuracy    <       0.84770363 Ry

     iteration #  4     ecut=    50.00 Ry     beta= 0.30
     Davidson diagonalization with overlap
     ethr =  2.62E-04,  avg # of iterations = 10.3

     total cpu time spent up to now is       46.5 secs

     total energy              =    -360.44062609 Ry
     estimated scf accuracy    <       0.03400289 Ry

     iteration #  5     ecut=    50.00 Ry     beta= 0.30
     Davidson diagonalization with overlap
     c_bands:  1 eigenvalues not converged
     c_bands:  1 eigenvalues not converged
     c_bands:  1 eigenvalues not converged
     c_bands:  1 eigenvalues not converged
     c_bands:  1 eigenvalues not converged
     c_bands:  1 eigenvalues not converged
     c_bands:  1 eigenvalues not converged
     c_bands:  1 eigenvalues not converged
     c_bands:  1 eigenvalues not converged
     c_bands:  1 eigenvalues not converged
     ethr =  9.45E-05,  avg # of iterations = 15.1

     total cpu time spent up to now is       63.8 secs

     total energy              =    -360.41162301 Ry
     estimated scf accuracy    <       0.34692292 Ry

     iteration #  6     ecut=    50.00 Ry     beta= 0.30
     Davidson diagonalization with overlap
     ethr =  9.45E-05,  avg # of iterations = 10.6

     total cpu time spent up to now is       77.7 secs

     total energy              =    -360.46231545 Ry
     estimated scf accuracy    <       0.00264602 Ry

     iteration #  7     ecut=    50.00 Ry     beta= 0.30
     Davidson diagonalization with overlap
     c_bands:  1 eigenvalues not converged
     c_bands:  1 eigenvalues not converged
     c_bands:  1 eigenvalues not converged
     c_bands:  1 eigenvalues not converged
     c_bands:  1 eigenvalues not converged
     ethr =  7.35E-06,  avg # of iterations =  9.0

     total cpu time spent up to now is       86.9 secs

     total energy              =    -360.46382252 Ry
     estimated scf accuracy    <       0.00094524 Ry

     iteration #  8     ecut=    50.00 Ry     beta= 0.30
     Davidson diagonalization with overlap
     ethr =  2.63E-06,  avg # of iterations =  5.4

     total cpu time spent up to now is       94.1 secs

     total energy              =    -360.46414588 Ry
     estimated scf accuracy    <       0.00004461 Ry

     iteration #  9     ecut=    50.00 Ry     beta= 0.30
     Davidson diagonalization with overlap
     c_bands:  1 eigenvalues not converged
     c_bands:  1 eigenvalues not converged
     c_bands:  1 eigenvalues not converged
     c_bands:  1 eigenvalues not converged
     c_bands:  2 eigenvalues not converged
     c_bands:  1 eigenvalues not converged
     c_bands:  1 eigenvalues not converged
     c_bands:  1 eigenvalues not converged
     c_bands:  1 eigenvalues not converged
     c_bands:  1 eigenvalues not converged
     c_bands:  1 eigenvalues not converged
     c_bands:  1 eigenvalues not converged
     c_bands:  1 eigenvalues not converged
     c_bands:  1 eigenvalues not converged
     c_bands:  1 eigenvalues not converged
     c_bands:  1 eigenvalues not converged
     c_bands:  1 eigenvalues not converged
     c_bands:  1 eigenvalues not converged
     c_bands:  1 eigenvalues not converged
     c_bands:  1 eigenvalues not converged
     c_bands:  1 eigenvalues not converged
     c_bands:  1 eigenvalues not converged
     c_bands:  1 eigenvalues not converged
     c_bands:  1 eigenvalues not converged
     c_bands:  1 eigenvalues not converged
     c_bands:  1 eigenvalues not converged
     c_bands:  2 eigenvalues not converged
     c_bands:  1 eigenvalues not converged
     c_bands:  1 eigenvalues not converged
     c_bands:  1 eigenvalues not converged
     c_bands:  1 eigenvalues not converged
     c_bands:  1 eigenvalues not converged
     c_bands:  1 eigenvalues not converged
     c_bands:  1 eigenvalues not converged
     c_bands:  1 eigenvalues not converged
     c_bands:  1 eigenvalues not converged
     c_bands:  1 eigenvalues not converged
     c_bands:  1 eigenvalues not converged
     c_bands:  1 eigenvalues not converged
     c_bands:  1 eigenvalues not converged
     c_bands:  1 eigenvalues not converged
     c_bands:  1 eigenvalues not converged
     c_bands:  1 eigenvalues not converged
     c_bands:  1 eigenvalues not converged
     c_bands:  1 eigenvalues not converged
     c_bands:  1 eigenvalues not converged
     c_bands:  1 eigenvalues not converged
     c_bands:  1 eigenvalues not converged
     c_bands:  1 eigenvalues not converged
     c_bands:  1 eigenvalues not converged
     c_bands:  1 eigenvalues not converged
     c_bands:  1 eigenvalues not converged
     c_bands:  1 eigenvalues not converged
     c_bands:  1 eigenvalues not converged
     c_bands:  1 eigenvalues not converged
     c_bands:  1 eigenvalues not converged
     c_bands:  1 eigenvalues not converged
     c_bands:  1 eigenvalues not converged
     c_bands:  1 eigenvalues not converged
     c_bands:  1 eigenvalues not converged
     c_bands:  1 eigenvalues not converged
     c_bands:  1 eigenvalues not converged
     c_bands:  1 eigenvalues not converged
     c_bands:  1 eigenvalues not converged
     c_bands:  1 eigenvalues not converged
     c_bands:  1 eigenvalues not converged
     c_bands:  1 eigenvalues not converged
     c_bands:  1 eigenvalues not converged
     c_bands:  1 eigenvalues not converged
     c_bands:  2 eigenvalues not converged
     c_bands:  1 eigenvalues not converged
     c_bands:  1 eigenvalues not converged
     c_bands:  1 eigenvalues not converged
     c_bands:  1 eigenvalues not converged
     ethr =  1.24E-07,  avg # of iterations = 19.1

     total cpu time spent up to now is      118.8 secs

     total energy              =    -360.46410570 Ry
     estimated scf accuracy    <       0.00534353 Ry

     iteration # 10     ecut=    50.00 Ry     beta= 0.30
     Davidson diagonalization with overlap
     c_bands:  1 eigenvalues not converged
     c_bands:  1 eigenvalues not converged
     c_bands:  1 eigenvalues not converged
     c_bands:  1 eigenvalues not converged
     c_bands:  1 eigenvalues not converged
     c_bands:  1 eigenvalues not converged
     c_bands:  1 eigenvalues not converged
     c_bands:  1 eigenvalues not converged
     c_bands:  1 eigenvalues not converged
     c_bands:  1 eigenvalues not converged
     c_bands:  1 eigenvalues not converged
     c_bands:  1 eigenvalues not converged
     c_bands:  1 eigenvalues not converged
     ethr =  1.24E-07,  avg # of iterations = 15.4

     total cpu time spent up to now is      137.2 secs

     total energy              =    -360.46390359 Ry
     estimated scf accuracy    <       0.00140721 Ry

     iteration # 11     ecut=    50.00 Ry     beta= 0.30
     Davidson diagonalization with overlap
     c_bands:  1 eigenvalues not converged
     c_bands:  1 eigenvalues not converged
     c_bands:  1 eigenvalues not converged
     c_bands:  1 eigenvalues not converged
     c_bands:  1 eigenvalues not converged
     c_bands:  1 eigenvalues not converged
     c_bands:  1 eigenvalues not converged
     c_bands:  1 eigenvalues not converged
     c_bands:  1 eigenvalues not converged
     c_bands:  1 eigenvalues not converged
     c_bands:  1 eigenvalues not converged
     c_bands:  1 eigenvalues not converged
     c_bands:  1 eigenvalues not converged
     c_bands:  1 eigenvalues not converged
     c_bands:  1 eigenvalues not converged
     c_bands:  1 eigenvalues not converged
     c_bands:  1 eigenvalues not converged
     c_bands:  1 eigenvalues not converged
     c_bands:  1 eigenvalues not converged
     c_bands:  1 eigenvalues not converged
     c_bands:  1 eigenvalues not converged
     c_bands:  1 eigenvalues not converged
     c_bands:  1 eigenvalues not converged
     ethr =  1.24E-07,  avg # of iterations = 16.7

     total cpu time spent up to now is      156.0 secs

     total energy              =    -360.46408676 Ry
     estimated scf accuracy    <       0.00000242 Ry

     iteration # 12     ecut=    50.00 Ry     beta= 0.30
     Davidson diagonalization with overlap
     c_bands:  1 eigenvalues not converged
     c_bands:  1 eigenvalues not converged
     c_bands:  1 eigenvalues not converged
     c_bands:  1 eigenvalues not converged
     c_bands:  1 eigenvalues not converged
     c_bands:  1 eigenvalues not converged
     c_bands:  1 eigenvalues not converged
     ethr =  6.72E-09,  avg # of iterations = 12.6

     total cpu time spent up to now is      168.7 secs

     total energy              =    -360.46409104 Ry
     estimated scf accuracy    <       0.00001527 Ry

     iteration # 13     ecut=    50.00 Ry     beta= 0.30
     Davidson diagonalization with overlap
     ethr =  6.72E-09,  avg # of iterations =  1.5

     total cpu time spent up to now is      174.0 secs

     total energy              =    -360.46408435 Ry
     estimated scf accuracy    <       0.00001253 Ry

     iteration # 14     ecut=    50.00 Ry     beta= 0.30
     Davidson diagonalization with overlap
     c_bands:  1 eigenvalues not converged
     c_bands:  1 eigenvalues not converged
     c_bands:  1 eigenvalues not converged
     c_bands:  1 eigenvalues not converged
     c_bands:  1 eigenvalues not converged
     c_bands:  1 eigenvalues not converged
     c_bands:  1 eigenvalues not converged
     c_bands:  1 eigenvalues not converged
     c_bands:  1 eigenvalues not converged
     c_bands:  1 eigenvalues not converged
     c_bands:  1 eigenvalues not converged
     c_bands:  1 eigenvalues not converged
     c_bands:  1 eigenvalues not converged
     c_bands:  1 eigenvalues not converged
     c_bands:  1 eigenvalues not converged
     c_bands:  1 eigenvalues not converged
     c_bands:  1 eigenvalues not converged
     ethr =  6.72E-09,  avg # of iterations = 16.3

     total cpu time spent up to now is      191.8 secs

     total energy              =    -360.46408937 Ry
     estimated scf accuracy    <       0.00002313 Ry

     iteration # 15     ecut=    50.00 Ry     beta= 0.30
     Davidson diagonalization with overlap
     ethr =  6.72E-09,  avg # of iterations =  7.5

     total cpu time spent up to now is      199.4 secs

     total energy              =    -360.46408859 Ry
     estimated scf accuracy    <       0.00000706 Ry

     iteration # 16     ecut=    50.00 Ry     beta= 0.30
     Davidson diagonalization with overlap
     ethr =  6.72E-09,  avg # of iterations =  4.9

     total cpu time spent up to now is      206.7 secs

     total energy              =    -360.46408884 Ry
     estimated scf accuracy    <       0.00000140 Ry

     iteration # 17     ecut=    50.00 Ry     beta= 0.30
     Davidson diagonalization with overlap
     c_bands:  1 eigenvalues not converged
     ethr =  3.88E-09,  avg # of iterations =  9.0

     total cpu time spent up to now is      216.0 secs

     total energy              =    -360.46408954 Ry
     estimated scf accuracy    <       0.00000050 Ry

     iteration # 18     ecut=    50.00 Ry     beta= 0.30
     Davidson diagonalization with overlap
     ethr =  1.39E-09,  avg # of iterations =  2.6

     total cpu time spent up to now is      221.7 secs

     total energy              =    -360.46408949 Ry
     estimated scf accuracy    <       0.00000031 Ry

     iteration # 19     ecut=    50.00 Ry     beta= 0.30
     Davidson diagonalization with overlap
     ethr =  8.71E-10,  avg # of iterations =  5.5

     total cpu time spent up to now is      228.8 secs

     End of self-consistent calculation

     Number of k-points >= 100: set verbosity='high' to print the bands.

     highest occupied level (ev):     6.2898

!    total energy              =    -360.46408957 Ry
     estimated scf accuracy    <          3.1E-09 Ry

     The total energy is the sum of the following terms:
     one-electron contribution =    -209.35966252 Ry
     hartree contribution      =     141.84859734 Ry
     xc contribution           =    -109.56545172 Ry
     ewald contribution        =    -183.38757267 Ry

     convergence has been achieved in  19 iterations

     Forces acting on atoms (cartesian axes, Ry/au):

     atom    1 type  1   force =    -0.30840223   -0.00380726   -0.29163303
     atom    2 type  1   force =    -2.04794574    0.36453033    0.40890839
     atom    3 type  2   force =     0.33244127    0.08775192    0.13403350
     atom    4 type  2   force =     2.02390670   -0.44847499   -0.25130885
     The non-local contrib.  to forces
     atom    1 type  1   force =    -0.84495229   -0.04113192   -0.79438365
     atom    2 type  1   force =    -1.09307624    0.22733008    0.13932398
     atom    3 type  2   force =    -0.57656848    0.12465477   -0.93660109
     atom    4 type  2   force =    -0.62922337    0.24686919    0.63758894
     The ionic contribution  to forces
     atom    1 type  1   force =    -7.21767173    0.85948716  -17.40128562
     atom    2 type  1   force =   -18.51861577    2.79624409   14.67177988
     atom    3 type  2   force =     8.12637085    1.85886596    1.08015594
     atom    4 type  2   force =    17.60991664   -5.51459721    1.64934980
     The local contribution  to forces
     atom    1 type  1   force =     7.68155556   -0.82305056   17.82774019
     atom    2 type  1   force =    17.34115201   -2.61202692  -14.35504609
     atom    3 type  2   force =    -7.21999080   -1.89388222   -0.01682943
     atom    4 type  2   force =   -14.95255183    4.81935261   -2.53371176
     The core correction contribution to forces
     atom    1 type  1   force =     0.07262508    0.00092275    0.07623685
     atom    2 type  1   force =     0.22274608   -0.04704697   -0.04718596
     atom    3 type  2   force =     0.00265118   -0.00188692    0.00736866
     atom    4 type  2   force =    -0.00424681   -0.00010179   -0.00452074
     The Hubbard contrib.    to forces
     atom    1 type  1   force =     0.00000000    0.00000000    0.00000000
     atom    2 type  1   force =     0.00000000    0.00000000    0.00000000
     atom    3 type  2   force =     0.00000000    0.00000000    0.00000000
     atom    4 type  2   force =     0.00000000    0.00000000    0.00000000
     The SCF correction term to forces
     atom    1 type  1   force =     0.00004333   -0.00004054    0.00008712
     atom    2 type  1   force =    -0.00014964    0.00002420    0.00006450
     atom    3 type  2   force =    -0.00001929   -0.00000553   -0.00003267
     atom    4 type  2   force =     0.00001425   -0.00000365    0.00001282

     Total force =     3.028368     Total SCF correction =     0.000200

     Writing all to output data dir ./ZnO_ANN.save/

     init_run     :      4.01s CPU      4.10s WALL (       1 calls)
     electrons    :    220.95s CPU    224.30s WALL (       1 calls)
     forces       :      1.30s CPU      1.32s WALL (       1 calls)

     Called by init_run:
     wfcinit      :      2.91s CPU      2.96s WALL (       1 calls)
     potinit      :      0.39s CPU      0.40s WALL (       1 calls)
     hinit0       :      0.62s CPU      0.63s WALL (       1 calls)

     Called by electrons:
     c_bands      :    203.96s CPU    206.95s WALL (      19 calls)
     sum_band     :     15.30s CPU     15.62s WALL (      19 calls)
     v_of_rho     :      0.38s CPU      0.42s WALL (      20 calls)
     newd         :      1.29s CPU      1.32s WALL (      20 calls)
     mix_rho      :      0.05s CPU      0.06s WALL (      19 calls)

     Called by c_bands:
     init_us_2    :      1.08s CPU      1.10s WALL (    4480 calls)
     init_us_2:cp :      1.07s CPU      1.09s WALL (    4480 calls)
     cegterg      :    200.28s CPU    203.21s WALL (    2128 calls)

     Called by *egterg:
     cdiaghg      :     23.64s CPU     23.83s WALL (   22482 calls)
     h_psi        :    108.86s CPU    110.94s WALL (   22594 calls)
     s_psi        :     11.59s CPU     11.69s WALL (   22594 calls)
     g_psi        :      0.44s CPU      0.45s WALL (   20354 calls)

     Called by h_psi:
     h_psi:calbec :     15.87s CPU     16.33s WALL (   22594 calls)
     vloc_psi     :     81.00s CPU     82.53s WALL (   22594 calls)
     add_vuspsi   :     11.62s CPU     11.73s WALL (   22594 calls)

     General routines
     calbec       :     20.06s CPU     20.60s WALL (   25170 calls)
     fft          :      0.52s CPU      0.57s WALL (     269 calls)
     ffts         :      0.15s CPU      0.15s WALL (      39 calls)
     fftw         :     80.68s CPU     82.22s WALL (  377138 calls)
     interpolate  :      0.17s CPU      0.17s WALL (      20 calls)

     Parallel routines

     PWSCF        :   3m46.98s CPU   3m50.68s WALL


   This run was terminated on:  19:34: 0  24Jun2025            

=------------------------------------------------------------------------------=
   JOB DONE.
=------------------------------------------------------------------------------=
Note: The following floating-point exceptions are signalling: IEEE_INVALID_FLAG
