
     Program PWSCF v.7.2 starts on 24Jun2025 at 19:38:25 

     This program is part of the open-source Quantum ESPRESSO suite
     for quantum simulation of materials; please cite
         "P. Giannozzi et al., J. Phys.:Condens. Matter 21 395502 (2009);
         "P. Giannozzi et al., J. Phys.:Condens. Matter 29 465901 (2017);
         "P. Giannozzi et al., J. Chem. Phys. 152 154105 (2020);
          URL http://www.quantum-espresso.org", 
     in publications or presentations arising from this work. More details at
     http://www.quantum-espresso.org/quote

     Parallel version (MPI), running on     8 processors

     MPI processes distributed on     1 nodes
     90768 MiB available memory on the printing compute node when the environment starts

     Reading input from /home/jvc/QEspresso7.2/ZnO_DataBase/scf_025_NOSYM.in/scf-6.67-1.45-0.25-2.in

     Current dimensions of program PWSCF are:
     Max number of different atomic species (ntypx) = 10
     Max number of k-points (npk) =  40000
     Max angular momentum in pseudopotentials (lmaxx) =  4
     file Zn.upf: wavefunction(s)  3D renormalized

     R & G space division:  proc/nbgrp/npool/nimage =       8
     Subspace diagonalization in iterative solution of the eigenvalue problem:
     a serial algorithm will be used


     Parallelization info
     --------------------
     sticks:   dense  smooth     PW     G-vecs:    dense   smooth      PW
     Min         154      75     23                 6952     2457     407
     Max         155      78     24                 6957     2461     412
     Sum        1237     613    187                55639    19669    3273

     Using Slab Decomposition



     bravais-lattice index     =            0
     lattice parameter (alat)  =       6.6731  a.u.
     unit-cell volume          =     411.7549 (a.u.)^3
     number of atoms/cell      =            4
     number of atomic types    =            2
     number of electrons       =        36.00
     number of Kohn-Sham states=           18
     kinetic-energy cutoff     =      50.0000  Ry
     charge density cutoff     =     400.0000  Ry
     scf convergence threshold =      1.0E-08
     mixing beta               =       0.3000
     number of iterations used =            8  plain     mixing
     Exchange-correlation= PBE
                           (   1   4   3   4   0   0   0)

     celldm(1)=   6.673127  celldm(2)=   0.000000  celldm(3)=   0.000000
     celldm(4)=   0.000000  celldm(5)=   0.000000  celldm(6)=   0.000000

     crystal axes: (cart. coord. in units of alat)
               a(1) = (   1.000000   0.000000   0.000000 )  
               a(2) = (  -0.500000   0.866025   0.000000 )  
               a(3) = (   0.000000   0.000000   1.600000 )  

     reciprocal axes: (cart. coord. in units 2 pi/alat)
               b(1) = (  1.000000  0.577350 -0.000000 )  
               b(2) = (  0.000000  1.154701  0.000000 )  
               b(3) = (  0.000000 -0.000000  0.625000 )  


     PseudoPot. # 1 for Zn read from file:
     ./pseudos/Zn.upf
     MD5 check sum: 7f56cabf9682ed8c977c2f7d0c5985c5
     Pseudo is Ultrasoft + core correction, Zval = 12.0
     Generated using &quot;atomic&quot; code by A. Dal Corso  v.6.2.2
     Using radial grid of 1201 points,  6 beta functions with: 
                l(1) =   0
                l(2) =   0
                l(3) =   1
                l(4) =   1
                l(5) =   2
                l(6) =   2
     Q(r) pseudized with 0 coefficients 


     PseudoPot. # 2 for O  read from file:
     ./pseudos/O.upf
     MD5 check sum: 91400c9766925bcf19f520983a725ff0
     Pseudo is Ultrasoft + core correction, Zval =  6.0
     Generated using &quot;atomic&quot; code by A. Dal Corso  v.6.3MaX
     Using radial grid of 1095 points,  4 beta functions with: 
                l(1) =   0
                l(2) =   0
                l(3) =   1
                l(4) =   1
     Q(r) pseudized with 0 coefficients 


     atomic species   valence    mass     pseudopotential
        Zn            12.00    63.38000     Zn( 1.00)
        O              6.00    15.99900     O ( 1.00)

     No symmetry found



   Cartesian axes

     site n.     atom                  positions (alat units)
         1           Zn  tau(   1) = (   0.7967642   0.1662690   0.8393646  )
         2           Zn  tau(   2) = (   0.3099622   0.4068481   0.2961255  )
         3           O   tau(   3) = (   0.5705828   0.4397544   1.0500152  )
         4           O   tau(   4) = (   0.3032764   0.4713864   0.4725437  )

     number of k points=   112

     Number of k-points >= 100: set verbosity='high' to print them.

     Dense  grid:    55639 G-vectors     FFT dimensions: (  45,  45,  72)

     Smooth grid:    19669 G-vectors     FFT dimensions: (  32,  32,  50)

     Estimated max dynamical RAM per process >      37.53 MB

     Estimated total dynamical RAM >     300.20 MB

     Check: negative core charge=   -0.000002

     Initial potential from superposition of free atoms

     starting charge      35.9925, renormalised to      36.0000
     Starting wfcs are   26 randomized atomic wfcs

     total cpu time spent up to now is        4.5 secs

     Self-consistent Calculation

     iteration #  1     ecut=    50.00 Ry     beta= 0.30
     Davidson diagonalization with overlap
     ethr =  1.00E-02,  avg # of iterations =  5.6

     total cpu time spent up to now is       14.5 secs

     total energy              =    -345.91662543 Ry
     estimated scf accuracy    <       1.46412219 Ry

     iteration #  2     ecut=    50.00 Ry     beta= 0.30
     Davidson diagonalization with overlap
     ethr =  4.07E-03,  avg # of iterations =  2.1

     total cpu time spent up to now is       20.5 secs

     total energy              =    -345.73824841 Ry
     estimated scf accuracy    <       0.41897352 Ry

     iteration #  3     ecut=    50.00 Ry     beta= 0.30
     Davidson diagonalization with overlap
     ethr =  1.16E-03,  avg # of iterations =  9.4

     total cpu time spent up to now is       31.6 secs

     total energy              =    -346.28590843 Ry
     estimated scf accuracy    <       1.99000517 Ry

     iteration #  4     ecut=    50.00 Ry     beta= 0.30
     Davidson diagonalization with overlap
     ethr =  1.16E-03,  avg # of iterations =  1.0

     total cpu time spent up to now is       36.7 secs

     total energy              =    -346.65552310 Ry
     estimated scf accuracy    <       1.77429298 Ry

     iteration #  5     ecut=    50.00 Ry     beta= 0.30
     Davidson diagonalization with overlap
     ethr =  1.16E-03,  avg # of iterations =  4.0

     total cpu time spent up to now is       42.9 secs

     total energy              =    -345.97301776 Ry
     estimated scf accuracy    <       3.07966442 Ry

     iteration #  6     ecut=    50.00 Ry     beta= 0.30
     Davidson diagonalization with overlap
     ethr =  1.16E-03,  avg # of iterations =  6.8

     total cpu time spent up to now is       50.2 secs

     total energy              =    -345.84729518 Ry
     estimated scf accuracy    <       0.66975165 Ry

     iteration #  7     ecut=    50.00 Ry     beta= 0.30
     Davidson diagonalization with overlap
     ethr =  1.16E-03,  avg # of iterations =  6.0

     total cpu time spent up to now is       58.2 secs

     total energy              =    -346.03384162 Ry
     estimated scf accuracy    <       0.05097073 Ry

     iteration #  8     ecut=    50.00 Ry     beta= 0.30
     Davidson diagonalization with overlap
     ethr =  1.42E-04,  avg # of iterations =  3.2

     total cpu time spent up to now is       64.5 secs

     total energy              =    -346.03622623 Ry
     estimated scf accuracy    <       0.02950484 Ry

     iteration #  9     ecut=    50.00 Ry     beta= 0.30
     Davidson diagonalization with overlap
     ethr =  8.20E-05,  avg # of iterations =  4.6

     total cpu time spent up to now is       71.0 secs

     total energy              =    -346.04134466 Ry
     estimated scf accuracy    <       0.00256623 Ry

     iteration # 10     ecut=    50.00 Ry     beta= 0.30
     Davidson diagonalization with overlap
     ethr =  7.13E-06,  avg # of iterations =  5.7

     total cpu time spent up to now is       79.6 secs

     total energy              =    -346.04260014 Ry
     estimated scf accuracy    <       0.00033564 Ry

     iteration # 11     ecut=    50.00 Ry     beta= 0.30
     Davidson diagonalization with overlap
     ethr =  9.32E-07,  avg # of iterations =  6.3

     total cpu time spent up to now is       87.9 secs

     total energy              =    -346.04266671 Ry
     estimated scf accuracy    <       0.00061156 Ry

     iteration # 12     ecut=    50.00 Ry     beta= 0.30
     Davidson diagonalization with overlap
     ethr =  9.32E-07,  avg # of iterations =  1.9

     total cpu time spent up to now is       93.4 secs

     total energy              =    -346.04252723 Ry
     estimated scf accuracy    <       0.00038282 Ry

     iteration # 13     ecut=    50.00 Ry     beta= 0.30
     Davidson diagonalization with overlap
     ethr =  9.32E-07,  avg # of iterations =  6.0

     total cpu time spent up to now is      101.5 secs

     total energy              =    -346.04262669 Ry
     estimated scf accuracy    <       0.00013966 Ry

     iteration # 14     ecut=    50.00 Ry     beta= 0.30
     Davidson diagonalization with overlap
     ethr =  3.88E-07,  avg # of iterations =  2.0

     total cpu time spent up to now is      107.3 secs

     total energy              =    -346.04262416 Ry
     estimated scf accuracy    <       0.00003296 Ry

     iteration # 15     ecut=    50.00 Ry     beta= 0.30
     Davidson diagonalization with overlap
     ethr =  9.16E-08,  avg # of iterations =  5.1

     total cpu time spent up to now is      116.0 secs

     total energy              =    -346.04264155 Ry
     estimated scf accuracy    <       0.00000600 Ry

     iteration # 16     ecut=    50.00 Ry     beta= 0.30
     Davidson diagonalization with overlap
     ethr =  1.67E-08,  avg # of iterations =  2.9

     total cpu time spent up to now is      122.3 secs

     total energy              =    -346.04264163 Ry
     estimated scf accuracy    <       0.00000142 Ry

     iteration # 17     ecut=    50.00 Ry     beta= 0.30
     Davidson diagonalization with overlap
     ethr =  3.94E-09,  avg # of iterations =  5.7

     total cpu time spent up to now is      132.4 secs

     total energy              =    -346.04264220 Ry
     estimated scf accuracy    <       0.00000083 Ry

     iteration # 18     ecut=    50.00 Ry     beta= 0.30
     Davidson diagonalization with overlap
     ethr =  2.31E-09,  avg # of iterations =  5.3

     total cpu time spent up to now is      140.9 secs

     total energy              =    -346.04264246 Ry
     estimated scf accuracy    <       0.00000013 Ry

     iteration # 19     ecut=    50.00 Ry     beta= 0.30
     Davidson diagonalization with overlap
     ethr =  3.63E-10,  avg # of iterations =  4.2

     total cpu time spent up to now is      148.5 secs

     total energy              =    -346.04264249 Ry
     estimated scf accuracy    <       0.00000001 Ry

     iteration # 20     ecut=    50.00 Ry     beta= 0.30
     Davidson diagonalization with overlap
     ethr =  2.91E-11,  avg # of iterations =  7.1

     total cpu time spent up to now is      160.6 secs

     total energy              =    -346.04264249 Ry
     estimated scf accuracy    <       0.00000002 Ry

     iteration # 21     ecut=    50.00 Ry     beta= 0.30
     Davidson diagonalization with overlap
     ethr =  2.91E-11,  avg # of iterations =  6.3

     total cpu time spent up to now is      171.2 secs

     End of self-consistent calculation

     Number of k-points >= 100: set verbosity='high' to print the bands.

     highest occupied level (ev):     5.5777

!    total energy              =    -346.04264249 Ry
     estimated scf accuracy    <          3.1E-09 Ry

     The total energy is the sum of the following terms:
     one-electron contribution =    -302.58731511 Ry
     hartree contribution      =     183.07546477 Ry
     xc contribution           =    -112.12541115 Ry
     ewald contribution        =    -114.40538101 Ry

     convergence has been achieved in  21 iterations

     Forces acting on atoms (cartesian axes, Ry/au):

     atom    1 type  1   force =     0.39834148   -0.49499855   -0.19186955
     atom    2 type  1   force =     1.33693243  -13.03076881  -35.69319430
     atom    3 type  2   force =    -0.34560066    0.47382244    0.37322696
     atom    4 type  2   force =    -1.38967325   13.05194492   35.51183689
     The non-local contrib.  to forces
     atom    1 type  1   force =     0.81944362   -1.00346368   -1.04059280
     atom    2 type  1   force =    -0.69493538    5.76355239   15.95191420
     atom    3 type  2   force =     0.61189300   -0.46869463   -0.72131657
     atom    4 type  2   force =    -0.01243573   -1.50489749   -4.70045278
     The ionic contribution  to forces
     atom    1 type  1   force =     6.90793910   -7.92821390    9.43525200
     atom    2 type  1   force =     2.47819752  -30.08264008 -100.99847634
     atom    3 type  2   force =    -5.52958385    7.77840829   16.98050523
     atom    4 type  2   force =    -3.85655277   30.23244569   74.58271911
     The local contribution  to forces
     atom    1 type  1   force =    -7.25575425    8.35002133   -8.65900518
     atom    2 type  1   force =    -0.40598068   10.87416060   48.21418349
     atom    3 type  2   force =     4.57563155   -6.83709589  -15.88984265
     atom    4 type  2   force =     2.47493433  -15.64462888  -34.29139303
     The core correction contribution to forces
     atom    1 type  1   force =    -0.07325037    0.08664633    0.07250164
     atom    2 type  1   force =    -0.04035526    0.41408807    1.13895236
     atom    3 type  2   force =    -0.00352877    0.00121890    0.00397201
     atom    4 type  2   force =     0.00436496   -0.03094575   -0.07898982
     The Hubbard contrib.    to forces
     atom    1 type  1   force =     0.00000000    0.00000000    0.00000000
     atom    2 type  1   force =     0.00000000    0.00000000    0.00000000
     atom    3 type  2   force =     0.00000000    0.00000000    0.00000000
     atom    4 type  2   force =     0.00000000    0.00000000    0.00000000
     The SCF correction term to forces
     atom    1 type  1   force =    -0.00003909    0.00003482    0.00005810
     atom    2 type  1   force =     0.00000379    0.00009368    0.00031529
     atom    3 type  2   force =    -0.00001505    0.00000922   -0.00000775
     atom    4 type  2   force =     0.00001349   -0.00000518    0.00003672

     Total force =    53.664618     Total SCF correction =     0.000341

     Writing all to output data dir ./ZnO_ANN.save/

     init_run     :      3.92s CPU      4.02s WALL (       1 calls)
     electrons    :    164.13s CPU    166.70s WALL (       1 calls)
     forces       :      1.46s CPU      1.48s WALL (       1 calls)

     Called by init_run:
     wfcinit      :      2.86s CPU      2.92s WALL (       1 calls)
     potinit      :      0.39s CPU      0.40s WALL (       1 calls)
     hinit0       :      0.57s CPU      0.58s WALL (       1 calls)

     Called by electrons:
     c_bands      :    145.60s CPU    147.78s WALL (      21 calls)
     sum_band     :     16.51s CPU     16.84s WALL (      21 calls)
     v_of_rho     :      0.41s CPU      0.46s WALL (      22 calls)
     newd         :      1.57s CPU      1.60s WALL (      22 calls)
     mix_rho      :      0.07s CPU      0.07s WALL (      21 calls)

     Called by c_bands:
     init_us_2    :      1.24s CPU      1.25s WALL (    4928 calls)
     init_us_2:cp :      1.22s CPU      1.24s WALL (    4928 calls)
     cegterg      :    141.33s CPU    143.46s WALL (    2352 calls)

     Called by *egterg:
     cdiaghg      :     13.73s CPU     13.83s WALL (   13703 calls)
     h_psi        :     77.81s CPU     79.38s WALL (   13815 calls)
     s_psi        :      8.92s CPU      9.00s WALL (   13815 calls)
     g_psi        :      0.31s CPU      0.31s WALL (   11351 calls)

     Called by h_psi:
     h_psi:calbec :     12.88s CPU     13.20s WALL (   13815 calls)
     vloc_psi     :     55.77s CPU     56.97s WALL (   13815 calls)
     add_vuspsi   :      8.90s CPU      8.97s WALL (   13815 calls)

     General routines
     calbec       :     17.70s CPU     18.12s WALL (   16615 calls)
     fft          :      0.62s CPU      0.67s WALL (     295 calls)
     ffts         :      0.13s CPU      0.13s WALL (      43 calls)
     fftw         :     57.24s CPU     58.46s WALL (  302448 calls)
     interpolate  :      0.14s CPU      0.15s WALL (      22 calls)

     Parallel routines

     PWSCF        :   2m50.30s CPU   2m53.30s WALL


   This run was terminated on:  19:41:18  24Jun2025            

=------------------------------------------------------------------------------=
   JOB DONE.
=------------------------------------------------------------------------------=
Note: The following floating-point exceptions are signalling: IEEE_INVALID_FLAG
