
     Program PWSCF v.7.2 starts on 24Jun2025 at 20:54:22 

     This program is part of the open-source Quantum ESPRESSO suite
     for quantum simulation of materials; please cite
         "P. Giannozzi et al., J. Phys.:Condens. Matter 21 395502 (2009);
         "P. Giannozzi et al., J. Phys.:Condens. Matter 29 465901 (2017);
         "P. Giannozzi et al., J. Chem. Phys. 152 154105 (2020);
          URL http://www.quantum-espresso.org", 
     in publications or presentations arising from this work. More details at
     http://www.quantum-espresso.org/quote

     Parallel version (MPI), running on     8 processors

     MPI processes distributed on     1 nodes
     90577 MiB available memory on the printing compute node when the environment starts

     Reading input from /home/jvc/QEspresso7.2/ZnO_DataBase/scf_025_NOSYM.in/scf-6.80-1.61-0.25-3.in

     Current dimensions of program PWSCF are:
     Max number of different atomic species (ntypx) = 10
     Max number of k-points (npk) =  40000
     Max angular momentum in pseudopotentials (lmaxx) =  4
     file Zn.upf: wavefunction(s)  3D renormalized

     R & G space division:  proc/nbgrp/npool/nimage =       8
     Subspace diagonalization in iterative solution of the eigenvalue problem:
     a serial algorithm will be used


     Parallelization info
     --------------------
     sticks:   dense  smooth     PW     G-vecs:    dense   smooth      PW
     Min         160      81     24                 7354     2595     429
     Max         162      82     26                 7355     2598     432
     Sum        1285     649    199                58833    20773    3441

     Using Slab Decomposition



     bravais-lattice index     =            0
     lattice parameter (alat)  =       6.7967  a.u.
     unit-cell volume          =     435.0564 (a.u.)^3
     number of atoms/cell      =            4
     number of atomic types    =            2
     number of electrons       =        36.00
     number of Kohn-Sham states=           18
     kinetic-energy cutoff     =      50.0000  Ry
     charge density cutoff     =     400.0000  Ry
     scf convergence threshold =      1.0E-08
     mixing beta               =       0.3000
     number of iterations used =            8  plain     mixing
     Exchange-correlation= PBE
                           (   1   4   3   4   0   0   0)

     celldm(1)=   6.796704  celldm(2)=   0.000000  celldm(3)=   0.000000
     celldm(4)=   0.000000  celldm(5)=   0.000000  celldm(6)=   0.000000

     crystal axes: (cart. coord. in units of alat)
               a(1) = (   1.000000   0.000000   0.000000 )  
               a(2) = (  -0.500000   0.866025   0.000000 )  
               a(3) = (   0.000000   0.000000   1.600000 )  

     reciprocal axes: (cart. coord. in units 2 pi/alat)
               b(1) = (  1.000000  0.577350 -0.000000 )  
               b(2) = (  0.000000  1.154701  0.000000 )  
               b(3) = (  0.000000 -0.000000  0.625000 )  


     PseudoPot. # 1 for Zn read from file:
     ./pseudos/Zn.upf
     MD5 check sum: 7f56cabf9682ed8c977c2f7d0c5985c5
     Pseudo is Ultrasoft + core correction, Zval = 12.0
     Generated using &quot;atomic&quot; code by A. Dal Corso  v.6.2.2
     Using radial grid of 1201 points,  6 beta functions with: 
                l(1) =   0
                l(2) =   0
                l(3) =   1
                l(4) =   1
                l(5) =   2
                l(6) =   2
     Q(r) pseudized with 0 coefficients 


     PseudoPot. # 2 for O  read from file:
     ./pseudos/O.upf
     MD5 check sum: 91400c9766925bcf19f520983a725ff0
     Pseudo is Ultrasoft + core correction, Zval =  6.0
     Generated using &quot;atomic&quot; code by A. Dal Corso  v.6.3MaX
     Using radial grid of 1095 points,  4 beta functions with: 
                l(1) =   0
                l(2) =   0
                l(3) =   1
                l(4) =   1
     Q(r) pseudized with 0 coefficients 


     atomic species   valence    mass     pseudopotential
        Zn            12.00    63.38000     Zn( 1.00)
        O              6.00    15.99900     O ( 1.00)

     No symmetry found



   Cartesian axes

     site n.     atom                  positions (alat units)
         1           Zn  tau(   1) = (   0.6176342   0.2539061   0.5550385  )
         2           Zn  tau(   2) = (   0.1106627   0.4986767  -0.2533910  )
         3           O   tau(   3) = (   0.6785560   0.0729249   1.6457068  )
         4           O   tau(   4) = (   0.0892717   0.4127392   0.2301781  )

     number of k points=   112

     Number of k-points >= 100: set verbosity='high' to print them.

     Dense  grid:    58833 G-vectors     FFT dimensions: (  45,  45,  72)

     Smooth grid:    20773 G-vectors     FFT dimensions: (  32,  32,  50)

     Estimated max dynamical RAM per process >      39.41 MB

     Estimated total dynamical RAM >     315.24 MB

     Check: negative core charge=   -0.000002

     Initial potential from superposition of free atoms

     starting charge      35.9925, renormalised to      36.0000
     Starting wfcs are   26 randomized atomic wfcs

     total cpu time spent up to now is        4.7 secs

     Self-consistent Calculation

     iteration #  1     ecut=    50.00 Ry     beta= 0.30
     Davidson diagonalization with overlap
     ethr =  1.00E-02,  avg # of iterations =  2.0

     total cpu time spent up to now is       10.7 secs

     total energy              =    -360.40353753 Ry
     estimated scf accuracy    <       2.08663958 Ry

     iteration #  2     ecut=    50.00 Ry     beta= 0.30
     Davidson diagonalization with overlap
     ethr =  5.80E-03,  avg # of iterations =  7.3

     total cpu time spent up to now is       19.7 secs

     total energy              =    -361.02740525 Ry
     estimated scf accuracy    <       0.89319692 Ry

     iteration #  3     ecut=    50.00 Ry     beta= 0.30
     Davidson diagonalization with overlap
     ethr =  2.48E-03,  avg # of iterations =  1.9

     total cpu time spent up to now is       25.6 secs

     total energy              =    -360.79435653 Ry
     estimated scf accuracy    <       0.47404256 Ry

     iteration #  4     ecut=    50.00 Ry     beta= 0.30
     Davidson diagonalization with overlap
     c_bands:  1 eigenvalues not converged
     ethr =  1.32E-03,  avg # of iterations = 11.2

     total cpu time spent up to now is       38.2 secs

     total energy              =    -361.09101785 Ry
     estimated scf accuracy    <       1.51931821 Ry

     iteration #  5     ecut=    50.00 Ry     beta= 0.30
     Davidson diagonalization with overlap
     ethr =  1.32E-03,  avg # of iterations =  1.7

     total cpu time spent up to now is       43.9 secs

     total energy              =    -360.96945630 Ry
     estimated scf accuracy    <       0.92206826 Ry

     iteration #  6     ecut=    50.00 Ry     beta= 0.30
     Davidson diagonalization with overlap
     ethr =  1.32E-03,  avg # of iterations =  4.9

     total cpu time spent up to now is       51.2 secs

     total energy              =    -361.05247287 Ry
     estimated scf accuracy    <       0.08025971 Ry

     iteration #  7     ecut=    50.00 Ry     beta= 0.30
     Davidson diagonalization with overlap
     c_bands:  2 eigenvalues not converged
     c_bands:  1 eigenvalues not converged
     c_bands:  2 eigenvalues not converged
     c_bands:  1 eigenvalues not converged
     c_bands:  1 eigenvalues not converged
     c_bands:  1 eigenvalues not converged
     c_bands:  1 eigenvalues not converged
     ethr =  2.23E-04,  avg # of iterations =  9.7

     total cpu time spent up to now is       62.6 secs

     total energy              =    -361.16057828 Ry
     estimated scf accuracy    <       0.19561826 Ry

     iteration #  8     ecut=    50.00 Ry     beta= 0.30
     Davidson diagonalization with overlap
     ethr =  2.23E-04,  avg # of iterations =  1.3

     total cpu time spent up to now is       68.1 secs

     total energy              =    -361.12406001 Ry
     estimated scf accuracy    <       0.19275916 Ry

     iteration #  9     ecut=    50.00 Ry     beta= 0.30
     Davidson diagonalization with overlap
     ethr =  2.23E-04,  avg # of iterations =  2.7

     total cpu time spent up to now is       74.2 secs

     total energy              =    -361.11693089 Ry
     estimated scf accuracy    <       0.08918969 Ry

     iteration # 10     ecut=    50.00 Ry     beta= 0.30
     Davidson diagonalization with overlap
     ethr =  2.23E-04,  avg # of iterations =  1.9

     total cpu time spent up to now is       80.0 secs

     total energy              =    -361.12209200 Ry
     estimated scf accuracy    <       0.05053863 Ry

     iteration # 11     ecut=    50.00 Ry     beta= 0.30
     Davidson diagonalization with overlap
     ethr =  1.40E-04,  avg # of iterations =  2.4

     total cpu time spent up to now is       86.2 secs

     total energy              =    -361.13098985 Ry
     estimated scf accuracy    <       0.03583988 Ry

     iteration # 12     ecut=    50.00 Ry     beta= 0.30
     Davidson diagonalization with overlap
     ethr =  9.96E-05,  avg # of iterations =  1.2

     total cpu time spent up to now is       91.7 secs

     total energy              =    -361.12470358 Ry
     estimated scf accuracy    <       0.04457937 Ry

     iteration # 13     ecut=    50.00 Ry     beta= 0.30
     Davidson diagonalization with overlap
     ethr =  9.96E-05,  avg # of iterations =  2.4

     total cpu time spent up to now is       97.8 secs

     total energy              =    -361.13134575 Ry
     estimated scf accuracy    <       0.01887904 Ry

     iteration # 14     ecut=    50.00 Ry     beta= 0.30
     Davidson diagonalization with overlap
     ethr =  5.24E-05,  avg # of iterations =  1.4

     total cpu time spent up to now is      103.4 secs

     total energy              =    -361.12483675 Ry
     estimated scf accuracy    <       0.02474258 Ry

     iteration # 15     ecut=    50.00 Ry     beta= 0.30
     Davidson diagonalization with overlap
     ethr =  5.24E-05,  avg # of iterations =  4.7

     total cpu time spent up to now is      110.3 secs

     total energy              =    -361.12913947 Ry
     estimated scf accuracy    <       0.00090893 Ry

     iteration # 16     ecut=    50.00 Ry     beta= 0.30
     Davidson diagonalization with overlap
     c_bands:  1 eigenvalues not converged
     c_bands:  1 eigenvalues not converged
     c_bands:  1 eigenvalues not converged
     c_bands:  1 eigenvalues not converged
     c_bands:  1 eigenvalues not converged
     c_bands:  1 eigenvalues not converged
     c_bands:  1 eigenvalues not converged
     c_bands:  1 eigenvalues not converged
     c_bands:  1 eigenvalues not converged
     c_bands:  1 eigenvalues not converged
     c_bands:  1 eigenvalues not converged
     c_bands:  1 eigenvalues not converged
     c_bands:  2 eigenvalues not converged
     c_bands:  1 eigenvalues not converged
     c_bands:  1 eigenvalues not converged
     c_bands:  1 eigenvalues not converged
     c_bands:  1 eigenvalues not converged
     c_bands:  1 eigenvalues not converged
     c_bands:  1 eigenvalues not converged
     ethr =  2.52E-06,  avg # of iterations = 15.4

     total cpu time spent up to now is      128.6 secs

     total energy              =    -361.12392746 Ry
     estimated scf accuracy    <       0.01989136 Ry

     iteration # 17     ecut=    50.00 Ry     beta= 0.30
     Davidson diagonalization with overlap
     c_bands:  2 eigenvalues not converged
     c_bands:  2 eigenvalues not converged
     c_bands:  2 eigenvalues not converged
     c_bands:  1 eigenvalues not converged
     c_bands:  2 eigenvalues not converged
     c_bands:  1 eigenvalues not converged
     c_bands:  2 eigenvalues not converged
     c_bands:  1 eigenvalues not converged
     c_bands:  2 eigenvalues not converged
     c_bands:  2 eigenvalues not converged
     c_bands:  1 eigenvalues not converged
     c_bands:  1 eigenvalues not converged
     c_bands:  1 eigenvalues not converged
     c_bands:  2 eigenvalues not converged
     c_bands:  2 eigenvalues not converged
     c_bands:  2 eigenvalues not converged
     c_bands:  2 eigenvalues not converged
     c_bands:  2 eigenvalues not converged
     c_bands:  2 eigenvalues not converged
     c_bands:  1 eigenvalues not converged
     c_bands:  2 eigenvalues not converged
     c_bands:  1 eigenvalues not converged
     c_bands:  1 eigenvalues not converged
     c_bands:  1 eigenvalues not converged
     c_bands:  1 eigenvalues not converged
     c_bands:  1 eigenvalues not converged
     c_bands:  1 eigenvalues not converged
     c_bands:  2 eigenvalues not converged
     c_bands:  2 eigenvalues not converged
     c_bands:  1 eigenvalues not converged
     c_bands:  2 eigenvalues not converged
     c_bands:  2 eigenvalues not converged
     c_bands:  1 eigenvalues not converged
     c_bands:  2 eigenvalues not converged
     c_bands:  1 eigenvalues not converged
     c_bands:  2 eigenvalues not converged
     c_bands:  2 eigenvalues not converged
     c_bands:  1 eigenvalues not converged
     c_bands:  1 eigenvalues not converged
     c_bands:  1 eigenvalues not converged
     c_bands:  1 eigenvalues not converged
     c_bands:  2 eigenvalues not converged
     c_bands:  2 eigenvalues not converged
     c_bands:  2 eigenvalues not converged
     c_bands:  1 eigenvalues not converged
     c_bands:  2 eigenvalues not converged
     c_bands:  2 eigenvalues not converged
     c_bands:  1 eigenvalues not converged
     c_bands:  1 eigenvalues not converged
     c_bands:  1 eigenvalues not converged
     c_bands:  1 eigenvalues not converged
     c_bands:  1 eigenvalues not converged
     ethr =  2.52E-06,  avg # of iterations = 17.4

     total cpu time spent up to now is      151.6 secs

     total energy              =    -361.12494698 Ry
     estimated scf accuracy    <       0.03006013 Ry

     iteration # 18     ecut=    50.00 Ry     beta= 0.30
     Davidson diagonalization with overlap
     c_bands:  1 eigenvalues not converged
     c_bands:  2 eigenvalues not converged
     c_bands:  1 eigenvalues not converged
     c_bands:  2 eigenvalues not converged
     c_bands:  1 eigenvalues not converged
     c_bands:  1 eigenvalues not converged
     c_bands:  1 eigenvalues not converged
     c_bands:  1 eigenvalues not converged
     c_bands:  1 eigenvalues not converged
     c_bands:  1 eigenvalues not converged
     c_bands:  1 eigenvalues not converged
     c_bands:  1 eigenvalues not converged
     c_bands:  1 eigenvalues not converged
     c_bands:  1 eigenvalues not converged
     c_bands:  1 eigenvalues not converged
     c_bands:  1 eigenvalues not converged
     c_bands:  1 eigenvalues not converged
     c_bands:  1 eigenvalues not converged
     c_bands:  1 eigenvalues not converged
     c_bands:  2 eigenvalues not converged
     c_bands:  1 eigenvalues not converged
     c_bands:  1 eigenvalues not converged
     c_bands:  1 eigenvalues not converged
     c_bands:  1 eigenvalues not converged
     c_bands:  2 eigenvalues not converged
     c_bands:  1 eigenvalues not converged
     c_bands:  1 eigenvalues not converged
     c_bands:  2 eigenvalues not converged
     c_bands:  1 eigenvalues not converged
     c_bands:  1 eigenvalues not converged
     c_bands:  1 eigenvalues not converged
     c_bands:  1 eigenvalues not converged
     ethr =  2.52E-06,  avg # of iterations = 15.9

     total cpu time spent up to now is      172.4 secs

     total energy              =    -361.12945704 Ry
     estimated scf accuracy    <       0.00621895 Ry

     iteration # 19     ecut=    50.00 Ry     beta= 0.30
     Davidson diagonalization with overlap
     c_bands:  1 eigenvalues not converged
     c_bands:  1 eigenvalues not converged
     c_bands:  1 eigenvalues not converged
     c_bands:  1 eigenvalues not converged
     c_bands:  1 eigenvalues not converged
     c_bands:  1 eigenvalues not converged
     ethr =  2.52E-06,  avg # of iterations = 12.9

     total cpu time spent up to now is      188.0 secs

     total energy              =    -361.12885771 Ry
     estimated scf accuracy    <       0.00467389 Ry

     iteration # 20     ecut=    50.00 Ry     beta= 0.30
     Davidson diagonalization with overlap
     c_bands:  1 eigenvalues not converged
     c_bands:  1 eigenvalues not converged
     c_bands:  1 eigenvalues not converged
     c_bands:  1 eigenvalues not converged
     c_bands:  1 eigenvalues not converged
     c_bands:  1 eigenvalues not converged
     c_bands:  1 eigenvalues not converged
     c_bands:  1 eigenvalues not converged
     c_bands:  1 eigenvalues not converged
     c_bands:  1 eigenvalues not converged
     c_bands:  1 eigenvalues not converged
     c_bands:  1 eigenvalues not converged
     c_bands:  1 eigenvalues not converged
     c_bands:  1 eigenvalues not converged
     c_bands:  1 eigenvalues not converged
     c_bands:  1 eigenvalues not converged
     c_bands:  1 eigenvalues not converged
     c_bands:  1 eigenvalues not converged
     ethr =  2.52E-06,  avg # of iterations = 14.8

     total cpu time spent up to now is      206.7 secs

     total energy              =    -361.12977221 Ry
     estimated scf accuracy    <       0.02734184 Ry

     iteration # 21     ecut=    50.00 Ry     beta= 0.30
     Davidson diagonalization with overlap
     c_bands:  1 eigenvalues not converged
     c_bands:  1 eigenvalues not converged
     c_bands:  1 eigenvalues not converged
     c_bands:  1 eigenvalues not converged
     c_bands:  1 eigenvalues not converged
     c_bands:  1 eigenvalues not converged
     ethr =  2.52E-06,  avg # of iterations = 12.1

     total cpu time spent up to now is      219.9 secs

     total energy              =    -361.13070305 Ry
     estimated scf accuracy    <       0.00261453 Ry

     iteration # 22     ecut=    50.00 Ry     beta= 0.30
     Davidson diagonalization with overlap
     ethr =  2.52E-06,  avg # of iterations =  6.3

     total cpu time spent up to now is      227.7 secs

     total energy              =    -361.13111490 Ry
     estimated scf accuracy    <       0.00015292 Ry

     iteration # 23     ecut=    50.00 Ry     beta= 0.30
     Davidson diagonalization with overlap
     c_bands:  1 eigenvalues not converged
     c_bands:  1 eigenvalues not converged
     c_bands:  1 eigenvalues not converged
     c_bands:  1 eigenvalues not converged
     c_bands:  1 eigenvalues not converged
     c_bands:  1 eigenvalues not converged
     c_bands:  1 eigenvalues not converged
     c_bands:  1 eigenvalues not converged
     c_bands:  1 eigenvalues not converged
     c_bands:  1 eigenvalues not converged
     c_bands:  1 eigenvalues not converged
     c_bands:  1 eigenvalues not converged
     ethr =  4.25E-07,  avg # of iterations = 14.8

     total cpu time spent up to now is      244.8 secs

     total energy              =    -361.13164160 Ry
     estimated scf accuracy    <       0.00448505 Ry

     iteration # 24     ecut=    50.00 Ry     beta= 0.30
     Davidson diagonalization with overlap
     c_bands:  1 eigenvalues not converged
     ethr =  4.25E-07,  avg # of iterations =  1.8

     total cpu time spent up to now is      250.5 secs

     total energy              =    -361.13079638 Ry
     estimated scf accuracy    <       0.00457462 Ry

     iteration # 25     ecut=    50.00 Ry     beta= 0.30
     Davidson diagonalization with overlap
     c_bands:  1 eigenvalues not converged
     c_bands:  1 eigenvalues not converged
     c_bands:  1 eigenvalues not converged
     c_bands:  1 eigenvalues not converged
     c_bands:  1 eigenvalues not converged
     c_bands:  1 eigenvalues not converged
     ethr =  4.25E-07,  avg # of iterations = 12.1

     total cpu time spent up to now is      264.9 secs

     total energy              =    -361.13111221 Ry
     estimated scf accuracy    <       0.00014228 Ry

     iteration # 26     ecut=    50.00 Ry     beta= 0.30
     Davidson diagonalization with overlap
     ethr =  3.95E-07,  avg # of iterations =  5.9

     total cpu time spent up to now is      272.5 secs

     total energy              =    -361.13116053 Ry
     estimated scf accuracy    <       0.00003355 Ry

     iteration # 27     ecut=    50.00 Ry     beta= 0.30
     Davidson diagonalization with overlap
     c_bands:  1 eigenvalues not converged
     c_bands:  1 eigenvalues not converged
     ethr =  9.32E-08,  avg # of iterations =  9.3

     total cpu time spent up to now is      283.8 secs

     total energy              =    -361.13114340 Ry
     estimated scf accuracy    <       0.00034465 Ry

     iteration # 28     ecut=    50.00 Ry     beta= 0.30
     Davidson diagonalization with overlap
     c_bands:  1 eigenvalues not converged
     c_bands:  1 eigenvalues not converged
     c_bands:  1 eigenvalues not converged
     c_bands:  1 eigenvalues not converged
     ethr =  9.32E-08,  avg # of iterations =  6.8

     total cpu time spent up to now is      292.4 secs

     total energy              =    -361.13114861 Ry
     estimated scf accuracy    <       0.00007199 Ry

     iteration # 29     ecut=    50.00 Ry     beta= 0.30
     Davidson diagonalization with overlap
     c_bands:  1 eigenvalues not converged
     ethr =  9.32E-08,  avg # of iterations =  3.1

     total cpu time spent up to now is      298.9 secs

     total energy              =    -361.13114231 Ry
     estimated scf accuracy    <       0.00003441 Ry

     iteration # 30     ecut=    50.00 Ry     beta= 0.30
     Davidson diagonalization with overlap
     c_bands:  1 eigenvalues not converged
     ethr =  9.32E-08,  avg # of iterations =  7.4

     total cpu time spent up to now is      307.9 secs

     total energy              =    -361.13115722 Ry
     estimated scf accuracy    <       0.00002047 Ry

     iteration # 31     ecut=    50.00 Ry     beta= 0.30
     Davidson diagonalization with overlap
     ethr =  5.69E-08,  avg # of iterations =  1.6

     total cpu time spent up to now is      313.6 secs

     total energy              =    -361.13115463 Ry
     estimated scf accuracy    <       0.00001497 Ry

     iteration # 32     ecut=    50.00 Ry     beta= 0.30
     Davidson diagonalization with overlap
     c_bands:  1 eigenvalues not converged
     ethr =  4.16E-08,  avg # of iterations =  4.4

     total cpu time spent up to now is      320.3 secs

     total energy              =    -361.13115622 Ry
     estimated scf accuracy    <       0.00000119 Ry

     iteration # 33     ecut=    50.00 Ry     beta= 0.30
     Davidson diagonalization with overlap
     c_bands:  2 eigenvalues not converged
     c_bands:  1 eigenvalues not converged
     c_bands:  1 eigenvalues not converged
     c_bands:  1 eigenvalues not converged
     c_bands:  1 eigenvalues not converged
     c_bands:  1 eigenvalues not converged
     c_bands:  1 eigenvalues not converged
     c_bands:  1 eigenvalues not converged
     c_bands:  1 eigenvalues not converged
     ethr =  3.29E-09,  avg # of iterations = 12.8

     total cpu time spent up to now is      333.5 secs

     total energy              =    -361.13115771 Ry
     estimated scf accuracy    <       0.00000338 Ry

     iteration # 34     ecut=    50.00 Ry     beta= 0.30
     Davidson diagonalization with overlap
     c_bands:  1 eigenvalues not converged
     ethr =  3.29E-09,  avg # of iterations =  2.1

     total cpu time spent up to now is      339.4 secs

     total energy              =    -361.13115673 Ry
     estimated scf accuracy    <       0.00000223 Ry

     iteration # 35     ecut=    50.00 Ry     beta= 0.30
     Davidson diagonalization with overlap
     c_bands:  1 eigenvalues not converged
     c_bands:  1 eigenvalues not converged
     c_bands:  1 eigenvalues not converged
     c_bands:  1 eigenvalues not converged
     c_bands:  1 eigenvalues not converged
     c_bands:  1 eigenvalues not converged
     c_bands:  1 eigenvalues not converged
     c_bands:  1 eigenvalues not converged
     c_bands:  1 eigenvalues not converged
     c_bands:  1 eigenvalues not converged
     c_bands:  1 eigenvalues not converged
     ethr =  3.29E-09,  avg # of iterations = 12.0

     total cpu time spent up to now is      352.4 secs

     total energy              =    -361.13115859 Ry
     estimated scf accuracy    <       0.00000580 Ry

     iteration # 36     ecut=    50.00 Ry     beta= 0.30
     Davidson diagonalization with overlap
     ethr =  3.29E-09,  avg # of iterations =  1.2

     total cpu time spent up to now is      357.8 secs

     total energy              =    -361.13115734 Ry
     estimated scf accuracy    <       0.00000587 Ry

     iteration # 37     ecut=    50.00 Ry     beta= 0.30
     Davidson diagonalization with overlap
     c_bands:  1 eigenvalues not converged
     ethr =  3.29E-09,  avg # of iterations =  5.6

     total cpu time spent up to now is      365.3 secs

     total energy              =    -361.13115739 Ry
     estimated scf accuracy    <       0.00000086 Ry

     iteration # 38     ecut=    50.00 Ry     beta= 0.30
     Davidson diagonalization with overlap
     c_bands:  1 eigenvalues not converged
     ethr =  2.40E-09,  avg # of iterations =  8.0

     total cpu time spent up to now is      375.0 secs

     total energy              =    -361.13115762 Ry
     estimated scf accuracy    <       0.00000084 Ry

     iteration # 39     ecut=    50.00 Ry     beta= 0.30
     Davidson diagonalization with overlap
     ethr =  2.32E-09,  avg # of iterations =  4.0

     total cpu time spent up to now is      381.5 secs

     total energy              =    -361.13115772 Ry
     estimated scf accuracy    <       0.00000002 Ry

     iteration # 40     ecut=    50.00 Ry     beta= 0.30
     Davidson diagonalization with overlap
     c_bands:  1 eigenvalues not converged
     c_bands:  2 eigenvalues not converged
     c_bands:  1 eigenvalues not converged
     c_bands:  1 eigenvalues not converged
     c_bands:  1 eigenvalues not converged
     c_bands:  1 eigenvalues not converged
     c_bands:  1 eigenvalues not converged
     c_bands:  1 eigenvalues not converged
     c_bands:  1 eigenvalues not converged
     c_bands:  1 eigenvalues not converged
     c_bands:  1 eigenvalues not converged
     c_bands:  1 eigenvalues not converged
     c_bands:  1 eigenvalues not converged
     c_bands:  1 eigenvalues not converged
     c_bands:  1 eigenvalues not converged
     c_bands:  2 eigenvalues not converged
     c_bands:  2 eigenvalues not converged
     c_bands:  1 eigenvalues not converged
     c_bands:  1 eigenvalues not converged
     c_bands:  2 eigenvalues not converged
     c_bands:  1 eigenvalues not converged
     c_bands:  1 eigenvalues not converged
     ethr =  6.51E-11,  avg # of iterations = 14.7

     total cpu time spent up to now is      399.2 secs

     total energy              =    -361.13115783 Ry
     estimated scf accuracy    <       0.00000026 Ry

     iteration # 41     ecut=    50.00 Ry     beta= 0.30
     Davidson diagonalization with overlap
     c_bands:  1 eigenvalues not converged
     c_bands:  1 eigenvalues not converged
     ethr =  6.51E-11,  avg # of iterations =  2.6

     total cpu time spent up to now is      405.2 secs

     total energy              =    -361.13115780 Ry
     estimated scf accuracy    <       0.00000026 Ry

     iteration # 42     ecut=    50.00 Ry     beta= 0.30
     Davidson diagonalization with overlap
     c_bands:  1 eigenvalues not converged
     c_bands:  1 eigenvalues not converged
     ethr =  6.51E-11,  avg # of iterations =  7.3

     total cpu time spent up to now is      414.0 secs

     total energy              =    -361.13115781 Ry
     estimated scf accuracy    <       0.00000007 Ry

     iteration # 43     ecut=    50.00 Ry     beta= 0.30
     Davidson diagonalization with overlap
     ethr =  6.51E-11,  avg # of iterations =  1.1

     total cpu time spent up to now is      419.5 secs

     total energy              =    -361.13115781 Ry
     estimated scf accuracy    <       0.00000006 Ry

     iteration # 44     ecut=    50.00 Ry     beta= 0.30
     Davidson diagonalization with overlap
     ethr =  6.51E-11,  avg # of iterations =  2.6

     total cpu time spent up to now is      425.6 secs

     total energy              =    -361.13115780 Ry
     estimated scf accuracy    <       0.00000003 Ry

     iteration # 45     ecut=    50.00 Ry     beta= 0.30
     Davidson diagonalization with overlap
     c_bands:  1 eigenvalues not converged
     ethr =  6.51E-11,  avg # of iterations =  6.2

     total cpu time spent up to now is      433.4 secs

     End of self-consistent calculation

     Number of k-points >= 100: set verbosity='high' to print the bands.

     highest occupied level (ev):     5.5379

!    total energy              =    -361.13115781 Ry
     estimated scf accuracy    <          3.9E-09 Ry

     The total energy is the sum of the following terms:
     one-electron contribution =    -212.73836428 Ry
     hartree contribution      =     143.02750553 Ry
     xc contribution           =    -109.02372406 Ry
     ewald contribution        =    -182.39657500 Ry

     convergence has been achieved in  45 iterations

     Forces acting on atoms (cartesian axes, Ry/au):

     atom    1 type  1   force =    -0.01131933    0.01239133   -0.01069034
     atom    2 type  1   force =     0.00373122   -0.00969425   -0.11243553
     atom    3 type  2   force =     0.03131634    0.00180426   -0.05851981
     atom    4 type  2   force =    -0.02372823   -0.00450133    0.18164568
     The non-local contrib.  to forces
     atom    1 type  1   force =    -0.05175937   -0.00531817    0.38592657
     atom    2 type  1   force =     0.00302635   -0.16638362   -0.71829760
     atom    3 type  2   force =    -0.11715394   -0.15754735   -0.07897938
     atom    4 type  2   force =    -0.03609267   -0.02010733   -0.13008641
     The ionic contribution  to forces
     atom    1 type  1   force =    -1.45128290    0.80709356   18.68795625
     atom    2 type  1   force =     0.29885542   -1.49622204  -21.93212493
     atom    3 type  2   force =     0.01662461    1.54148987   -4.18443138
     atom    4 type  2   force =     1.13580287   -0.85236139    7.42860007
     The local contribution  to forces
     atom    1 type  1   force =     1.48561350   -0.78726811  -19.05253424
     atom    2 type  1   force =    -0.29809741    1.64237825   22.47713841
     atom    3 type  2   force =     0.13047130   -1.38331774    4.20362219
     atom    4 type  2   force =    -1.12345873    0.86737653   -7.11651796
     The core correction contribution to forces
     atom    1 type  1   force =     0.00611873   -0.00212310   -0.03228439
     atom    2 type  1   force =    -0.00006158    0.01056432    0.06108554
     atom    3 type  2   force =     0.00138071    0.00116425    0.00127619
     atom    4 type  2   force =     0.00001917    0.00059169   -0.00039123
     The Hubbard contrib.    to forces
     atom    1 type  1   force =     0.00000000    0.00000000    0.00000000
     atom    2 type  1   force =     0.00000000    0.00000000    0.00000000
     atom    3 type  2   force =     0.00000000    0.00000000    0.00000000
     atom    4 type  2   force =     0.00000000    0.00000000    0.00000000
     The SCF correction term to forces
     atom    1 type  1   force =    -0.00000921    0.00000033    0.00024990
     atom    2 type  1   force =     0.00000852   -0.00003798   -0.00023252
     atom    3 type  2   force =    -0.00000624    0.00000841   -0.00000299
     atom    4 type  2   force =     0.00000120   -0.00000764    0.00004564

     Total force =     0.226125     Total SCF correction =     0.000347

     Writing all to output data dir ./ZnO_ANN.save/

     init_run     :      4.16s CPU      4.29s WALL (       1 calls)
     electrons    :    421.69s CPU    428.67s WALL (       1 calls)
     forces       :      1.49s CPU      1.50s WALL (       1 calls)

     Called by init_run:
     wfcinit      :      2.99s CPU      3.06s WALL (       1 calls)
     potinit      :      0.42s CPU      0.42s WALL (       1 calls)
     hinit0       :      0.65s CPU      0.67s WALL (       1 calls)

     Called by electrons:
     c_bands      :    379.30s CPU    385.39s WALL (      45 calls)
     sum_band     :     37.88s CPU     38.66s WALL (      45 calls)
     v_of_rho     :      0.93s CPU      0.99s WALL (      46 calls)
     newd         :      3.39s CPU      3.45s WALL (      46 calls)
     mix_rho      :      0.16s CPU      0.18s WALL (      45 calls)

     Called by c_bands:
     init_us_2    :      3.04s CPU      3.09s WALL (   10304 calls)
     init_us_2:cp :      3.00s CPU      3.06s WALL (   10304 calls)
     cegterg      :    369.36s CPU    375.31s WALL (    5040 calls)

     Called by *egterg:
     cdiaghg      :     42.40s CPU     42.79s WALL (   38511 calls)
     h_psi        :    203.85s CPU    208.17s WALL (   38623 calls)
     s_psi        :     28.58s CPU     28.80s WALL (   38623 calls)
     g_psi        :      0.81s CPU      0.82s WALL (   33471 calls)

     Called by h_psi:
     h_psi:calbec :     31.29s CPU     32.18s WALL (   38623 calls)
     vloc_psi     :    143.16s CPU    146.40s WALL (   38623 calls)
     add_vuspsi   :     28.61s CPU     28.82s WALL (   38623 calls)

     General routines
     calbec       :     41.08s CPU     42.19s WALL (   44111 calls)
     fft          :      1.05s CPU      1.15s WALL (     607 calls)
     ffts         :      0.14s CPU      0.15s WALL (      91 calls)
     fftw         :    140.76s CPU    143.95s WALL (  691842 calls)
     interpolate  :      0.17s CPU      0.18s WALL (      46 calls)

     Parallel routines

     PWSCF        :   7m 8.12s CPU   7m15.55s WALL


   This run was terminated on:  21: 1:38  24Jun2025            

=------------------------------------------------------------------------------=
   JOB DONE.
=------------------------------------------------------------------------------=
Note: The following floating-point exceptions are signalling: IEEE_INVALID_FLAG
