
     Program PWSCF v.7.2 starts on 24Jun2025 at 17:41:35 

     This program is part of the open-source Quantum ESPRESSO suite
     for quantum simulation of materials; please cite
         "P. Giannozzi et al., J. Phys.:Condens. Matter 21 395502 (2009);
         "P. Giannozzi et al., J. Phys.:Condens. Matter 29 465901 (2017);
         "P. Giannozzi et al., J. Chem. Phys. 152 154105 (2020);
          URL http://www.quantum-espresso.org", 
     in publications or presentations arising from this work. More details at
     http://www.quantum-espresso.org/quote

     Parallel version (MPI), running on     8 processors

     MPI processes distributed on     1 nodes
     91269 MiB available memory on the printing compute node when the environment starts

     Reading input from /home/jvc/QEspresso7.2/ZnO_DataBase/scf_025_NOSYM.in/scf-6.30-1.58-0.25-3.in

     Current dimensions of program PWSCF are:
     Max number of different atomic species (ntypx) = 10
     Max number of k-points (npk) =  40000
     Max angular momentum in pseudopotentials (lmaxx) =  4
     file Zn.upf: wavefunction(s)  3D renormalized

     R & G space division:  proc/nbgrp/npool/nimage =       8
     Subspace diagonalization in iterative solution of the eigenvalue problem:
     a serial algorithm will be used


     Parallelization info
     --------------------
     sticks:   dense  smooth     PW     G-vecs:    dense   smooth      PW
     Min         137      68     20                 5853     2068     346
     Max         138      69     21                 5856     2075     353
     Sum        1099     547    163                46835    16563    2791

     Using Slab Decomposition



     bravais-lattice index     =            0
     lattice parameter (alat)  =       6.3024  a.u.
     unit-cell volume          =     346.8711 (a.u.)^3
     number of atoms/cell      =            4
     number of atomic types    =            2
     number of electrons       =        36.00
     number of Kohn-Sham states=           18
     kinetic-energy cutoff     =      50.0000  Ry
     charge density cutoff     =     400.0000  Ry
     scf convergence threshold =      1.0E-08
     mixing beta               =       0.3000
     number of iterations used =            8  plain     mixing
     Exchange-correlation= PBE
                           (   1   4   3   4   0   0   0)

     celldm(1)=   6.302398  celldm(2)=   0.000000  celldm(3)=   0.000000
     celldm(4)=   0.000000  celldm(5)=   0.000000  celldm(6)=   0.000000

     crystal axes: (cart. coord. in units of alat)
               a(1) = (   1.000000   0.000000   0.000000 )  
               a(2) = (  -0.500000   0.866025   0.000000 )  
               a(3) = (   0.000000   0.000000   1.600000 )  

     reciprocal axes: (cart. coord. in units 2 pi/alat)
               b(1) = (  1.000000  0.577350 -0.000000 )  
               b(2) = (  0.000000  1.154701  0.000000 )  
               b(3) = (  0.000000 -0.000000  0.625000 )  


     PseudoPot. # 1 for Zn read from file:
     ./pseudos/Zn.upf
     MD5 check sum: 7f56cabf9682ed8c977c2f7d0c5985c5
     Pseudo is Ultrasoft + core correction, Zval = 12.0
     Generated using &quot;atomic&quot; code by A. Dal Corso  v.6.2.2
     Using radial grid of 1201 points,  6 beta functions with: 
                l(1) =   0
                l(2) =   0
                l(3) =   1
                l(4) =   1
                l(5) =   2
                l(6) =   2
     Q(r) pseudized with 0 coefficients 


     PseudoPot. # 2 for O  read from file:
     ./pseudos/O.upf
     MD5 check sum: 91400c9766925bcf19f520983a725ff0
     Pseudo is Ultrasoft + core correction, Zval =  6.0
     Generated using &quot;atomic&quot; code by A. Dal Corso  v.6.3MaX
     Using radial grid of 1095 points,  4 beta functions with: 
                l(1) =   0
                l(2) =   0
                l(3) =   1
                l(4) =   1
     Q(r) pseudized with 0 coefficients 


     atomic species   valence    mass     pseudopotential
        Zn            12.00    63.38000     Zn( 1.00)
        O              6.00    15.99900     O ( 1.00)

     No symmetry found



   Cartesian axes

     site n.     atom                  positions (alat units)
         1           Zn  tau(   1) = (   0.2456056   0.4599166   1.0609567  )
         2           Zn  tau(   2) = (  -0.0975209   0.7169636  -0.1916752  )
         3           O   tau(   3) = (   0.6654359   0.3101788   1.1106026  )
         4           O   tau(   4) = (   0.0197181   0.5148245   0.3435432  )

     number of k points=   112

     Number of k-points >= 100: set verbosity='high' to print them.

     Dense  grid:    46835 G-vectors     FFT dimensions: (  45,  45,  72)

     Smooth grid:    16563 G-vectors     FFT dimensions: (  30,  30,  45)

     Estimated max dynamical RAM per process >      32.29 MB

     Estimated total dynamical RAM >     258.31 MB

     Check: negative core charge=   -0.000002

     Initial potential from superposition of free atoms

     starting charge      35.9925, renormalised to      36.0000
     Starting wfcs are   26 randomized atomic wfcs

     total cpu time spent up to now is        4.2 secs

     Self-consistent Calculation

     iteration #  1     ecut=    50.00 Ry     beta= 0.30
     Davidson diagonalization with overlap
     ethr =  1.00E-02,  avg # of iterations =  2.0

     total cpu time spent up to now is        9.7 secs

     total energy              =    -360.55472516 Ry
     estimated scf accuracy    <       1.21341426 Ry

     iteration #  2     ecut=    50.00 Ry     beta= 0.30
     Davidson diagonalization with overlap
     ethr =  3.37E-03,  avg # of iterations =  7.1

     total cpu time spent up to now is       17.5 secs

     total energy              =    -360.79059732 Ry
     estimated scf accuracy    <       0.49035996 Ry

     iteration #  3     ecut=    50.00 Ry     beta= 0.30
     Davidson diagonalization with overlap
     ethr =  1.36E-03,  avg # of iterations =  2.5

     total cpu time spent up to now is       23.3 secs

     total energy              =    -360.73692799 Ry
     estimated scf accuracy    <       0.18289969 Ry

     iteration #  4     ecut=    50.00 Ry     beta= 0.30
     Davidson diagonalization with overlap
     ethr =  5.08E-04,  avg # of iterations =  9.8

     total cpu time spent up to now is       34.3 secs

     total energy              =    -360.97735357 Ry
     estimated scf accuracy    <       0.97327255 Ry

     iteration #  5     ecut=    50.00 Ry     beta= 0.30
     Davidson diagonalization with overlap
     ethr =  5.08E-04,  avg # of iterations =  1.3

     total cpu time spent up to now is       39.3 secs

     total energy              =    -361.10726119 Ry
     estimated scf accuracy    <       0.75167618 Ry

     iteration #  6     ecut=    50.00 Ry     beta= 0.30
     Davidson diagonalization with overlap
     ethr =  5.08E-04,  avg # of iterations =  1.1

     total cpu time spent up to now is       44.1 secs

     total energy              =    -360.35394241 Ry
     estimated scf accuracy    <       0.96087883 Ry

     iteration #  7     ecut=    50.00 Ry     beta= 0.30
     Davidson diagonalization with overlap
     c_bands:  1 eigenvalues not converged
     c_bands:  2 eigenvalues not converged
     c_bands:  1 eigenvalues not converged
     c_bands:  1 eigenvalues not converged
     c_bands:  1 eigenvalues not converged
     c_bands:  1 eigenvalues not converged
     c_bands:  1 eigenvalues not converged
     c_bands:  1 eigenvalues not converged
     c_bands:  1 eigenvalues not converged
     c_bands:  1 eigenvalues not converged
     ethr =  5.08E-04,  avg # of iterations = 17.7

     total cpu time spent up to now is       62.9 secs

     total energy              =    -362.58635258 Ry
     estimated scf accuracy    <      14.58122142 Ry

     iteration #  8     ecut=    50.00 Ry     beta= 0.30
     Davidson diagonalization with overlap
     ethr =  5.08E-04,  avg # of iterations =  1.1

     total cpu time spent up to now is       67.8 secs

     total energy              =    -362.90186474 Ry
     estimated scf accuracy    <      14.47314516 Ry

     iteration #  9     ecut=    50.00 Ry     beta= 0.30
     Davidson diagonalization with overlap
     ethr =  5.08E-04,  avg # of iterations =  1.3

     total cpu time spent up to now is       72.7 secs

     total energy              =    -361.43076282 Ry
     estimated scf accuracy    <      15.04155746 Ry

     iteration # 10     ecut=    50.00 Ry     beta= 0.30
     Davidson diagonalization with overlap
     ethr =  5.08E-04,  avg # of iterations =  8.0

     total cpu time spent up to now is       81.1 secs

     total energy              =    -361.15689546 Ry
     estimated scf accuracy    <       7.92534852 Ry

     iteration # 11     ecut=    50.00 Ry     beta= 0.30
     Davidson diagonalization with overlap
     ethr =  5.08E-04,  avg # of iterations =  3.7

     total cpu time spent up to now is       86.8 secs

     total energy              =    -360.86211551 Ry
     estimated scf accuracy    <       6.37726856 Ry

     iteration # 12     ecut=    50.00 Ry     beta= 0.30
     Davidson diagonalization with overlap
     ethr =  5.08E-04,  avg # of iterations =  8.1

     total cpu time spent up to now is       94.8 secs

     total energy              =    -360.76051729 Ry
     estimated scf accuracy    <       1.84891028 Ry

     iteration # 13     ecut=    50.00 Ry     beta= 0.30
     Davidson diagonalization with overlap
     ethr =  5.08E-04,  avg # of iterations =  7.8

     total cpu time spent up to now is      102.7 secs

     total energy              =    -360.84657383 Ry
     estimated scf accuracy    <       0.12327943 Ry

     iteration # 14     ecut=    50.00 Ry     beta= 0.30
     Davidson diagonalization with overlap
     ethr =  3.42E-04,  avg # of iterations =  3.9

     total cpu time spent up to now is      108.8 secs

     total energy              =    -360.89847920 Ry
     estimated scf accuracy    <       0.00825809 Ry

     iteration # 15     ecut=    50.00 Ry     beta= 0.30
     Davidson diagonalization with overlap
     c_bands:  3 eigenvalues not converged
     c_bands:  2 eigenvalues not converged
     c_bands:  1 eigenvalues not converged
     c_bands:  3 eigenvalues not converged
     c_bands:  2 eigenvalues not converged
     c_bands:  2 eigenvalues not converged
     c_bands:  1 eigenvalues not converged
     c_bands:  1 eigenvalues not converged
     c_bands:  1 eigenvalues not converged
     c_bands:  2 eigenvalues not converged
     c_bands:  1 eigenvalues not converged
     c_bands:  1 eigenvalues not converged
     c_bands:  1 eigenvalues not converged
     c_bands:  1 eigenvalues not converged
     c_bands:  1 eigenvalues not converged
     c_bands:  1 eigenvalues not converged
     c_bands:  1 eigenvalues not converged
     c_bands:  2 eigenvalues not converged
     c_bands:  1 eigenvalues not converged
     ethr =  2.29E-05,  avg # of iterations = 13.5

     total cpu time spent up to now is      123.9 secs

     total energy              =    -360.92259739 Ry
     estimated scf accuracy    <       0.39070017 Ry

     iteration # 16     ecut=    50.00 Ry     beta= 0.30
     Davidson diagonalization with overlap
     c_bands:  1 eigenvalues not converged
     ethr =  2.29E-05,  avg # of iterations =  7.9

     total cpu time spent up to now is      132.7 secs

     total energy              =    -360.90084984 Ry
     estimated scf accuracy    <       0.17514214 Ry

     iteration # 17     ecut=    50.00 Ry     beta= 0.30
     Davidson diagonalization with overlap
     c_bands:  2 eigenvalues not converged
     c_bands:  1 eigenvalues not converged
     c_bands:  1 eigenvalues not converged
     c_bands:  2 eigenvalues not converged
     ethr =  2.29E-05,  avg # of iterations =  7.9

     total cpu time spent up to now is      141.5 secs

     total energy              =    -360.91023145 Ry
     estimated scf accuracy    <       0.02213596 Ry

     iteration # 18     ecut=    50.00 Ry     beta= 0.30
     Davidson diagonalization with overlap
     ethr =  2.29E-05,  avg # of iterations =  1.5

     total cpu time spent up to now is      146.5 secs

     total energy              =    -360.90736958 Ry
     estimated scf accuracy    <       0.01906415 Ry

     iteration # 19     ecut=    50.00 Ry     beta= 0.30
     Davidson diagonalization with overlap
     ethr =  2.29E-05,  avg # of iterations =  5.7

     total cpu time spent up to now is      153.1 secs

     total energy              =    -360.90894158 Ry
     estimated scf accuracy    <       0.00433117 Ry

     iteration # 20     ecut=    50.00 Ry     beta= 0.30
     Davidson diagonalization with overlap
     ethr =  1.20E-05,  avg # of iterations =  1.9

     total cpu time spent up to now is      158.4 secs

     total energy              =    -360.90937264 Ry
     estimated scf accuracy    <       0.00318661 Ry

     iteration # 21     ecut=    50.00 Ry     beta= 0.30
     Davidson diagonalization with overlap
     c_bands:  2 eigenvalues not converged
     c_bands:  1 eigenvalues not converged
     c_bands:  1 eigenvalues not converged
     ethr =  8.85E-06,  avg # of iterations =  9.7

     total cpu time spent up to now is      171.5 secs

     total energy              =    -360.91213088 Ry
     estimated scf accuracy    <       0.01824542 Ry

     iteration # 22     ecut=    50.00 Ry     beta= 0.30
     Davidson diagonalization with overlap
     ethr =  8.85E-06,  avg # of iterations =  1.1

     total cpu time spent up to now is      176.3 secs

     total energy              =    -360.91337752 Ry
     estimated scf accuracy    <       0.01608601 Ry

     iteration # 23     ecut=    50.00 Ry     beta= 0.30
     Davidson diagonalization with overlap
     c_bands:  2 eigenvalues not converged
     c_bands:  2 eigenvalues not converged
     c_bands:  2 eigenvalues not converged
     c_bands:  1 eigenvalues not converged
     c_bands:  2 eigenvalues not converged
     c_bands:  1 eigenvalues not converged
     c_bands:  2 eigenvalues not converged
     c_bands:  2 eigenvalues not converged
     c_bands:  1 eigenvalues not converged
     c_bands:  1 eigenvalues not converged
     c_bands:  1 eigenvalues not converged
     c_bands:  1 eigenvalues not converged
     ethr =  8.85E-06,  avg # of iterations = 10.5

     total cpu time spent up to now is      185.6 secs

     total energy              =    -360.91652927 Ry
     estimated scf accuracy    <       0.07779701 Ry

     iteration # 24     ecut=    50.00 Ry     beta= 0.30
     Davidson diagonalization with overlap
     ethr =  8.85E-06,  avg # of iterations =  2.1

     total cpu time spent up to now is      190.8 secs

     total energy              =    -360.91483157 Ry
     estimated scf accuracy    <       0.07852908 Ry

     iteration # 25     ecut=    50.00 Ry     beta= 0.30
     Davidson diagonalization with overlap
     ethr =  8.85E-06,  avg # of iterations =  2.0

     total cpu time spent up to now is      196.2 secs

     total energy              =    -360.92146755 Ry
     estimated scf accuracy    <       0.06918584 Ry

     iteration # 26     ecut=    50.00 Ry     beta= 0.30
     Davidson diagonalization with overlap
     ethr =  8.85E-06,  avg # of iterations =  4.6

     total cpu time spent up to now is      202.4 secs

     total energy              =    -360.91155573 Ry
     estimated scf accuracy    <       0.10555405 Ry

     iteration # 27     ecut=    50.00 Ry     beta= 0.30
     Davidson diagonalization with overlap
     c_bands:  1 eigenvalues not converged
     ethr =  8.85E-06,  avg # of iterations =  5.1

     total cpu time spent up to now is      209.0 secs

     total energy              =    -360.90650088 Ry
     estimated scf accuracy    <       0.05765106 Ry

     iteration # 28     ecut=    50.00 Ry     beta= 0.30
     Davidson diagonalization with overlap
     c_bands:  1 eigenvalues not converged
     c_bands:  1 eigenvalues not converged
     c_bands:  2 eigenvalues not converged
     c_bands:  1 eigenvalues not converged
     c_bands:  1 eigenvalues not converged
     c_bands:  1 eigenvalues not converged
     c_bands:  1 eigenvalues not converged
     ethr =  8.85E-06,  avg # of iterations =  9.7

     total cpu time spent up to now is      218.2 secs

     total energy              =    -360.91032093 Ry
     estimated scf accuracy    <       0.01023628 Ry

     iteration # 29     ecut=    50.00 Ry     beta= 0.30
     Davidson diagonalization with overlap
     ethr =  8.85E-06,  avg # of iterations =  1.5

     total cpu time spent up to now is      223.1 secs

     total energy              =    -360.90536273 Ry
     estimated scf accuracy    <       0.00900615 Ry

     iteration # 30     ecut=    50.00 Ry     beta= 0.30
     Davidson diagonalization with overlap
     c_bands:  2 eigenvalues not converged
     c_bands:  2 eigenvalues not converged
     c_bands:  1 eigenvalues not converged
     c_bands:  2 eigenvalues not converged
     c_bands:  1 eigenvalues not converged
     c_bands:  1 eigenvalues not converged
     c_bands:  1 eigenvalues not converged
     ethr =  8.85E-06,  avg # of iterations = 11.5

     total cpu time spent up to now is      236.5 secs

     total energy              =    -360.90504890 Ry
     estimated scf accuracy    <       0.01935521 Ry

     iteration # 31     ecut=    50.00 Ry     beta= 0.30
     Davidson diagonalization with overlap
     c_bands:  1 eigenvalues not converged
     c_bands:  2 eigenvalues not converged
     c_bands:  1 eigenvalues not converged
     ethr =  8.85E-06,  avg # of iterations =  8.9

     total cpu time spent up to now is      245.2 secs

     total energy              =    -360.90903287 Ry
     estimated scf accuracy    <       0.00330248 Ry

     iteration # 32     ecut=    50.00 Ry     beta= 0.30
     Davidson diagonalization with overlap
     ethr =  8.85E-06,  avg # of iterations =  1.4

     total cpu time spent up to now is      250.1 secs

     total energy              =    -360.90860706 Ry
     estimated scf accuracy    <       0.00378981 Ry

     iteration # 33     ecut=    50.00 Ry     beta= 0.30
     Davidson diagonalization with overlap
     ethr =  8.85E-06,  avg # of iterations =  1.2

     total cpu time spent up to now is      254.9 secs

     total energy              =    -360.90873651 Ry
     estimated scf accuracy    <       0.00253638 Ry

     iteration # 34     ecut=    50.00 Ry     beta= 0.30
     Davidson diagonalization with overlap
     ethr =  7.05E-06,  avg # of iterations =  1.0

     total cpu time spent up to now is      259.6 secs

     total energy              =    -360.90877202 Ry
     estimated scf accuracy    <       0.00256955 Ry

     iteration # 35     ecut=    50.00 Ry     beta= 0.30
     Davidson diagonalization with overlap
     ethr =  7.05E-06,  avg # of iterations =  1.0

     total cpu time spent up to now is      264.2 secs

     total energy              =    -360.90850248 Ry
     estimated scf accuracy    <       0.00250470 Ry

     iteration # 36     ecut=    50.00 Ry     beta= 0.30
     Davidson diagonalization with overlap
     ethr =  6.96E-06,  avg # of iterations =  1.1

     total cpu time spent up to now is      268.9 secs

     total energy              =    -360.90787875 Ry
     estimated scf accuracy    <       0.00181661 Ry

     iteration # 37     ecut=    50.00 Ry     beta= 0.30
     Davidson diagonalization with overlap
     ethr =  5.05E-06,  avg # of iterations =  8.2

     total cpu time spent up to now is      276.4 secs

     total energy              =    -360.90820588 Ry
     estimated scf accuracy    <       0.00156364 Ry

     iteration # 38     ecut=    50.00 Ry     beta= 0.30
     Davidson diagonalization with overlap
     ethr =  4.34E-06,  avg # of iterations =  3.4

     total cpu time spent up to now is      282.0 secs

     total energy              =    -360.90834278 Ry
     estimated scf accuracy    <       0.00020953 Ry

     iteration # 39     ecut=    50.00 Ry     beta= 0.30
     Davidson diagonalization with overlap
     c_bands:  1 eigenvalues not converged
     ethr =  5.82E-07,  avg # of iterations =  8.4

     total cpu time spent up to now is      289.8 secs

     total energy              =    -360.90852127 Ry
     estimated scf accuracy    <       0.00026057 Ry

     iteration # 40     ecut=    50.00 Ry     beta= 0.30
     Davidson diagonalization with overlap
     ethr =  5.82E-07,  avg # of iterations =  1.1

     total cpu time spent up to now is      294.5 secs

     total energy              =    -360.90848067 Ry
     estimated scf accuracy    <       0.00023611 Ry

     iteration # 41     ecut=    50.00 Ry     beta= 0.30
     Davidson diagonalization with overlap
     ethr =  5.82E-07,  avg # of iterations =  2.1

     total cpu time spent up to now is      299.7 secs

     total energy              =    -360.90846840 Ry
     estimated scf accuracy    <       0.00011947 Ry

     iteration # 42     ecut=    50.00 Ry     beta= 0.30
     Davidson diagonalization with overlap
     ethr =  3.32E-07,  avg # of iterations =  6.5

     total cpu time spent up to now is      306.3 secs

     total energy              =    -360.90849330 Ry
     estimated scf accuracy    <       0.00000133 Ry

     iteration # 43     ecut=    50.00 Ry     beta= 0.30
     Davidson diagonalization with overlap
     c_bands:  1 eigenvalues not converged
     c_bands:  2 eigenvalues not converged
     c_bands:  1 eigenvalues not converged
     c_bands:  1 eigenvalues not converged
     c_bands:  1 eigenvalues not converged
     c_bands:  2 eigenvalues not converged
     c_bands:  3 eigenvalues not converged
     c_bands:  2 eigenvalues not converged
     c_bands:  1 eigenvalues not converged
     c_bands:  2 eigenvalues not converged
     c_bands:  1 eigenvalues not converged
     c_bands:  2 eigenvalues not converged
     c_bands:  2 eigenvalues not converged
     c_bands:  1 eigenvalues not converged
     c_bands:  1 eigenvalues not converged
     c_bands:  2 eigenvalues not converged
     ethr =  3.71E-09,  avg # of iterations = 13.6

     total cpu time spent up to now is      319.5 secs

     total energy              =    -360.90850081 Ry
     estimated scf accuracy    <       0.00000285 Ry

     iteration # 44     ecut=    50.00 Ry     beta= 0.30
     Davidson diagonalization with overlap
     c_bands:  1 eigenvalues not converged
     ethr =  3.71E-09,  avg # of iterations =  2.8

     total cpu time spent up to now is      324.6 secs

     total energy              =    -360.90850559 Ry
     estimated scf accuracy    <       0.00001390 Ry

     iteration # 45     ecut=    50.00 Ry     beta= 0.30
     Davidson diagonalization with overlap
     c_bands:  1 eigenvalues not converged
     c_bands:  1 eigenvalues not converged
     c_bands:  2 eigenvalues not converged
     c_bands:  2 eigenvalues not converged
     c_bands:  2 eigenvalues not converged
     c_bands:  1 eigenvalues not converged
     c_bands:  1 eigenvalues not converged
     c_bands:  1 eigenvalues not converged
     ethr =  3.71E-09,  avg # of iterations =  9.7

     total cpu time spent up to now is      333.4 secs

     total energy              =    -360.90850473 Ry
     estimated scf accuracy    <       0.00002422 Ry

     iteration # 46     ecut=    50.00 Ry     beta= 0.30
     Davidson diagonalization with overlap
     c_bands:  1 eigenvalues not converged
     c_bands:  1 eigenvalues not converged
     ethr =  3.71E-09,  avg # of iterations =  8.8

     total cpu time spent up to now is      342.0 secs

     total energy              =    -360.90850642 Ry
     estimated scf accuracy    <       0.00001690 Ry

     iteration # 47     ecut=    50.00 Ry     beta= 0.30
     Davidson diagonalization with overlap
     ethr =  3.71E-09,  avg # of iterations =  1.1

     total cpu time spent up to now is      346.7 secs

     total energy              =    -360.90850586 Ry
     estimated scf accuracy    <       0.00001597 Ry

     iteration # 48     ecut=    50.00 Ry     beta= 0.30
     Davidson diagonalization with overlap
     ethr =  3.71E-09,  avg # of iterations =  8.1

     total cpu time spent up to now is      354.2 secs

     total energy              =    -360.90850622 Ry
     estimated scf accuracy    <       0.00001512 Ry

     iteration # 49     ecut=    50.00 Ry     beta= 0.30
     Davidson diagonalization with overlap
     ethr =  3.71E-09,  avg # of iterations =  1.0

     total cpu time spent up to now is      358.9 secs

     total energy              =    -360.90850599 Ry
     estimated scf accuracy    <       0.00001480 Ry

     iteration # 50     ecut=    50.00 Ry     beta= 0.30
     Davidson diagonalization with overlap
     ethr =  3.71E-09,  avg # of iterations =  3.6

     total cpu time spent up to now is      364.7 secs

     total energy              =    -360.90850612 Ry
     estimated scf accuracy    <       0.00001398 Ry

     iteration # 51     ecut=    50.00 Ry     beta= 0.30
     Davidson diagonalization with overlap
     ethr =  3.71E-09,  avg # of iterations =  1.0

     total cpu time spent up to now is      369.4 secs

     total energy              =    -360.90850613 Ry
     estimated scf accuracy    <       0.00001403 Ry

     iteration # 52     ecut=    50.00 Ry     beta= 0.30
     Davidson diagonalization with overlap
     ethr =  3.71E-09,  avg # of iterations =  1.1

     total cpu time spent up to now is      374.2 secs

     total energy              =    -360.90850875 Ry
     estimated scf accuracy    <       0.00001403 Ry

     iteration # 53     ecut=    50.00 Ry     beta= 0.30
     Davidson diagonalization with overlap
     c_bands:  2 eigenvalues not converged
     c_bands:  1 eigenvalues not converged
     c_bands:  2 eigenvalues not converged
     c_bands:  2 eigenvalues not converged
     c_bands:  3 eigenvalues not converged
     c_bands:  2 eigenvalues not converged
     c_bands:  3 eigenvalues not converged
     c_bands:  2 eigenvalues not converged
     c_bands:  1 eigenvalues not converged
     c_bands:  2 eigenvalues not converged
     c_bands:  3 eigenvalues not converged
     c_bands:  3 eigenvalues not converged
     c_bands:  1 eigenvalues not converged
     c_bands:  3 eigenvalues not converged
     c_bands:  2 eigenvalues not converged
     c_bands:  3 eigenvalues not converged
     c_bands:  3 eigenvalues not converged
     c_bands:  2 eigenvalues not converged
     c_bands:  1 eigenvalues not converged
     c_bands:  3 eigenvalues not converged
     c_bands:  2 eigenvalues not converged
     c_bands:  2 eigenvalues not converged
     c_bands:  2 eigenvalues not converged
     c_bands:  1 eigenvalues not converged
     c_bands:  3 eigenvalues not converged
     c_bands:  3 eigenvalues not converged
     c_bands:  1 eigenvalues not converged
     c_bands:  1 eigenvalues not converged
     c_bands:  1 eigenvalues not converged
     c_bands:  3 eigenvalues not converged
     c_bands:  2 eigenvalues not converged
     c_bands:  2 eigenvalues not converged
     c_bands:  1 eigenvalues not converged
     c_bands:  1 eigenvalues not converged
     c_bands:  2 eigenvalues not converged
     c_bands:  2 eigenvalues not converged
     c_bands:  1 eigenvalues not converged
     c_bands:  2 eigenvalues not converged
     c_bands:  3 eigenvalues not converged
     c_bands:  3 eigenvalues not converged
     c_bands:  3 eigenvalues not converged
     c_bands:  2 eigenvalues not converged
     c_bands:  1 eigenvalues not converged
     c_bands:  1 eigenvalues not converged
     c_bands:  1 eigenvalues not converged
     ethr =  3.71E-09,  avg # of iterations = 18.4

     total cpu time spent up to now is      393.5 secs

     total energy              =    -360.90860827 Ry
     estimated scf accuracy    <       0.00048246 Ry

     iteration # 54     ecut=    50.00 Ry     beta= 0.30
     Davidson diagonalization with overlap
     c_bands:  1 eigenvalues not converged
     c_bands:  1 eigenvalues not converged
     c_bands:  1 eigenvalues not converged
     c_bands:  2 eigenvalues not converged
     c_bands:  1 eigenvalues not converged
     c_bands:  2 eigenvalues not converged
     c_bands:  2 eigenvalues not converged
     c_bands:  1 eigenvalues not converged
     c_bands:  1 eigenvalues not converged
     c_bands:  1 eigenvalues not converged
     c_bands:  1 eigenvalues not converged
     c_bands:  2 eigenvalues not converged
     c_bands:  2 eigenvalues not converged
     c_bands:  1 eigenvalues not converged
     c_bands:  2 eigenvalues not converged
     c_bands:  2 eigenvalues not converged
     c_bands:  2 eigenvalues not converged
     c_bands:  2 eigenvalues not converged
     c_bands:  2 eigenvalues not converged
     c_bands:  2 eigenvalues not converged
     c_bands:  2 eigenvalues not converged
     c_bands:  2 eigenvalues not converged
     c_bands:  1 eigenvalues not converged
     c_bands:  1 eigenvalues not converged
     c_bands:  1 eigenvalues not converged
     c_bands:  2 eigenvalues not converged
     c_bands:  1 eigenvalues not converged
     c_bands:  1 eigenvalues not converged
     ethr =  3.71E-09,  avg # of iterations = 15.8

     total cpu time spent up to now is      409.5 secs

     total energy              =    -360.90835955 Ry
     estimated scf accuracy    <       0.00109073 Ry

     iteration # 55     ecut=    50.00 Ry     beta= 0.30
     Davidson diagonalization with overlap
     c_bands:  1 eigenvalues not converged
     c_bands:  2 eigenvalues not converged
     c_bands:  2 eigenvalues not converged
     c_bands:  3 eigenvalues not converged
     c_bands:  3 eigenvalues not converged
     c_bands:  3 eigenvalues not converged
     c_bands:  2 eigenvalues not converged
     c_bands:  3 eigenvalues not converged
     c_bands:  3 eigenvalues not converged
     c_bands:  1 eigenvalues not converged
     c_bands:  3 eigenvalues not converged
     c_bands:  1 eigenvalues not converged
     c_bands:  1 eigenvalues not converged
     c_bands:  1 eigenvalues not converged
     c_bands:  2 eigenvalues not converged
     c_bands:  2 eigenvalues not converged
     c_bands:  3 eigenvalues not converged
     c_bands:  2 eigenvalues not converged
     c_bands:  3 eigenvalues not converged
     c_bands:  3 eigenvalues not converged
     c_bands:  3 eigenvalues not converged
     c_bands:  2 eigenvalues not converged
     c_bands:  3 eigenvalues not converged
     c_bands:  3 eigenvalues not converged
     c_bands:  3 eigenvalues not converged
     c_bands:  3 eigenvalues not converged
     c_bands:  2 eigenvalues not converged
     c_bands:  2 eigenvalues not converged
     c_bands:  3 eigenvalues not converged
     c_bands:  2 eigenvalues not converged
     c_bands:  3 eigenvalues not converged
     c_bands:  1 eigenvalues not converged
     c_bands:  1 eigenvalues not converged
     c_bands:  3 eigenvalues not converged
     c_bands:  3 eigenvalues not converged
     c_bands:  3 eigenvalues not converged
     c_bands:  2 eigenvalues not converged
     c_bands:  1 eigenvalues not converged
     c_bands:  3 eigenvalues not converged
     c_bands:  2 eigenvalues not converged
     c_bands:  3 eigenvalues not converged
     c_bands:  1 eigenvalues not converged
     c_bands:  2 eigenvalues not converged
     c_bands:  2 eigenvalues not converged
     c_bands:  1 eigenvalues not converged
     c_bands:  1 eigenvalues not converged
     c_bands:  1 eigenvalues not converged
     c_bands:  2 eigenvalues not converged
     c_bands:  3 eigenvalues not converged
     c_bands:  3 eigenvalues not converged
     c_bands:  3 eigenvalues not converged
     c_bands:  3 eigenvalues not converged
     c_bands:  3 eigenvalues not converged
     c_bands:  3 eigenvalues not converged
     c_bands:  1 eigenvalues not converged
     c_bands:  3 eigenvalues not converged
     c_bands:  2 eigenvalues not converged
     c_bands:  3 eigenvalues not converged
     c_bands:  3 eigenvalues not converged
     c_bands:  1 eigenvalues not converged
     c_bands:  2 eigenvalues not converged
     c_bands:  2 eigenvalues not converged
     c_bands:  2 eigenvalues not converged
     c_bands:  2 eigenvalues not converged
     c_bands:  2 eigenvalues not converged
     c_bands:  1 eigenvalues not converged
     c_bands:  1 eigenvalues not converged
     ethr =  3.71E-09,  avg # of iterations = 19.6

     total cpu time spent up to now is      434.0 secs

     total energy              =    -360.90849585 Ry
     estimated scf accuracy    <       0.00001162 Ry

     iteration # 56     ecut=    50.00 Ry     beta= 0.30
     Davidson diagonalization with overlap
     c_bands:  1 eigenvalues not converged
     c_bands:  2 eigenvalues not converged
     c_bands:  1 eigenvalues not converged
     c_bands:  1 eigenvalues not converged
     c_bands:  1 eigenvalues not converged
     c_bands:  1 eigenvalues not converged
     c_bands:  1 eigenvalues not converged
     c_bands:  1 eigenvalues not converged
     c_bands:  1 eigenvalues not converged
     c_bands:  2 eigenvalues not converged
     c_bands:  2 eigenvalues not converged
     c_bands:  2 eigenvalues not converged
     c_bands:  1 eigenvalues not converged
     c_bands:  1 eigenvalues not converged
     c_bands:  1 eigenvalues not converged
     c_bands:  1 eigenvalues not converged
     ethr =  3.71E-09,  avg # of iterations = 12.5

     total cpu time spent up to now is      445.9 secs

     total energy              =    -360.90850199 Ry
     estimated scf accuracy    <       0.00000201 Ry

     iteration # 57     ecut=    50.00 Ry     beta= 0.30
     Davidson diagonalization with overlap
     c_bands:  1 eigenvalues not converged
     c_bands:  1 eigenvalues not converged
     c_bands:  1 eigenvalues not converged
     c_bands:  1 eigenvalues not converged
     c_bands:  1 eigenvalues not converged
     ethr =  3.71E-09,  avg # of iterations =  8.9

     total cpu time spent up to now is      454.4 secs

     total energy              =    -360.90850090 Ry
     estimated scf accuracy    <       0.00000868 Ry

     iteration # 58     ecut=    50.00 Ry     beta= 0.30
     Davidson diagonalization with overlap
     c_bands:  1 eigenvalues not converged
     c_bands:  1 eigenvalues not converged
     c_bands:  1 eigenvalues not converged
     c_bands:  2 eigenvalues not converged
     c_bands:  1 eigenvalues not converged
     c_bands:  2 eigenvalues not converged
     c_bands:  1 eigenvalues not converged
     c_bands:  1 eigenvalues not converged
     c_bands:  1 eigenvalues not converged
     c_bands:  2 eigenvalues not converged
     c_bands:  2 eigenvalues not converged
     c_bands:  1 eigenvalues not converged
     c_bands:  1 eigenvalues not converged
     c_bands:  1 eigenvalues not converged
     c_bands:  1 eigenvalues not converged
     ethr =  3.71E-09,  avg # of iterations = 12.4

     total cpu time spent up to now is      466.4 secs

     total energy              =    -360.90850146 Ry
     estimated scf accuracy    <       0.00001071 Ry

     iteration # 59     ecut=    50.00 Ry     beta= 0.30
     Davidson diagonalization with overlap
     c_bands:  1 eigenvalues not converged
     c_bands:  1 eigenvalues not converged
     c_bands:  1 eigenvalues not converged
     c_bands:  1 eigenvalues not converged
     c_bands:  1 eigenvalues not converged
     c_bands:  2 eigenvalues not converged
     c_bands:  1 eigenvalues not converged
     c_bands:  1 eigenvalues not converged
     c_bands:  1 eigenvalues not converged
     c_bands:  1 eigenvalues not converged
     ethr =  3.71E-09,  avg # of iterations =  9.8

     total cpu time spent up to now is      475.8 secs

     total energy              =    -360.90850322 Ry
     estimated scf accuracy    <       0.00000347 Ry

     iteration # 60     ecut=    50.00 Ry     beta= 0.30
     Davidson diagonalization with overlap
     c_bands:  1 eigenvalues not converged
     ethr =  3.71E-09,  avg # of iterations =  7.8

     total cpu time spent up to now is      483.5 secs

     total energy              =    -360.90850367 Ry
     estimated scf accuracy    <       0.00000007 Ry

     iteration # 61     ecut=    50.00 Ry     beta= 0.30
     Davidson diagonalization with overlap
     c_bands:  1 eigenvalues not converged
     c_bands:  1 eigenvalues not converged
     c_bands:  2 eigenvalues not converged
     ethr =  1.83E-10,  avg # of iterations =  6.8

     total cpu time spent up to now is      491.2 secs

     total energy              =    -360.90850372 Ry
     estimated scf accuracy    <       0.00000009 Ry

     iteration # 62     ecut=    50.00 Ry     beta= 0.30
     Davidson diagonalization with overlap
     c_bands:  1 eigenvalues not converged
     ethr =  1.83E-10,  avg # of iterations =  5.0

     total cpu time spent up to now is      497.4 secs

     total energy              =    -360.90850374 Ry
     estimated scf accuracy    <       0.00000002 Ry

     iteration # 63     ecut=    50.00 Ry     beta= 0.30
     Davidson diagonalization with overlap
     c_bands:  1 eigenvalues not converged
     ethr =  6.20E-11,  avg # of iterations =  8.1

     total cpu time spent up to now is      505.6 secs

     total energy              =    -360.90850374 Ry
     estimated scf accuracy    <       0.00000009 Ry

     iteration # 64     ecut=    50.00 Ry     beta= 0.30
     Davidson diagonalization with overlap
     c_bands:  1 eigenvalues not converged
     ethr =  6.20E-11,  avg # of iterations =  7.7

     total cpu time spent up to now is      513.0 secs

     End of self-consistent calculation

     Number of k-points >= 100: set verbosity='high' to print the bands.

     highest occupied level (ev):     7.4176

!    total energy              =    -360.90850374 Ry
     estimated scf accuracy    <          4.6E-09 Ry

     The total energy is the sum of the following terms:
     one-electron contribution =    -231.31707551 Ry
     hartree contribution      =     153.39943941 Ry
     xc contribution           =    -109.61741101 Ry
     ewald contribution        =    -173.37345664 Ry

     convergence has been achieved in  64 iterations

     Forces acting on atoms (cartesian axes, Ry/au):

     atom    1 type  1   force =    -0.32243982    0.03710918   -0.45399531
     atom    2 type  1   force =    -0.20733726    0.19301669    0.48754717
     atom    3 type  2   force =     0.51993255   -0.23920688    0.01382464
     atom    4 type  2   force =     0.00984454    0.00908100   -0.04737650
     The non-local contrib.  to forces
     atom    1 type  1   force =    -0.79440732    0.35305364    0.16775260
     atom    2 type  1   force =    -0.05732980    0.24104471   -0.80801817
     atom    3 type  2   force =    -0.37348238    0.40113279    0.38626517
     atom    4 type  2   force =     0.04958046    0.34344112   -0.60819044
     The ionic contribution  to forces
     atom    1 type  1   force =    -1.24214333    0.00862863  -22.47654975
     atom    2 type  1   force =    -5.73407213    6.41319286   23.51477116
     atom    3 type  2   force =     6.45741279   -4.95498504   -7.48035769
     atom    4 type  2   force =     0.51880267   -1.46683646    6.44213628
     The local contribution  to forces
     atom    1 type  1   force =     1.63730566   -0.29473129   21.82075705
     atom    2 type  1   force =     5.56697490   -6.42715237  -22.21362146
     atom    3 type  2   force =    -5.56441190    4.31668510    7.11083657
     atom    4 type  2   force =    -0.55771135    1.13579397   -5.88688273
     The core correction contribution to forces
     atom    1 type  1   force =     0.07683047   -0.02984071    0.03398436
     atom    2 type  1   force =     0.01708650   -0.03407773   -0.00539501
     atom    3 type  2   force =     0.00039397   -0.00203919   -0.00292793
     atom    4 type  2   force =    -0.00083186   -0.00333183    0.00551130
     The Hubbard contrib.    to forces
     atom    1 type  1   force =     0.00000000    0.00000000    0.00000000
     atom    2 type  1   force =     0.00000000    0.00000000    0.00000000
     atom    3 type  2   force =     0.00000000    0.00000000    0.00000000
     atom    4 type  2   force =     0.00000000    0.00000000    0.00000000
     The SCF correction term to forces
     atom    1 type  1   force =    -0.00003572    0.00000288    0.00003991
     atom    2 type  1   force =    -0.00000715    0.00001320   -0.00020989
     atom    3 type  2   force =     0.00000967    0.00000345   -0.00001201
     atom    4 type  2   force =    -0.00000580    0.00001818    0.00002857

     Total force =     0.979575     Total SCF correction =     0.000220

     Writing all to output data dir ./ZnO_ANN.save/

     init_run     :      3.68s CPU      3.77s WALL (       1 calls)
     electrons    :    500.02s CPU    508.79s WALL (       1 calls)
     forces       :      1.23s CPU      1.24s WALL (       1 calls)

     Called by init_run:
     wfcinit      :      2.71s CPU      2.76s WALL (       1 calls)
     potinit      :      0.34s CPU      0.34s WALL (       1 calls)
     hinit0       :      0.56s CPU      0.57s WALL (       1 calls)

     Called by electrons:
     c_bands      :    446.65s CPU    454.22s WALL (      64 calls)
     sum_band     :     48.11s CPU     49.16s WALL (      64 calls)
     v_of_rho     :      1.24s CPU      1.32s WALL (      65 calls)
     newd         :      3.77s CPU      3.82s WALL (      65 calls)
     mix_rho      :      0.20s CPU      0.22s WALL (      64 calls)

     Called by c_bands:
     init_us_2    :      3.38s CPU      3.43s WALL (   14560 calls)
     init_us_2:cp :      3.33s CPU      3.39s WALL (   14560 calls)
     cegterg      :    435.71s CPU    443.13s WALL (    7168 calls)

     Called by *egterg:
     cdiaghg      :     55.13s CPU     55.60s WALL (   51911 calls)
     h_psi        :    248.91s CPU    254.31s WALL (   52023 calls)
     s_psi        :     28.89s CPU     29.17s WALL (   52023 calls)
     g_psi        :      0.86s CPU      0.88s WALL (   44743 calls)

     Called by h_psi:
     h_psi:calbec :     33.73s CPU     34.75s WALL (   52023 calls)
     vloc_psi     :    185.35s CPU    189.46s WALL (   52023 calls)
     add_vuspsi   :     28.93s CPU     29.22s WALL (   52023 calls)

     General routines
     calbec       :     44.64s CPU     45.98s WALL (   59639 calls)
     fft          :      1.09s CPU      1.19s WALL (     854 calls)
     ffts         :      0.14s CPU      0.15s WALL (     129 calls)
     fftw         :    187.94s CPU    192.14s WALL (  935360 calls)
     interpolate  :      0.18s CPU      0.19s WALL (      65 calls)

     Parallel routines

     PWSCF        :   8m25.68s CPU   8m34.84s WALL


   This run was terminated on:  17:50:10  24Jun2025            

=------------------------------------------------------------------------------=
   JOB DONE.
=------------------------------------------------------------------------------=
Note: The following floating-point exceptions are signalling: IEEE_INVALID_FLAG
