
     Program PWSCF v.7.2 starts on 24Jun2025 at 16:46:38 

     This program is part of the open-source Quantum ESPRESSO suite
     for quantum simulation of materials; please cite
         "P. Giannozzi et al., J. Phys.:Condens. Matter 21 395502 (2009);
         "P. Giannozzi et al., J. Phys.:Condens. Matter 29 465901 (2017);
         "P. Giannozzi et al., J. Chem. Phys. 152 154105 (2020);
          URL http://www.quantum-espresso.org", 
     in publications or presentations arising from this work. More details at
     http://www.quantum-espresso.org/quote

     Parallel version (MPI), running on     8 processors

     MPI processes distributed on     1 nodes
     91015 MiB available memory on the printing compute node when the environment starts

     Reading input from /home/jvc/QEspresso7.2/ZnO_DataBase/scf_025_NOSYM.in/scf-6.18-1.45-0.25-4.in

     Current dimensions of program PWSCF are:
     Max number of different atomic species (ntypx) = 10
     Max number of k-points (npk) =  40000
     Max angular momentum in pseudopotentials (lmaxx) =  4
     file Zn.upf: wavefunction(s)  3D renormalized

     R & G space division:  proc/nbgrp/npool/nimage =       8
     Subspace diagonalization in iterative solution of the eigenvalue problem:
     a serial algorithm will be used


     Parallelization info
     --------------------
     sticks:   dense  smooth     PW     G-vecs:    dense   smooth      PW
     Min         130      64     20                 5518     1944     332
     Max         131      66     21                 5522     1946     337
     Sum        1045     517    163                44163    15561    2671

     Using Slab Decomposition



     bravais-lattice index     =            0
     lattice parameter (alat)  =       6.1788  a.u.
     unit-cell volume          =     326.8643 (a.u.)^3
     number of atoms/cell      =            4
     number of atomic types    =            2
     number of electrons       =        36.00
     number of Kohn-Sham states=           18
     kinetic-energy cutoff     =      50.0000  Ry
     charge density cutoff     =     400.0000  Ry
     scf convergence threshold =      1.0E-08
     mixing beta               =       0.3000
     number of iterations used =            8  plain     mixing
     Exchange-correlation= PBE
                           (   1   4   3   4   0   0   0)

     celldm(1)=   6.178821  celldm(2)=   0.000000  celldm(3)=   0.000000
     celldm(4)=   0.000000  celldm(5)=   0.000000  celldm(6)=   0.000000

     crystal axes: (cart. coord. in units of alat)
               a(1) = (   1.000000   0.000000   0.000000 )  
               a(2) = (  -0.500000   0.866025   0.000000 )  
               a(3) = (   0.000000   0.000000   1.600000 )  

     reciprocal axes: (cart. coord. in units 2 pi/alat)
               b(1) = (  1.000000  0.577350 -0.000000 )  
               b(2) = (  0.000000  1.154701  0.000000 )  
               b(3) = (  0.000000 -0.000000  0.625000 )  


     PseudoPot. # 1 for Zn read from file:
     ./pseudos/Zn.upf
     MD5 check sum: 7f56cabf9682ed8c977c2f7d0c5985c5
     Pseudo is Ultrasoft + core correction, Zval = 12.0
     Generated using &quot;atomic&quot; code by A. Dal Corso  v.6.2.2
     Using radial grid of 1201 points,  6 beta functions with: 
                l(1) =   0
                l(2) =   0
                l(3) =   1
                l(4) =   1
                l(5) =   2
                l(6) =   2
     Q(r) pseudized with 0 coefficients 


     PseudoPot. # 2 for O  read from file:
     ./pseudos/O.upf
     MD5 check sum: 91400c9766925bcf19f520983a725ff0
     Pseudo is Ultrasoft + core correction, Zval =  6.0
     Generated using &quot;atomic&quot; code by A. Dal Corso  v.6.3MaX
     Using radial grid of 1095 points,  4 beta functions with: 
                l(1) =   0
                l(2) =   0
                l(3) =   1
                l(4) =   1
     Q(r) pseudized with 0 coefficients 


     atomic species   valence    mass     pseudopotential
        Zn            12.00    63.38000     Zn( 1.00)
        O              6.00    15.99900     O ( 1.00)

     No symmetry found



   Cartesian axes

     site n.     atom                  positions (alat units)
         1           Zn  tau(   1) = (   0.4798799   0.1237952   0.9508768  )
         2           Zn  tau(   2) = (  -0.2498758   0.7579621  -0.1014732  )
         3           O   tau(   3) = (   0.2551476   0.4863192   1.1366672  )
         4           O   tau(   4) = (   0.2239459   0.4734193   0.2856251  )

     number of k points=   112

     Number of k-points >= 100: set verbosity='high' to print them.

     Dense  grid:    44163 G-vectors     FFT dimensions: (  40,  40,  64)

     Smooth grid:    15561 G-vectors     FFT dimensions: (  27,  27,  45)

     Estimated max dynamical RAM per process >      30.35 MB

     Estimated total dynamical RAM >     242.82 MB

     Check: negative core charge=   -0.000002

     Initial potential from superposition of free atoms

     starting charge      35.9925, renormalised to      36.0000
     Starting wfcs are   26 randomized atomic wfcs

     total cpu time spent up to now is        4.0 secs

     Self-consistent Calculation

     iteration #  1     ecut=    50.00 Ry     beta= 0.30
     Davidson diagonalization with overlap
     ethr =  1.00E-02,  avg # of iterations =  2.0

     total cpu time spent up to now is        9.2 secs

     total energy              =    -360.93078897 Ry
     estimated scf accuracy    <       1.03030301 Ry

     iteration #  2     ecut=    50.00 Ry     beta= 0.30
     Davidson diagonalization with overlap
     ethr =  2.86E-03,  avg # of iterations =  4.0

     total cpu time spent up to now is       15.6 secs

     total energy              =    -361.10734318 Ry
     estimated scf accuracy    <       0.09718212 Ry

     iteration #  3     ecut=    50.00 Ry     beta= 0.30
     Davidson diagonalization with overlap
     ethr =  2.70E-04,  avg # of iterations =  7.2

     total cpu time spent up to now is       26.0 secs

     total energy              =    -361.16392890 Ry
     estimated scf accuracy    <       0.09231237 Ry

     iteration #  4     ecut=    50.00 Ry     beta= 0.30
     Davidson diagonalization with overlap
     ethr =  2.56E-04,  avg # of iterations =  5.8

     total cpu time spent up to now is       32.9 secs

     total energy              =    -361.18065239 Ry
     estimated scf accuracy    <       0.01057603 Ry

     iteration #  5     ecut=    50.00 Ry     beta= 0.30
     Davidson diagonalization with overlap
     ethr =  2.94E-05,  avg # of iterations =  6.1

     total cpu time spent up to now is       41.5 secs

     total energy              =    -361.18518025 Ry
     estimated scf accuracy    <       0.00636446 Ry

     iteration #  6     ecut=    50.00 Ry     beta= 0.30
     Davidson diagonalization with overlap
     c_bands:  1 eigenvalues not converged
     ethr =  1.77E-05,  avg # of iterations =  7.1

     total cpu time spent up to now is       49.3 secs

     total energy              =    -361.18235453 Ry
     estimated scf accuracy    <       0.01158158 Ry

     iteration #  7     ecut=    50.00 Ry     beta= 0.30
     Davidson diagonalization with overlap
     ethr =  1.77E-05,  avg # of iterations =  6.5

     total cpu time spent up to now is       57.7 secs

     total energy              =    -361.18559616 Ry
     estimated scf accuracy    <       0.00222536 Ry

     iteration #  8     ecut=    50.00 Ry     beta= 0.30
     Davidson diagonalization with overlap
     ethr =  6.18E-06,  avg # of iterations =  2.3

     total cpu time spent up to now is       63.5 secs

     total energy              =    -361.18538220 Ry
     estimated scf accuracy    <       0.00063584 Ry

     iteration #  9     ecut=    50.00 Ry     beta= 0.30
     Davidson diagonalization with overlap
     c_bands:  2 eigenvalues not converged
     c_bands:  3 eigenvalues not converged
     ethr =  1.77E-06,  avg # of iterations =  9.8

     total cpu time spent up to now is       75.9 secs

     total energy              =    -361.18594300 Ry
     estimated scf accuracy    <       0.00336658 Ry

     iteration # 10     ecut=    50.00 Ry     beta= 0.30
     Davidson diagonalization with overlap
     ethr =  1.77E-06,  avg # of iterations =  4.3

     total cpu time spent up to now is       82.3 secs

     total energy              =    -361.18540597 Ry
     estimated scf accuracy    <       0.00135580 Ry

     iteration # 11     ecut=    50.00 Ry     beta= 0.30
     Davidson diagonalization with overlap
     ethr =  1.77E-06,  avg # of iterations =  6.6

     total cpu time spent up to now is       92.1 secs

     total energy              =    -361.18607164 Ry
     estimated scf accuracy    <       0.00036620 Ry

     iteration # 12     ecut=    50.00 Ry     beta= 0.30
     Davidson diagonalization with overlap
     ethr =  1.02E-06,  avg # of iterations =  1.4

     total cpu time spent up to now is       96.9 secs

     total energy              =    -361.18603728 Ry
     estimated scf accuracy    <       0.00033456 Ry

     iteration # 13     ecut=    50.00 Ry     beta= 0.30
     Davidson diagonalization with overlap
     ethr =  9.29E-07,  avg # of iterations =  1.1

     total cpu time spent up to now is      101.5 secs

     total energy              =    -361.18595686 Ry
     estimated scf accuracy    <       0.00026178 Ry

     iteration # 14     ecut=    50.00 Ry     beta= 0.30
     Davidson diagonalization with overlap
     ethr =  7.27E-07,  avg # of iterations =  2.0

     total cpu time spent up to now is      106.9 secs

     total energy              =    -361.18597859 Ry
     estimated scf accuracy    <       0.00008508 Ry

     iteration # 15     ecut=    50.00 Ry     beta= 0.30
     Davidson diagonalization with overlap
     ethr =  2.36E-07,  avg # of iterations =  3.0

     total cpu time spent up to now is      112.4 secs

     total energy              =    -361.18598319 Ry
     estimated scf accuracy    <       0.00005374 Ry

     iteration # 16     ecut=    50.00 Ry     beta= 0.30
     Davidson diagonalization with overlap
     ethr =  1.49E-07,  avg # of iterations =  2.7

     total cpu time spent up to now is      117.7 secs

     total energy              =    -361.18599000 Ry
     estimated scf accuracy    <       0.00003117 Ry

     iteration # 17     ecut=    50.00 Ry     beta= 0.30
     Davidson diagonalization with overlap
     ethr =  8.66E-08,  avg # of iterations =  2.0

     total cpu time spent up to now is      122.7 secs

     total energy              =    -361.18598581 Ry
     estimated scf accuracy    <       0.00003056 Ry

     iteration # 18     ecut=    50.00 Ry     beta= 0.30
     Davidson diagonalization with overlap
     ethr =  8.49E-08,  avg # of iterations =  3.9

     total cpu time spent up to now is      128.2 secs

     total energy              =    -361.18598385 Ry
     estimated scf accuracy    <       0.00000788 Ry

     iteration # 19     ecut=    50.00 Ry     beta= 0.30
     Davidson diagonalization with overlap
     c_bands:  2 eigenvalues not converged
     c_bands:  2 eigenvalues not converged
     ethr =  2.19E-08,  avg # of iterations = 10.3

     total cpu time spent up to now is      138.4 secs

     total energy              =    -361.18600107 Ry
     estimated scf accuracy    <       0.00004235 Ry

     iteration # 20     ecut=    50.00 Ry     beta= 0.30
     Davidson diagonalization with overlap
     ethr =  2.19E-08,  avg # of iterations =  1.9

     total cpu time spent up to now is      143.3 secs

     total energy              =    -361.18600131 Ry
     estimated scf accuracy    <       0.00005018 Ry

     iteration # 21     ecut=    50.00 Ry     beta= 0.30
     Davidson diagonalization with overlap
     ethr =  2.19E-08,  avg # of iterations =  2.0

     total cpu time spent up to now is      148.5 secs

     total energy              =    -361.18599933 Ry
     estimated scf accuracy    <       0.00005218 Ry

     iteration # 22     ecut=    50.00 Ry     beta= 0.30
     Davidson diagonalization with overlap
     ethr =  2.19E-08,  avg # of iterations =  1.0

     total cpu time spent up to now is      153.0 secs

     total energy              =    -361.18600011 Ry
     estimated scf accuracy    <       0.00004762 Ry

     iteration # 23     ecut=    50.00 Ry     beta= 0.30
     Davidson diagonalization with overlap
     ethr =  2.19E-08,  avg # of iterations =  1.2

     total cpu time spent up to now is      157.6 secs

     total energy              =    -361.18599863 Ry
     estimated scf accuracy    <       0.00004851 Ry

     iteration # 24     ecut=    50.00 Ry     beta= 0.30
     Davidson diagonalization with overlap
     ethr =  2.19E-08,  avg # of iterations =  1.0

     total cpu time spent up to now is      162.1 secs

     total energy              =    -361.18600013 Ry
     estimated scf accuracy    <       0.00004417 Ry

     iteration # 25     ecut=    50.00 Ry     beta= 0.30
     Davidson diagonalization with overlap
     ethr =  2.19E-08,  avg # of iterations =  1.0

     total cpu time spent up to now is      166.6 secs

     total energy              =    -361.18598653 Ry
     estimated scf accuracy    <       0.00004655 Ry

     iteration # 26     ecut=    50.00 Ry     beta= 0.30
     Davidson diagonalization with overlap
     ethr =  2.19E-08,  avg # of iterations =  5.5

     total cpu time spent up to now is      174.8 secs

     total energy              =    -361.18599072 Ry
     estimated scf accuracy    <       0.00000797 Ry

     iteration # 27     ecut=    50.00 Ry     beta= 0.30
     Davidson diagonalization with overlap
     ethr =  2.19E-08,  avg # of iterations =  2.1

     total cpu time spent up to now is      179.8 secs

     total energy              =    -361.18599105 Ry
     estimated scf accuracy    <       0.00000556 Ry

     iteration # 28     ecut=    50.00 Ry     beta= 0.30
     Davidson diagonalization with overlap
     c_bands:  2 eigenvalues not converged
     ethr =  1.54E-08,  avg # of iterations =  8.9

     total cpu time spent up to now is      190.2 secs

     total energy              =    -361.18598358 Ry
     estimated scf accuracy    <       0.00003742 Ry

     iteration # 29     ecut=    50.00 Ry     beta= 0.30
     Davidson diagonalization with overlap
     ethr =  1.54E-08,  avg # of iterations =  7.8

     total cpu time spent up to now is      201.2 secs

     total energy              =    -361.18599060 Ry
     estimated scf accuracy    <       0.00000081 Ry

     iteration # 30     ecut=    50.00 Ry     beta= 0.30
     Davidson diagonalization with overlap
     ethr =  2.25E-09,  avg # of iterations =  6.4

     total cpu time spent up to now is      209.4 secs

     total energy              =    -361.18599079 Ry
     estimated scf accuracy    <       0.00000044 Ry

     iteration # 31     ecut=    50.00 Ry     beta= 0.30
     Davidson diagonalization with overlap
     ethr =  1.21E-09,  avg # of iterations =  3.7

     total cpu time spent up to now is      215.4 secs

     total energy              =    -361.18599085 Ry
     estimated scf accuracy    <       0.00000003 Ry

     iteration # 32     ecut=    50.00 Ry     beta= 0.30
     Davidson diagonalization with overlap
     c_bands:  1 eigenvalues not converged
     c_bands:  2 eigenvalues not converged
     c_bands:  2 eigenvalues not converged
     c_bands:  1 eigenvalues not converged
     ethr =  7.44E-11,  avg # of iterations =  9.8

     total cpu time spent up to now is      230.6 secs

     total energy              =    -361.18599089 Ry
     estimated scf accuracy    <       0.00000023 Ry

     iteration # 33     ecut=    50.00 Ry     beta= 0.30
     Davidson diagonalization with overlap
     c_bands:  1 eigenvalues not converged
     ethr =  7.44E-11,  avg # of iterations =  6.1

     total cpu time spent up to now is      240.2 secs

     total energy              =    -361.18599091 Ry
     estimated scf accuracy    <       0.00000003 Ry

     iteration # 34     ecut=    50.00 Ry     beta= 0.30
     Davidson diagonalization with overlap
     ethr =  7.21E-11,  avg # of iterations =  2.0

     total cpu time spent up to now is      245.3 secs

     total energy              =    -361.18599091 Ry
     estimated scf accuracy    <       0.00000001 Ry

     iteration # 35     ecut=    50.00 Ry     beta= 0.30
     Davidson diagonalization with overlap
     ethr =  3.14E-11,  avg # of iterations =  8.2

     total cpu time spent up to now is      256.3 secs

     total energy              =    -361.18599091 Ry
     estimated scf accuracy    <       0.00000003 Ry

     iteration # 36     ecut=    50.00 Ry     beta= 0.30
     Davidson diagonalization with overlap
     ethr =  3.14E-11,  avg # of iterations =  6.0

     total cpu time spent up to now is      264.0 secs

     End of self-consistent calculation

     Number of k-points >= 100: set verbosity='high' to print the bands.

     highest occupied level (ev):     8.0365

!    total energy              =    -361.18599091 Ry
     estimated scf accuracy    <          3.4E-10 Ry

     The total energy is the sum of the following terms:
     one-electron contribution =    -176.84825596 Ry
     hartree contribution      =     128.36177481 Ry
     xc contribution           =    -109.46940282 Ry
     ewald contribution        =    -203.23010694 Ry

     convergence has been achieved in  36 iterations

     Forces acting on atoms (cartesian axes, Ry/au):

     atom    1 type  1   force =     0.28641959   -0.34012449   -0.41167232
     atom    2 type  1   force =    -0.06169763   -0.05864320    0.29389012
     atom    3 type  2   force =    -0.22395239    0.40589311    0.13477908
     atom    4 type  2   force =    -0.00076957   -0.00712542   -0.01699688
     The non-local contrib.  to forces
     atom    1 type  1   force =     0.38868323   -0.59178800   -0.17417381
     atom    2 type  1   force =     0.01740041    0.08118505   -0.69284793
     atom    3 type  2   force =     0.24056945   -0.19695303   -0.51201360
     atom    4 type  2   force =    -0.05832748   -0.04617379   -0.40860930
     The ionic contribution  to forces
     atom    1 type  1   force =     6.07921062   -3.35763553  -23.36236928
     atom    2 type  1   force =    -2.60998884   -1.94877400   17.38464518
     atom    3 type  2   force =    -3.50304520    5.15313387   -0.92036649
     atom    4 type  2   force =     0.03382342    0.15327566    6.89809059
     The local contribution  to forces
     atom    1 type  1   force =    -6.13466626    3.54811508   23.06624214
     atom    2 type  1   force =     2.52688228    1.80887694  -16.40426904
     atom    3 type  2   force =     3.03925827   -4.54978041    1.56319881
     atom    4 type  2   force =     0.02312547   -0.11471641   -6.51011914
     The core correction contribution to forces
     atom    1 type  1   force =    -0.04678914    0.06115925    0.05860992
     atom    2 type  1   force =     0.00400528    0.00007200    0.00635580
     atom    3 type  2   force =    -0.00073736   -0.00050159    0.00396131
     atom    4 type  2   force =     0.00060591    0.00049096    0.00364823
     The Hubbard contrib.    to forces
     atom    1 type  1   force =     0.00000000    0.00000000    0.00000000
     atom    2 type  1   force =     0.00000000    0.00000000    0.00000000
     atom    3 type  2   force =     0.00000000    0.00000000    0.00000000
     atom    4 type  2   force =     0.00000000    0.00000000    0.00000000
     The SCF correction term to forces
     atom    1 type  1   force =    -0.00002042    0.00002777    0.00002146
     atom    2 type  1   force =     0.00000168   -0.00000011    0.00000884
     atom    3 type  2   force =     0.00000088   -0.00000266    0.00000180
     atom    4 type  2   force =     0.00000155    0.00000123   -0.00000450

     Total force =     0.833200     Total SCF correction =     0.000042

     Writing all to output data dir ./ZnO_ANN.save/

     init_run     :      3.49s CPU      3.59s WALL (       1 calls)
     electrons    :    255.45s CPU    259.95s WALL (       1 calls)
     forces       :      1.13s CPU      1.14s WALL (       1 calls)

     Called by init_run:
     wfcinit      :      2.56s CPU      2.61s WALL (       1 calls)
     potinit      :      0.27s CPU      0.27s WALL (       1 calls)
     hinit0       :      0.59s CPU      0.61s WALL (       1 calls)

     Called by electrons:
     c_bands      :    227.00s CPU    230.87s WALL (      36 calls)
     sum_band     :     25.71s CPU     26.27s WALL (      36 calls)
     v_of_rho     :      0.52s CPU      0.55s WALL (      37 calls)
     newd         :      2.13s CPU      2.16s WALL (      37 calls)
     mix_rho      :      0.10s CPU      0.10s WALL (      36 calls)

     Called by c_bands:
     init_us_2    :      1.72s CPU      1.75s WALL (    8288 calls)
     init_us_2:cp :      1.70s CPU      1.72s WALL (    8288 calls)
     cegterg      :    221.14s CPU    224.93s WALL (    4032 calls)

     Called by *egterg:
     cdiaghg      :     23.56s CPU     23.74s WALL (   22252 calls)
     h_psi        :    130.63s CPU    133.45s WALL (   22364 calls)
     s_psi        :     14.12s CPU     14.24s WALL (   22364 calls)
     g_psi        :      0.43s CPU      0.43s WALL (   18220 calls)

     Called by h_psi:
     h_psi:calbec :     17.49s CPU     18.06s WALL (   22364 calls)
     vloc_psi     :     98.57s CPU    100.69s WALL (   22364 calls)
     add_vuspsi   :     14.17s CPU     14.31s WALL (   22364 calls)

     General routines
     calbec       :     23.62s CPU     24.36s WALL (   26844 calls)
     fft          :      0.79s CPU      0.84s WALL (     490 calls)
     ffts         :      0.09s CPU      0.09s WALL (      73 calls)
     fftw         :    103.93s CPU    106.17s WALL (  514296 calls)
     interpolate  :      0.10s CPU      0.10s WALL (      37 calls)

     Parallel routines

     PWSCF        :   4m20.80s CPU   4m25.60s WALL


   This run was terminated on:  16:51: 3  24Jun2025            

=------------------------------------------------------------------------------=
   JOB DONE.
=------------------------------------------------------------------------------=
Note: The following floating-point exceptions are signalling: IEEE_INVALID_FLAG
