
     Program PWSCF v.7.2 starts on 24Jun2025 at 20:44:55 

     This program is part of the open-source Quantum ESPRESSO suite
     for quantum simulation of materials; please cite
         "P. Giannozzi et al., J. Phys.:Condens. Matter 21 395502 (2009);
         "P. Giannozzi et al., J. Phys.:Condens. Matter 29 465901 (2017);
         "P. Giannozzi et al., J. Chem. Phys. 152 154105 (2020);
          URL http://www.quantum-espresso.org", 
     in publications or presentations arising from this work. More details at
     http://www.quantum-espresso.org/quote

     Parallel version (MPI), running on     8 processors

     MPI processes distributed on     1 nodes
     90575 MiB available memory on the printing compute node when the environment starts

     Reading input from /home/jvc/QEspresso7.2/ZnO_DataBase/scf_025_NOSYM.in/scf-6.80-1.55-0.25-4.in

     Current dimensions of program PWSCF are:
     Max number of different atomic species (ntypx) = 10
     Max number of k-points (npk) =  40000
     Max angular momentum in pseudopotentials (lmaxx) =  4
     file Zn.upf: wavefunction(s)  3D renormalized

     R & G space division:  proc/nbgrp/npool/nimage =       8
     Subspace diagonalization in iterative solution of the eigenvalue problem:
     a serial algorithm will be used


     Parallelization info
     --------------------
     sticks:   dense  smooth     PW     G-vecs:    dense   smooth      PW
     Min         160      81     24                 7354     2595     429
     Max         162      82     26                 7355     2598     432
     Sum        1285     649    199                58833    20773    3441

     Using Slab Decomposition



     bravais-lattice index     =            0
     lattice parameter (alat)  =       6.7967  a.u.
     unit-cell volume          =     435.0564 (a.u.)^3
     number of atoms/cell      =            4
     number of atomic types    =            2
     number of electrons       =        36.00
     number of Kohn-Sham states=           18
     kinetic-energy cutoff     =      50.0000  Ry
     charge density cutoff     =     400.0000  Ry
     scf convergence threshold =      1.0E-08
     mixing beta               =       0.3000
     number of iterations used =            8  plain     mixing
     Exchange-correlation= PBE
                           (   1   4   3   4   0   0   0)

     celldm(1)=   6.796704  celldm(2)=   0.000000  celldm(3)=   0.000000
     celldm(4)=   0.000000  celldm(5)=   0.000000  celldm(6)=   0.000000

     crystal axes: (cart. coord. in units of alat)
               a(1) = (   1.000000   0.000000   0.000000 )  
               a(2) = (  -0.500000   0.866025   0.000000 )  
               a(3) = (   0.000000   0.000000   1.600000 )  

     reciprocal axes: (cart. coord. in units 2 pi/alat)
               b(1) = (  1.000000  0.577350 -0.000000 )  
               b(2) = (  0.000000  1.154701  0.000000 )  
               b(3) = (  0.000000 -0.000000  0.625000 )  


     PseudoPot. # 1 for Zn read from file:
     ./pseudos/Zn.upf
     MD5 check sum: 7f56cabf9682ed8c977c2f7d0c5985c5
     Pseudo is Ultrasoft + core correction, Zval = 12.0
     Generated using &quot;atomic&quot; code by A. Dal Corso  v.6.2.2
     Using radial grid of 1201 points,  6 beta functions with: 
                l(1) =   0
                l(2) =   0
                l(3) =   1
                l(4) =   1
                l(5) =   2
                l(6) =   2
     Q(r) pseudized with 0 coefficients 


     PseudoPot. # 2 for O  read from file:
     ./pseudos/O.upf
     MD5 check sum: 91400c9766925bcf19f520983a725ff0
     Pseudo is Ultrasoft + core correction, Zval =  6.0
     Generated using &quot;atomic&quot; code by A. Dal Corso  v.6.3MaX
     Using radial grid of 1095 points,  4 beta functions with: 
                l(1) =   0
                l(2) =   0
                l(3) =   1
                l(4) =   1
     Q(r) pseudized with 0 coefficients 


     atomic species   valence    mass     pseudopotential
        Zn            12.00    63.38000     Zn( 1.00)
        O              6.00    15.99900     O ( 1.00)

     No symmetry found



   Cartesian axes

     site n.     atom                  positions (alat units)
         1           Zn  tau(   1) = (   0.7214482   0.1889253   0.7000194  )
         2           Zn  tau(   2) = (   0.1453164   0.6967822   0.3771841  )
         3           O   tau(   3) = (   0.6764075   0.2058668   1.3959904  )
         4           O   tau(   4) = (  -0.2161655   0.7646153   0.9888716  )

     number of k points=   112

     Number of k-points >= 100: set verbosity='high' to print them.

     Dense  grid:    58833 G-vectors     FFT dimensions: (  45,  45,  72)

     Smooth grid:    20773 G-vectors     FFT dimensions: (  32,  32,  50)

     Estimated max dynamical RAM per process >      39.41 MB

     Estimated total dynamical RAM >     315.24 MB

     Check: negative core charge=   -0.000003

     Initial potential from superposition of free atoms

     starting charge      35.9925, renormalised to      36.0000
     Starting wfcs are   26 randomized atomic wfcs

     total cpu time spent up to now is        4.6 secs

     Self-consistent Calculation

     iteration #  1     ecut=    50.00 Ry     beta= 0.30
     Davidson diagonalization with overlap
     ethr =  1.00E-02,  avg # of iterations =  2.0

     total cpu time spent up to now is       10.6 secs

     total energy              =    -360.37375143 Ry
     estimated scf accuracy    <       1.17826688 Ry

     iteration #  2     ecut=    50.00 Ry     beta= 0.30
     Davidson diagonalization with overlap
     ethr =  3.27E-03,  avg # of iterations =  7.2

     total cpu time spent up to now is       20.2 secs

     total energy              =    -360.74083080 Ry
     estimated scf accuracy    <       0.82000345 Ry

     iteration #  3     ecut=    50.00 Ry     beta= 0.30
     Davidson diagonalization with overlap
     ethr =  2.28E-03,  avg # of iterations =  1.4

     total cpu time spent up to now is       25.8 secs

     total energy              =    -360.50696328 Ry
     estimated scf accuracy    <       0.46011431 Ry

     iteration #  4     ecut=    50.00 Ry     beta= 0.30
     Davidson diagonalization with overlap
     ethr =  1.28E-03,  avg # of iterations = 10.6

     total cpu time spent up to now is       39.2 secs

     total energy              =    -360.98130477 Ry
     estimated scf accuracy    <       1.93326507 Ry

     iteration #  5     ecut=    50.00 Ry     beta= 0.30
     Davidson diagonalization with overlap
     ethr =  1.28E-03,  avg # of iterations =  1.1

     total cpu time spent up to now is       44.7 secs

     total energy              =    -361.03578496 Ry
     estimated scf accuracy    <       1.57799413 Ry

     iteration #  6     ecut=    50.00 Ry     beta= 0.30
     Davidson diagonalization with overlap
     ethr =  1.28E-03,  avg # of iterations =  1.0

     total cpu time spent up to now is       50.2 secs

     total energy              =    -360.85850906 Ry
     estimated scf accuracy    <       1.65261270 Ry

     iteration #  7     ecut=    50.00 Ry     beta= 0.30
     Davidson diagonalization with overlap
     ethr =  1.28E-03,  avg # of iterations =  1.0

     total cpu time spent up to now is       55.5 secs

     total energy              =    -360.26041420 Ry
     estimated scf accuracy    <       1.28848694 Ry

     iteration #  8     ecut=    50.00 Ry     beta= 0.30
     Davidson diagonalization with overlap
     c_bands:  1 eigenvalues not converged
     c_bands:  1 eigenvalues not converged
     c_bands:  1 eigenvalues not converged
     c_bands:  1 eigenvalues not converged
     ethr =  1.28E-03,  avg # of iterations = 12.1

     total cpu time spent up to now is       67.3 secs

     total energy              =    -361.62711897 Ry
     estimated scf accuracy    <       6.97024290 Ry

     iteration #  9     ecut=    50.00 Ry     beta= 0.30
     Davidson diagonalization with overlap
     ethr =  1.28E-03,  avg # of iterations =  1.1

     total cpu time spent up to now is       72.8 secs

     total energy              =    -361.59904732 Ry
     estimated scf accuracy    <       7.18878098 Ry

     iteration # 10     ecut=    50.00 Ry     beta= 0.30
     Davidson diagonalization with overlap
     ethr =  1.28E-03,  avg # of iterations =  1.0

     total cpu time spent up to now is       78.2 secs

     total energy              =    -361.04007671 Ry
     estimated scf accuracy    <       7.18589512 Ry

     iteration # 11     ecut=    50.00 Ry     beta= 0.30
     Davidson diagonalization with overlap
     ethr =  1.28E-03,  avg # of iterations =  2.0

     total cpu time spent up to now is       84.0 secs

     total energy              =    -360.06319519 Ry
     estimated scf accuracy    <       6.05173889 Ry

     iteration # 12     ecut=    50.00 Ry     beta= 0.30
     Davidson diagonalization with overlap
     ethr =  1.28E-03,  avg # of iterations =  9.3

     total cpu time spent up to now is       95.7 secs

     total energy              =    -360.82319596 Ry
     estimated scf accuracy    <       0.06475441 Ry

     iteration # 13     ecut=    50.00 Ry     beta= 0.30
     Davidson diagonalization with overlap
     c_bands:  1 eigenvalues not converged
     c_bands:  1 eigenvalues not converged
     ethr =  1.80E-04,  avg # of iterations =  7.7

     total cpu time spent up to now is      104.6 secs

     total energy              =    -360.73684357 Ry
     estimated scf accuracy    <       0.25780862 Ry

     iteration # 14     ecut=    50.00 Ry     beta= 0.30
     Davidson diagonalization with overlap
     c_bands:  1 eigenvalues not converged
     c_bands:  2 eigenvalues not converged
     c_bands:  1 eigenvalues not converged
     c_bands:  1 eigenvalues not converged
     c_bands:  2 eigenvalues not converged
     c_bands:  1 eigenvalues not converged
     c_bands:  1 eigenvalues not converged
     ethr =  1.80E-04,  avg # of iterations = 13.1

     total cpu time spent up to now is      117.7 secs

     total energy              =    -360.76174583 Ry
     estimated scf accuracy    <       0.88007541 Ry

     iteration # 15     ecut=    50.00 Ry     beta= 0.30
     Davidson diagonalization with overlap
     ethr =  1.80E-04,  avg # of iterations =  8.0

     total cpu time spent up to now is      127.8 secs

     total energy              =    -360.81563660 Ry
     estimated scf accuracy    <       0.06433569 Ry

     iteration # 16     ecut=    50.00 Ry     beta= 0.30
     Davidson diagonalization with overlap
     ethr =  1.79E-04,  avg # of iterations =  1.1

     total cpu time spent up to now is      133.1 secs

     total energy              =    -360.77990067 Ry
     estimated scf accuracy    <       0.05688970 Ry

     iteration # 17     ecut=    50.00 Ry     beta= 0.30
     Davidson diagonalization with overlap
     c_bands:  2 eigenvalues not converged
     c_bands:  1 eigenvalues not converged
     c_bands:  2 eigenvalues not converged
     c_bands:  1 eigenvalues not converged
     c_bands:  1 eigenvalues not converged
     c_bands:  1 eigenvalues not converged
     c_bands:  1 eigenvalues not converged
     c_bands:  1 eigenvalues not converged
     c_bands:  1 eigenvalues not converged
     c_bands:  1 eigenvalues not converged
     c_bands:  1 eigenvalues not converged
     c_bands:  2 eigenvalues not converged
     c_bands:  1 eigenvalues not converged
     c_bands:  2 eigenvalues not converged
     ethr =  1.58E-04,  avg # of iterations = 15.1

     total cpu time spent up to now is      149.0 secs

     total energy              =    -360.81393894 Ry
     estimated scf accuracy    <       1.22677310 Ry

     iteration # 18     ecut=    50.00 Ry     beta= 0.30
     Davidson diagonalization with overlap
     ethr =  1.58E-04,  avg # of iterations =  7.2

     total cpu time spent up to now is      158.8 secs

     total energy              =    -360.83527509 Ry
     estimated scf accuracy    <       0.46103345 Ry

     iteration # 19     ecut=    50.00 Ry     beta= 0.30
     Davidson diagonalization with overlap
     ethr =  1.58E-04,  avg # of iterations =  1.1

     total cpu time spent up to now is      164.1 secs

     total energy              =    -360.83738999 Ry
     estimated scf accuracy    <       0.43608075 Ry

     iteration # 20     ecut=    50.00 Ry     beta= 0.30
     Davidson diagonalization with overlap
     ethr =  1.58E-04,  avg # of iterations =  1.1

     total cpu time spent up to now is      169.4 secs

     total energy              =    -360.82720621 Ry
     estimated scf accuracy    <       0.42354171 Ry

     iteration # 21     ecut=    50.00 Ry     beta= 0.30
     Davidson diagonalization with overlap
     ethr =  1.58E-04,  avg # of iterations =  1.2

     total cpu time spent up to now is      174.7 secs

     total energy              =    -360.84067612 Ry
     estimated scf accuracy    <       0.39127075 Ry

     iteration # 22     ecut=    50.00 Ry     beta= 0.30
     Davidson diagonalization with overlap
     ethr =  1.58E-04,  avg # of iterations =  1.0

     total cpu time spent up to now is      179.9 secs

     total energy              =    -360.82903267 Ry
     estimated scf accuracy    <       0.40287254 Ry

     iteration # 23     ecut=    50.00 Ry     beta= 0.30
     Davidson diagonalization with overlap
     ethr =  1.58E-04,  avg # of iterations =  1.3

     total cpu time spent up to now is      185.4 secs

     total energy              =    -360.63957349 Ry
     estimated scf accuracy    <       0.36937413 Ry

     iteration # 24     ecut=    50.00 Ry     beta= 0.30
     Davidson diagonalization with overlap
     c_bands:  1 eigenvalues not converged
     c_bands:  1 eigenvalues not converged
     c_bands:  1 eigenvalues not converged
     c_bands:  1 eigenvalues not converged
     c_bands:  3 eigenvalues not converged
     c_bands:  2 eigenvalues not converged
     c_bands:  2 eigenvalues not converged
     c_bands:  2 eigenvalues not converged
     c_bands:  1 eigenvalues not converged
     c_bands:  1 eigenvalues not converged
     c_bands:  2 eigenvalues not converged
     c_bands:  1 eigenvalues not converged
     c_bands:  1 eigenvalues not converged
     c_bands:  1 eigenvalues not converged
     c_bands:  1 eigenvalues not converged
     c_bands:  1 eigenvalues not converged
     c_bands:  1 eigenvalues not converged
     c_bands:  1 eigenvalues not converged
     c_bands:  1 eigenvalues not converged
     c_bands:  1 eigenvalues not converged
     c_bands:  2 eigenvalues not converged
     c_bands:  1 eigenvalues not converged
     c_bands:  1 eigenvalues not converged
     c_bands:  1 eigenvalues not converged
     c_bands:  1 eigenvalues not converged
     c_bands:  2 eigenvalues not converged
     c_bands:  2 eigenvalues not converged
     c_bands:  1 eigenvalues not converged
     c_bands:  1 eigenvalues not converged
     c_bands:  1 eigenvalues not converged
     c_bands:  2 eigenvalues not converged
     c_bands:  1 eigenvalues not converged
     c_bands:  2 eigenvalues not converged
     c_bands:  1 eigenvalues not converged
     c_bands:  2 eigenvalues not converged
     c_bands:  1 eigenvalues not converged
     c_bands:  1 eigenvalues not converged
     c_bands:  1 eigenvalues not converged
     c_bands:  1 eigenvalues not converged
     c_bands:  1 eigenvalues not converged
     c_bands:  2 eigenvalues not converged
     c_bands:  2 eigenvalues not converged
     c_bands:  1 eigenvalues not converged
     c_bands:  1 eigenvalues not converged
     c_bands:  1 eigenvalues not converged
     c_bands:  1 eigenvalues not converged
     c_bands:  1 eigenvalues not converged
     c_bands:  2 eigenvalues not converged
     c_bands:  1 eigenvalues not converged
     c_bands:  1 eigenvalues not converged
     c_bands:  1 eigenvalues not converged
     c_bands:  1 eigenvalues not converged
     c_bands:  1 eigenvalues not converged
     c_bands:  1 eigenvalues not converged
     c_bands:  1 eigenvalues not converged
     c_bands:  2 eigenvalues not converged
     c_bands:  1 eigenvalues not converged
     c_bands:  1 eigenvalues not converged
     c_bands:  1 eigenvalues not converged
     c_bands:  1 eigenvalues not converged
     c_bands:  1 eigenvalues not converged
     c_bands:  1 eigenvalues not converged
     ethr =  1.58E-04,  avg # of iterations = 18.7

     total cpu time spent up to now is      202.1 secs

     total energy              =    -360.41329739 Ry
     estimated scf accuracy    <       3.70684785 Ry

     iteration # 25     ecut=    50.00 Ry     beta= 0.30
     Davidson diagonalization with overlap
     c_bands:  1 eigenvalues not converged
     c_bands:  3 eigenvalues not converged
     c_bands:  1 eigenvalues not converged
     c_bands:  3 eigenvalues not converged
     c_bands:  1 eigenvalues not converged
     c_bands:  2 eigenvalues not converged
     c_bands:  2 eigenvalues not converged
     c_bands:  1 eigenvalues not converged
     c_bands:  3 eigenvalues not converged
     c_bands:  3 eigenvalues not converged
     c_bands:  1 eigenvalues not converged
     c_bands:  3 eigenvalues not converged
     c_bands:  3 eigenvalues not converged
     c_bands:  2 eigenvalues not converged
     c_bands:  2 eigenvalues not converged
     c_bands:  1 eigenvalues not converged
     c_bands:  2 eigenvalues not converged
     c_bands:  3 eigenvalues not converged
     c_bands:  3 eigenvalues not converged
     c_bands:  4 eigenvalues not converged
     c_bands:  3 eigenvalues not converged
     c_bands:  2 eigenvalues not converged
     c_bands:  2 eigenvalues not converged
     c_bands:  3 eigenvalues not converged
     c_bands:  2 eigenvalues not converged
     c_bands:  1 eigenvalues not converged
     c_bands:  3 eigenvalues not converged
     c_bands:  1 eigenvalues not converged
     c_bands:  1 eigenvalues not converged
     c_bands:  2 eigenvalues not converged
     c_bands:  2 eigenvalues not converged
     c_bands:  3 eigenvalues not converged
     c_bands:  2 eigenvalues not converged
     c_bands:  2 eigenvalues not converged
     c_bands:  1 eigenvalues not converged
     c_bands:  1 eigenvalues not converged
     c_bands:  1 eigenvalues not converged
     c_bands:  2 eigenvalues not converged
     c_bands:  3 eigenvalues not converged
     c_bands:  3 eigenvalues not converged
     c_bands:  2 eigenvalues not converged
     c_bands:  3 eigenvalues not converged
     c_bands:  3 eigenvalues not converged
     c_bands:  1 eigenvalues not converged
     c_bands:  4 eigenvalues not converged
     c_bands:  3 eigenvalues not converged
     c_bands:  2 eigenvalues not converged
     c_bands:  3 eigenvalues not converged
     c_bands:  4 eigenvalues not converged
     c_bands:  3 eigenvalues not converged
     c_bands:  1 eigenvalues not converged
     c_bands:  3 eigenvalues not converged
     c_bands:  1 eigenvalues not converged
     c_bands:  2 eigenvalues not converged
     c_bands:  2 eigenvalues not converged
     c_bands:  1 eigenvalues not converged
     c_bands:  1 eigenvalues not converged
     c_bands:  1 eigenvalues not converged
     c_bands:  1 eigenvalues not converged
     c_bands:  2 eigenvalues not converged
     c_bands:  1 eigenvalues not converged
     c_bands:  1 eigenvalues not converged
     c_bands:  2 eigenvalues not converged
     c_bands:  2 eigenvalues not converged
     c_bands:  1 eigenvalues not converged
     c_bands:  2 eigenvalues not converged
     c_bands:  5 eigenvalues not converged
     c_bands:  2 eigenvalues not converged
     c_bands:  2 eigenvalues not converged
     ethr =  1.58E-04,  avg # of iterations = 19.3

     total cpu time spent up to now is      221.3 secs

     total energy              =    -360.82700098 Ry
     estimated scf accuracy    <       0.09257714 Ry

     iteration # 26     ecut=    50.00 Ry     beta= 0.30
     Davidson diagonalization with overlap
     c_bands:  1 eigenvalues not converged
     ethr =  1.58E-04,  avg # of iterations =  3.5

     total cpu time spent up to now is      227.5 secs

     total energy              =    -360.82216531 Ry
     estimated scf accuracy    <       0.13118671 Ry

     iteration # 27     ecut=    50.00 Ry     beta= 0.30
     Davidson diagonalization with overlap
     ethr =  1.58E-04,  avg # of iterations =  1.3

     total cpu time spent up to now is      232.9 secs

     total energy              =    -360.79734373 Ry
     estimated scf accuracy    <       0.10829082 Ry

     iteration # 28     ecut=    50.00 Ry     beta= 0.30
     Davidson diagonalization with overlap
     ethr =  1.58E-04,  avg # of iterations =  6.8

     total cpu time spent up to now is      241.3 secs

     total energy              =    -360.81786676 Ry
     estimated scf accuracy    <       0.01182378 Ry

     iteration # 29     ecut=    50.00 Ry     beta= 0.30
     Davidson diagonalization with overlap
     ethr =  3.28E-05,  avg # of iterations =  5.8

     total cpu time spent up to now is      249.3 secs

     total energy              =    -360.82982056 Ry
     estimated scf accuracy    <       0.05047894 Ry

     iteration # 30     ecut=    50.00 Ry     beta= 0.30
     Davidson diagonalization with overlap
     ethr =  3.28E-05,  avg # of iterations =  7.3

     total cpu time spent up to now is      258.1 secs

     total energy              =    -360.83518799 Ry
     estimated scf accuracy    <       0.19003565 Ry

     iteration # 31     ecut=    50.00 Ry     beta= 0.30
     Davidson diagonalization with overlap
     ethr =  3.28E-05,  avg # of iterations =  1.1

     total cpu time spent up to now is      263.5 secs

     total energy              =    -360.83000056 Ry
     estimated scf accuracy    <       0.19148387 Ry

     iteration # 32     ecut=    50.00 Ry     beta= 0.30
     Davidson diagonalization with overlap
     ethr =  3.28E-05,  avg # of iterations =  1.1

     total cpu time spent up to now is      268.9 secs

     total energy              =    -360.80930206 Ry
     estimated scf accuracy    <       0.18083020 Ry

     iteration # 33     ecut=    50.00 Ry     beta= 0.30
     Davidson diagonalization with overlap
     c_bands:  1 eigenvalues not converged
     ethr =  3.28E-05,  avg # of iterations =  7.7

     total cpu time spent up to now is      278.3 secs

     total energy              =    -360.81928746 Ry
     estimated scf accuracy    <       0.03413421 Ry

     iteration # 34     ecut=    50.00 Ry     beta= 0.30
     Davidson diagonalization with overlap
     ethr =  3.28E-05,  avg # of iterations =  1.2

     total cpu time spent up to now is      283.8 secs

     total energy              =    -360.80547444 Ry
     estimated scf accuracy    <       0.03808644 Ry

     iteration # 35     ecut=    50.00 Ry     beta= 0.30
     Davidson diagonalization with overlap
     c_bands:  1 eigenvalues not converged
     c_bands:  2 eigenvalues not converged
     c_bands:  3 eigenvalues not converged
     c_bands:  2 eigenvalues not converged
     c_bands:  1 eigenvalues not converged
     c_bands:  1 eigenvalues not converged
     c_bands:  5 eigenvalues not converged
     c_bands:  1 eigenvalues not converged
     c_bands:  1 eigenvalues not converged
     c_bands:  2 eigenvalues not converged
     c_bands:  2 eigenvalues not converged
     c_bands:  1 eigenvalues not converged
     c_bands:  2 eigenvalues not converged
     c_bands:  2 eigenvalues not converged
     c_bands:  3 eigenvalues not converged
     c_bands:  1 eigenvalues not converged
     c_bands:  1 eigenvalues not converged
     c_bands:  2 eigenvalues not converged
     c_bands:  2 eigenvalues not converged
     c_bands:  2 eigenvalues not converged
     c_bands:  3 eigenvalues not converged
     c_bands:  3 eigenvalues not converged
     c_bands:  1 eigenvalues not converged
     c_bands:  1 eigenvalues not converged
     c_bands:  3 eigenvalues not converged
     c_bands:  3 eigenvalues not converged
     c_bands:  1 eigenvalues not converged
     c_bands:  1 eigenvalues not converged
     c_bands:  2 eigenvalues not converged
     c_bands:  2 eigenvalues not converged
     c_bands:  2 eigenvalues not converged
     c_bands:  3 eigenvalues not converged
     ethr =  3.28E-05,  avg # of iterations = 16.2

     total cpu time spent up to now is      300.0 secs

     total energy              =    -360.82041008 Ry
     estimated scf accuracy    <       0.22448720 Ry

     iteration # 36     ecut=    50.00 Ry     beta= 0.30
     Davidson diagonalization with overlap
     c_bands:  1 eigenvalues not converged
     ethr =  3.28E-05,  avg # of iterations =  6.2

     total cpu time spent up to now is      308.3 secs

     total energy              =    -360.76846006 Ry
     estimated scf accuracy    <       0.12112788 Ry

     iteration # 37     ecut=    50.00 Ry     beta= 0.30
     Davidson diagonalization with overlap
     c_bands:  1 eigenvalues not converged
     c_bands:  2 eigenvalues not converged
     c_bands:  1 eigenvalues not converged
     c_bands:  2 eigenvalues not converged
     c_bands:  2 eigenvalues not converged
     c_bands:  2 eigenvalues not converged
     c_bands:  1 eigenvalues not converged
     c_bands:  1 eigenvalues not converged
     c_bands:  2 eigenvalues not converged
     c_bands:  3 eigenvalues not converged
     c_bands:  2 eigenvalues not converged
     c_bands:  2 eigenvalues not converged
     c_bands:  2 eigenvalues not converged
     c_bands:  2 eigenvalues not converged
     c_bands:  2 eigenvalues not converged
     c_bands:  3 eigenvalues not converged
     c_bands:  1 eigenvalues not converged
     c_bands:  3 eigenvalues not converged
     c_bands:  4 eigenvalues not converged
     c_bands:  1 eigenvalues not converged
     c_bands:  3 eigenvalues not converged
     c_bands:  1 eigenvalues not converged
     c_bands:  1 eigenvalues not converged
     c_bands:  3 eigenvalues not converged
     c_bands:  2 eigenvalues not converged
     c_bands:  1 eigenvalues not converged
     c_bands:  2 eigenvalues not converged
     c_bands:  3 eigenvalues not converged
     c_bands:  3 eigenvalues not converged
     c_bands:  2 eigenvalues not converged
     c_bands:  3 eigenvalues not converged
     c_bands:  2 eigenvalues not converged
     c_bands:  3 eigenvalues not converged
     c_bands:  1 eigenvalues not converged
     c_bands:  2 eigenvalues not converged
     c_bands:  3 eigenvalues not converged
     c_bands:  3 eigenvalues not converged
     c_bands:  2 eigenvalues not converged
     c_bands:  2 eigenvalues not converged
     c_bands:  3 eigenvalues not converged
     c_bands:  3 eigenvalues not converged
     c_bands:  3 eigenvalues not converged
     c_bands:  2 eigenvalues not converged
     c_bands:  3 eigenvalues not converged
     c_bands:  1 eigenvalues not converged
     c_bands:  2 eigenvalues not converged
     c_bands:  3 eigenvalues not converged
     c_bands:  2 eigenvalues not converged
     c_bands:  3 eigenvalues not converged
     c_bands:  2 eigenvalues not converged
     c_bands:  1 eigenvalues not converged
     c_bands:  1 eigenvalues not converged
     c_bands:  2 eigenvalues not converged
     c_bands:  3 eigenvalues not converged
     c_bands:  1 eigenvalues not converged
     c_bands:  2 eigenvalues not converged
     c_bands:  3 eigenvalues not converged
     c_bands:  1 eigenvalues not converged
     c_bands:  2 eigenvalues not converged
     c_bands:  1 eigenvalues not converged
     c_bands:  1 eigenvalues not converged
     c_bands:  2 eigenvalues not converged
     c_bands:  3 eigenvalues not converged
     c_bands:  3 eigenvalues not converged
     c_bands:  3 eigenvalues not converged
     c_bands:  3 eigenvalues not converged
     c_bands:  3 eigenvalues not converged
     c_bands:  3 eigenvalues not converged
     c_bands:  3 eigenvalues not converged
     c_bands:  3 eigenvalues not converged
     c_bands:  2 eigenvalues not converged
     c_bands:  3 eigenvalues not converged
     c_bands:  1 eigenvalues not converged
     c_bands:  3 eigenvalues not converged
     c_bands:  2 eigenvalues not converged
     ethr =  3.28E-05,  avg # of iterations = 19.1

     total cpu time spent up to now is      327.2 secs

     total energy              =    -360.87055544 Ry
     estimated scf accuracy    <       0.76508885 Ry

     iteration # 38     ecut=    50.00 Ry     beta= 0.30
     Davidson diagonalization with overlap
     c_bands:  1 eigenvalues not converged
     c_bands:  1 eigenvalues not converged
     ethr =  3.28E-05,  avg # of iterations =  5.9

     total cpu time spent up to now is      334.4 secs

     total energy              =    -360.83264539 Ry
     estimated scf accuracy    <       0.81470573 Ry

     iteration # 39     ecut=    50.00 Ry     beta= 0.30
     Davidson diagonalization with overlap
     c_bands:  1 eigenvalues not converged
     ethr =  3.28E-05,  avg # of iterations =  8.7

     total cpu time spent up to now is      344.4 secs

     total energy              =    -360.82156496 Ry
     estimated scf accuracy    <       0.43868054 Ry

     iteration # 40     ecut=    50.00 Ry     beta= 0.30
     Davidson diagonalization with overlap
     ethr =  3.28E-05,  avg # of iterations =  5.6

     total cpu time spent up to now is      352.0 secs

     total energy              =    -360.82056455 Ry
     estimated scf accuracy    <       0.27640402 Ry

     iteration # 41     ecut=    50.00 Ry     beta= 0.30
     Davidson diagonalization with overlap
     ethr =  3.28E-05,  avg # of iterations =  2.8

     total cpu time spent up to now is      358.4 secs

     total energy              =    -360.79713659 Ry
     estimated scf accuracy    <       0.22968546 Ry

     iteration # 42     ecut=    50.00 Ry     beta= 0.30
     Davidson diagonalization with overlap
     c_bands:  1 eigenvalues not converged
     c_bands:  2 eigenvalues not converged
     c_bands:  1 eigenvalues not converged
     c_bands:  1 eigenvalues not converged
     c_bands:  1 eigenvalues not converged
     c_bands:  1 eigenvalues not converged
     c_bands:  1 eigenvalues not converged
     c_bands:  1 eigenvalues not converged
     c_bands:  2 eigenvalues not converged
     c_bands:  1 eigenvalues not converged
     c_bands:  2 eigenvalues not converged
     ethr =  3.28E-05,  avg # of iterations = 12.1

     total cpu time spent up to now is      371.2 secs

     total energy              =    -360.81441046 Ry
     estimated scf accuracy    <       0.00967490 Ry

     iteration # 43     ecut=    50.00 Ry     beta= 0.30
     Davidson diagonalization with overlap
     ethr =  2.69E-05,  avg # of iterations =  2.5

     total cpu time spent up to now is      377.0 secs

     total energy              =    -360.81473827 Ry
     estimated scf accuracy    <       0.00463511 Ry

     iteration # 44     ecut=    50.00 Ry     beta= 0.30
     Davidson diagonalization with overlap
     c_bands:  1 eigenvalues not converged
     c_bands:  1 eigenvalues not converged
     c_bands:  1 eigenvalues not converged
     c_bands:  1 eigenvalues not converged
     ethr =  1.29E-05,  avg # of iterations =  7.8

     total cpu time spent up to now is      386.6 secs

     total energy              =    -360.81748585 Ry
     estimated scf accuracy    <       0.00786545 Ry

     iteration # 45     ecut=    50.00 Ry     beta= 0.30
     Davidson diagonalization with overlap
     ethr =  1.29E-05,  avg # of iterations =  1.3

     total cpu time spent up to now is      391.9 secs

     total energy              =    -360.81717136 Ry
     estimated scf accuracy    <       0.00668927 Ry

     iteration # 46     ecut=    50.00 Ry     beta= 0.30
     Davidson diagonalization with overlap
     ethr =  1.29E-05,  avg # of iterations =  1.2

     total cpu time spent up to now is      397.3 secs

     total energy              =    -360.81706843 Ry
     estimated scf accuracy    <       0.00585969 Ry

     iteration # 47     ecut=    50.00 Ry     beta= 0.30
     Davidson diagonalization with overlap
     ethr =  1.29E-05,  avg # of iterations =  1.0

     total cpu time spent up to now is      402.5 secs

     total energy              =    -360.81588616 Ry
     estimated scf accuracy    <       0.00525329 Ry

     iteration # 48     ecut=    50.00 Ry     beta= 0.30
     Davidson diagonalization with overlap
     c_bands:  1 eigenvalues not converged
     c_bands:  1 eigenvalues not converged
     ethr =  1.29E-05,  avg # of iterations =  5.2

     total cpu time spent up to now is      409.8 secs

     total energy              =    -360.81694632 Ry
     estimated scf accuracy    <       0.00119241 Ry

     iteration # 49     ecut=    50.00 Ry     beta= 0.30
     Davidson diagonalization with overlap
     c_bands:  1 eigenvalues not converged
     c_bands:  2 eigenvalues not converged
     c_bands:  2 eigenvalues not converged
     c_bands:  1 eigenvalues not converged
     c_bands:  1 eigenvalues not converged
     c_bands:  1 eigenvalues not converged
     c_bands:  1 eigenvalues not converged
     c_bands:  1 eigenvalues not converged
     c_bands:  1 eigenvalues not converged
     ethr =  3.31E-06,  avg # of iterations =  7.8

     total cpu time spent up to now is      418.8 secs

     total energy              =    -360.81747205 Ry
     estimated scf accuracy    <       0.00410202 Ry

     iteration # 50     ecut=    50.00 Ry     beta= 0.30
     Davidson diagonalization with overlap
     ethr =  3.31E-06,  avg # of iterations =  1.3

     total cpu time spent up to now is      424.1 secs

     total energy              =    -360.81694148 Ry
     estimated scf accuracy    <       0.00375119 Ry

     iteration # 51     ecut=    50.00 Ry     beta= 0.30
     Davidson diagonalization with overlap
     ethr =  3.31E-06,  avg # of iterations =  4.6

     total cpu time spent up to now is      431.3 secs

     total energy              =    -360.81687728 Ry
     estimated scf accuracy    <       0.00065960 Ry

     iteration # 52     ecut=    50.00 Ry     beta= 0.30
     Davidson diagonalization with overlap
     c_bands:  1 eigenvalues not converged
     c_bands:  1 eigenvalues not converged
     c_bands:  1 eigenvalues not converged
     c_bands:  1 eigenvalues not converged
     c_bands:  1 eigenvalues not converged
     c_bands:  1 eigenvalues not converged
     c_bands:  1 eigenvalues not converged
     c_bands:  1 eigenvalues not converged
     c_bands:  1 eigenvalues not converged
     ethr =  1.83E-06,  avg # of iterations = 10.9

     total cpu time spent up to now is      443.1 secs

     total energy              =    -360.81795828 Ry
     estimated scf accuracy    <       0.01449159 Ry

     iteration # 53     ecut=    50.00 Ry     beta= 0.30
     Davidson diagonalization with overlap
     ethr =  1.83E-06,  avg # of iterations =  1.5

     total cpu time spent up to now is      448.5 secs

     total energy              =    -360.81527995 Ry
     estimated scf accuracy    <       0.01330303 Ry

     iteration # 54     ecut=    50.00 Ry     beta= 0.30
     Davidson diagonalization with overlap
     c_bands:  1 eigenvalues not converged
     c_bands:  2 eigenvalues not converged
     c_bands:  3 eigenvalues not converged
     c_bands:  2 eigenvalues not converged
     c_bands:  2 eigenvalues not converged
     c_bands:  3 eigenvalues not converged
     c_bands:  1 eigenvalues not converged
     c_bands:  2 eigenvalues not converged
     c_bands:  2 eigenvalues not converged
     c_bands:  1 eigenvalues not converged
     c_bands:  3 eigenvalues not converged
     c_bands:  1 eigenvalues not converged
     c_bands:  2 eigenvalues not converged
     c_bands:  2 eigenvalues not converged
     c_bands:  1 eigenvalues not converged
     c_bands:  3 eigenvalues not converged
     c_bands:  2 eigenvalues not converged
     c_bands:  3 eigenvalues not converged
     c_bands:  1 eigenvalues not converged
     c_bands:  2 eigenvalues not converged
     c_bands:  2 eigenvalues not converged
     c_bands:  2 eigenvalues not converged
     c_bands:  2 eigenvalues not converged
     ethr =  1.83E-06,  avg # of iterations = 15.7

     total cpu time spent up to now is      464.2 secs

     total energy              =    -360.81744644 Ry
     estimated scf accuracy    <       0.00328586 Ry

     iteration # 55     ecut=    50.00 Ry     beta= 0.30
     Davidson diagonalization with overlap
     ethr =  1.83E-06,  avg # of iterations =  2.0

     total cpu time spent up to now is      469.7 secs

     total energy              =    -360.81750950 Ry
     estimated scf accuracy    <       0.00359572 Ry

     iteration # 56     ecut=    50.00 Ry     beta= 0.30
     Davidson diagonalization with overlap
     ethr =  1.83E-06,  avg # of iterations =  1.0

     total cpu time spent up to now is      474.9 secs

     total energy              =    -360.81750605 Ry
     estimated scf accuracy    <       0.00352444 Ry

     iteration # 57     ecut=    50.00 Ry     beta= 0.30
     Davidson diagonalization with overlap
     ethr =  1.83E-06,  avg # of iterations =  1.0

     total cpu time spent up to now is      480.1 secs

     total energy              =    -360.81723612 Ry
     estimated scf accuracy    <       0.00336148 Ry

     iteration # 58     ecut=    50.00 Ry     beta= 0.30
     Davidson diagonalization with overlap
     ethr =  1.83E-06,  avg # of iterations =  3.8

     total cpu time spent up to now is      486.8 secs

     total energy              =    -360.81705762 Ry
     estimated scf accuracy    <       0.00174672 Ry

     iteration # 59     ecut=    50.00 Ry     beta= 0.30
     Davidson diagonalization with overlap
     c_bands:  1 eigenvalues not converged
     ethr =  1.83E-06,  avg # of iterations =  6.6

     total cpu time spent up to now is      495.1 secs

     total energy              =    -360.81732085 Ry
     estimated scf accuracy    <       0.00008806 Ry

     iteration # 60     ecut=    50.00 Ry     beta= 0.30
     Davidson diagonalization with overlap
     ethr =  2.45E-07,  avg # of iterations =  5.3

     total cpu time spent up to now is      502.7 secs

     total energy              =    -360.81729772 Ry
     estimated scf accuracy    <       0.00020906 Ry

     iteration # 61     ecut=    50.00 Ry     beta= 0.30
     Davidson diagonalization with overlap
     c_bands:  1 eigenvalues not converged
     c_bands:  1 eigenvalues not converged
     ethr =  2.45E-07,  avg # of iterations =  9.6

     total cpu time spent up to now is      513.3 secs

     total energy              =    -360.81735910 Ry
     estimated scf accuracy    <       0.00025963 Ry

     iteration # 62     ecut=    50.00 Ry     beta= 0.30
     Davidson diagonalization with overlap
     ethr =  2.45E-07,  avg # of iterations =  1.2

     total cpu time spent up to now is      518.5 secs

     total energy              =    -360.81734490 Ry
     estimated scf accuracy    <       0.00021960 Ry

     iteration # 63     ecut=    50.00 Ry     beta= 0.30
     Davidson diagonalization with overlap
     ethr =  2.45E-07,  avg # of iterations =  2.2

     total cpu time spent up to now is      524.5 secs

     total energy              =    -360.81733330 Ry
     estimated scf accuracy    <       0.00015310 Ry

     iteration # 64     ecut=    50.00 Ry     beta= 0.30
     Davidson diagonalization with overlap
     c_bands:  1 eigenvalues not converged
     ethr =  2.45E-07,  avg # of iterations =  4.5

     total cpu time spent up to now is      531.5 secs

     total energy              =    -360.81734292 Ry
     estimated scf accuracy    <       0.00003792 Ry

     iteration # 65     ecut=    50.00 Ry     beta= 0.30
     Davidson diagonalization with overlap
     c_bands:  1 eigenvalues not converged
     c_bands:  2 eigenvalues not converged
     ethr =  1.05E-07,  avg # of iterations =  5.8

     total cpu time spent up to now is      539.2 secs

     total energy              =    -360.81735440 Ry
     estimated scf accuracy    <       0.00001590 Ry

     iteration # 66     ecut=    50.00 Ry     beta= 0.30
     Davidson diagonalization with overlap
     c_bands:  1 eigenvalues not converged
     ethr =  4.42E-08,  avg # of iterations =  5.1

     total cpu time spent up to now is      546.5 secs

     total energy              =    -360.81735971 Ry
     estimated scf accuracy    <       0.00004697 Ry

     iteration # 67     ecut=    50.00 Ry     beta= 0.30
     Davidson diagonalization with overlap
     ethr =  4.42E-08,  avg # of iterations =  1.1

     total cpu time spent up to now is      551.8 secs

     total energy              =    -360.81735907 Ry
     estimated scf accuracy    <       0.00004856 Ry

     iteration # 68     ecut=    50.00 Ry     beta= 0.30
     Davidson diagonalization with overlap
     ethr =  4.42E-08,  avg # of iterations =  1.2

     total cpu time spent up to now is      557.1 secs

     total energy              =    -360.81735613 Ry
     estimated scf accuracy    <       0.00004852 Ry

     iteration # 69     ecut=    50.00 Ry     beta= 0.30
     Davidson diagonalization with overlap
     ethr =  4.42E-08,  avg # of iterations =  1.0

     total cpu time spent up to now is      562.2 secs

     total energy              =    -360.81734242 Ry
     estimated scf accuracy    <       0.00004186 Ry

     iteration # 70     ecut=    50.00 Ry     beta= 0.30
     Davidson diagonalization with overlap
     c_bands:  2 eigenvalues not converged
     c_bands:  1 eigenvalues not converged
     c_bands:  1 eigenvalues not converged
     c_bands:  1 eigenvalues not converged
     c_bands:  1 eigenvalues not converged
     c_bands:  1 eigenvalues not converged
     c_bands:  1 eigenvalues not converged
     c_bands:  3 eigenvalues not converged
     c_bands:  1 eigenvalues not converged
     ethr =  4.42E-08,  avg # of iterations = 12.4

     total cpu time spent up to now is      575.2 secs

     total energy              =    -360.81735468 Ry
     estimated scf accuracy    <       0.00017531 Ry

     iteration # 71     ecut=    50.00 Ry     beta= 0.30
     Davidson diagonalization with overlap
     c_bands:  1 eigenvalues not converged
     ethr =  4.42E-08,  avg # of iterations =  2.2

     total cpu time spent up to now is      580.9 secs

     total energy              =    -360.81736573 Ry
     estimated scf accuracy    <       0.00013746 Ry

     iteration # 72     ecut=    50.00 Ry     beta= 0.30
     Davidson diagonalization with overlap
     c_bands:  1 eigenvalues not converged
     ethr =  4.42E-08,  avg # of iterations =  1.2

     total cpu time spent up to now is      586.1 secs

     total energy              =    -360.81732382 Ry
     estimated scf accuracy    <       0.00015743 Ry

     iteration # 73     ecut=    50.00 Ry     beta= 0.30
     Davidson diagonalization with overlap
     c_bands:  2 eigenvalues not converged
     c_bands:  3 eigenvalues not converged
     c_bands:  1 eigenvalues not converged
     c_bands:  2 eigenvalues not converged
     c_bands:  2 eigenvalues not converged
     c_bands:  1 eigenvalues not converged
     ethr =  4.42E-08,  avg # of iterations = 14.2

     total cpu time spent up to now is      600.4 secs

     total energy              =    -360.81735172 Ry
     estimated scf accuracy    <       0.00007338 Ry

     iteration # 74     ecut=    50.00 Ry     beta= 0.30
     Davidson diagonalization with overlap
     ethr =  4.42E-08,  avg # of iterations =  1.7

     total cpu time spent up to now is      606.0 secs

     total energy              =    -360.81734413 Ry
     estimated scf accuracy    <       0.00005183 Ry

     iteration # 75     ecut=    50.00 Ry     beta= 0.30
     Davidson diagonalization with overlap
     ethr =  4.42E-08,  avg # of iterations =  8.2

     total cpu time spent up to now is      615.9 secs

     total energy              =    -360.81735591 Ry
     estimated scf accuracy    <       0.00000697 Ry

     iteration # 76     ecut=    50.00 Ry     beta= 0.30
     Davidson diagonalization with overlap
     ethr =  1.94E-08,  avg # of iterations =  2.4

     total cpu time spent up to now is      621.7 secs

     total energy              =    -360.81735569 Ry
     estimated scf accuracy    <       0.00001081 Ry

     iteration # 77     ecut=    50.00 Ry     beta= 0.30
     Davidson diagonalization with overlap
     ethr =  1.94E-08,  avg # of iterations =  1.3

     total cpu time spent up to now is      627.0 secs

     total energy              =    -360.81735378 Ry
     estimated scf accuracy    <       0.00001028 Ry

     iteration # 78     ecut=    50.00 Ry     beta= 0.30
     Davidson diagonalization with overlap
     ethr =  1.94E-08,  avg # of iterations =  1.2

     total cpu time spent up to now is      632.3 secs

     total energy              =    -360.81735290 Ry
     estimated scf accuracy    <       0.00000612 Ry

     iteration # 79     ecut=    50.00 Ry     beta= 0.30
     Davidson diagonalization with overlap
     c_bands:  1 eigenvalues not converged
     ethr =  1.70E-08,  avg # of iterations =  6.1

     total cpu time spent up to now is      640.3 secs

     total energy              =    -360.81735518 Ry
     estimated scf accuracy    <       0.00000155 Ry

     iteration # 80     ecut=    50.00 Ry     beta= 0.30
     Davidson diagonalization with overlap
     c_bands:  1 eigenvalues not converged
     c_bands:  2 eigenvalues not converged
     c_bands:  1 eigenvalues not converged
     ethr =  4.31E-09,  avg # of iterations =  6.5

     total cpu time spent up to now is      649.3 secs

     total energy              =    -360.81735620 Ry
     estimated scf accuracy    <       0.00001261 Ry

     iteration # 81     ecut=    50.00 Ry     beta= 0.30
     Davidson diagonalization with overlap
     ethr =  4.31E-09,  avg # of iterations =  1.2

     total cpu time spent up to now is      654.7 secs

     total energy              =    -360.81735589 Ry
     estimated scf accuracy    <       0.00001294 Ry

     iteration # 82     ecut=    50.00 Ry     beta= 0.30
     Davidson diagonalization with overlap
     ethr =  4.31E-09,  avg # of iterations =  1.1

     total cpu time spent up to now is      660.2 secs

     total energy              =    -360.81735403 Ry
     estimated scf accuracy    <       0.00001256 Ry

     iteration # 83     ecut=    50.00 Ry     beta= 0.30
     Davidson diagonalization with overlap
     c_bands:  1 eigenvalues not converged
     ethr =  4.31E-09,  avg # of iterations =  5.4

     total cpu time spent up to now is      668.1 secs

     total energy              =    -360.81735410 Ry
     estimated scf accuracy    <       0.00000302 Ry

     iteration # 84     ecut=    50.00 Ry     beta= 0.30
     Davidson diagonalization with overlap
     ethr =  4.31E-09,  avg # of iterations =  5.0

     total cpu time spent up to now is      676.1 secs

     total energy              =    -360.81735466 Ry
     estimated scf accuracy    <       0.00000005 Ry

     iteration # 85     ecut=    50.00 Ry     beta= 0.30
     Davidson diagonalization with overlap
     c_bands:  2 eigenvalues not converged
     c_bands:  4 eigenvalues not converged
     c_bands:  1 eigenvalues not converged
     c_bands:  1 eigenvalues not converged
     c_bands:  1 eigenvalues not converged
     c_bands:  1 eigenvalues not converged
     c_bands:  1 eigenvalues not converged
     c_bands:  2 eigenvalues not converged
     c_bands:  2 eigenvalues not converged
     c_bands:  1 eigenvalues not converged
     c_bands:  3 eigenvalues not converged
     c_bands:  3 eigenvalues not converged
     c_bands:  3 eigenvalues not converged
     c_bands:  1 eigenvalues not converged
     c_bands:  3 eigenvalues not converged
     c_bands:  5 eigenvalues not converged
     c_bands:  5 eigenvalues not converged
     c_bands:  2 eigenvalues not converged
     c_bands:  1 eigenvalues not converged
     c_bands:  4 eigenvalues not converged
     c_bands:  4 eigenvalues not converged
     c_bands:  4 eigenvalues not converged
     c_bands:  3 eigenvalues not converged
     c_bands:  2 eigenvalues not converged
     c_bands:  5 eigenvalues not converged
     c_bands:  2 eigenvalues not converged
     c_bands:  1 eigenvalues not converged
     c_bands:  4 eigenvalues not converged
     c_bands:  4 eigenvalues not converged
     c_bands:  2 eigenvalues not converged
     c_bands:  3 eigenvalues not converged
     c_bands:  1 eigenvalues not converged
     c_bands:  3 eigenvalues not converged
     c_bands:  4 eigenvalues not converged
     c_bands:  4 eigenvalues not converged
     c_bands:  3 eigenvalues not converged
     c_bands:  3 eigenvalues not converged
     c_bands:  1 eigenvalues not converged
     c_bands:  3 eigenvalues not converged
     c_bands:  3 eigenvalues not converged
     c_bands:  4 eigenvalues not converged
     c_bands:  2 eigenvalues not converged
     c_bands:  3 eigenvalues not converged
     c_bands:  5 eigenvalues not converged
     c_bands:  3 eigenvalues not converged
     c_bands:  4 eigenvalues not converged
     c_bands:  4 eigenvalues not converged
     c_bands:  1 eigenvalues not converged
     c_bands:  1 eigenvalues not converged
     c_bands:  1 eigenvalues not converged
     c_bands:  3 eigenvalues not converged
     c_bands:  2 eigenvalues not converged
     c_bands:  1 eigenvalues not converged
     c_bands:  3 eigenvalues not converged
     c_bands:  1 eigenvalues not converged
     c_bands:  3 eigenvalues not converged
     c_bands:  2 eigenvalues not converged
     c_bands:  3 eigenvalues not converged
     c_bands:  4 eigenvalues not converged
     c_bands:  1 eigenvalues not converged
     c_bands:  4 eigenvalues not converged
     c_bands:  2 eigenvalues not converged
     c_bands:  1 eigenvalues not converged
     c_bands:  3 eigenvalues not converged
     c_bands:  2 eigenvalues not converged
     c_bands:  2 eigenvalues not converged
     c_bands:  3 eigenvalues not converged
     c_bands:  3 eigenvalues not converged
     c_bands:  3 eigenvalues not converged
     ethr =  1.52E-10,  avg # of iterations = 18.4

     total cpu time spent up to now is      695.3 secs

     total energy              =    -360.81735511 Ry
     estimated scf accuracy    <       0.00000627 Ry

     iteration # 86     ecut=    50.00 Ry     beta= 0.30
     Davidson diagonalization with overlap
     c_bands:  1 eigenvalues not converged
     c_bands:  1 eigenvalues not converged
     c_bands:  1 eigenvalues not converged
     c_bands:  1 eigenvalues not converged
     c_bands:  1 eigenvalues not converged
     c_bands:  1 eigenvalues not converged
     c_bands:  1 eigenvalues not converged
     ethr =  1.52E-10,  avg # of iterations =  5.6

     total cpu time spent up to now is      702.5 secs

     total energy              =    -360.81735418 Ry
     estimated scf accuracy    <       0.00000720 Ry

     iteration # 87     ecut=    50.00 Ry     beta= 0.30
     Davidson diagonalization with overlap
     c_bands:  1 eigenvalues not converged
     c_bands:  1 eigenvalues not converged
     c_bands:  2 eigenvalues not converged
     c_bands:  5 eigenvalues not converged
     c_bands:  2 eigenvalues not converged
     c_bands:  2 eigenvalues not converged
     c_bands:  2 eigenvalues not converged
     c_bands:  1 eigenvalues not converged
     c_bands:  1 eigenvalues not converged
     c_bands:  2 eigenvalues not converged
     c_bands:  3 eigenvalues not converged
     c_bands:  3 eigenvalues not converged
     c_bands:  3 eigenvalues not converged
     c_bands:  1 eigenvalues not converged
     c_bands:  2 eigenvalues not converged
     c_bands:  1 eigenvalues not converged
     c_bands:  5 eigenvalues not converged
     c_bands:  1 eigenvalues not converged
     c_bands:  2 eigenvalues not converged
     c_bands:  2 eigenvalues not converged
     c_bands:  5 eigenvalues not converged
     c_bands:  3 eigenvalues not converged
     c_bands:  4 eigenvalues not converged
     c_bands:  3 eigenvalues not converged
     c_bands:  2 eigenvalues not converged
     c_bands:  3 eigenvalues not converged
     c_bands:  1 eigenvalues not converged
     c_bands:  2 eigenvalues not converged
     c_bands:  2 eigenvalues not converged
     c_bands:  2 eigenvalues not converged
     c_bands:  1 eigenvalues not converged
     c_bands:  4 eigenvalues not converged
     c_bands:  1 eigenvalues not converged
     c_bands:  3 eigenvalues not converged
     c_bands:  1 eigenvalues not converged
     c_bands:  2 eigenvalues not converged
     c_bands:  1 eigenvalues not converged
     c_bands:  1 eigenvalues not converged
     c_bands:  2 eigenvalues not converged
     c_bands:  2 eigenvalues not converged
     c_bands:  1 eigenvalues not converged
     c_bands:  1 eigenvalues not converged
     c_bands:  3 eigenvalues not converged
     c_bands:  3 eigenvalues not converged
     c_bands:  1 eigenvalues not converged
     c_bands:  1 eigenvalues not converged
     c_bands:  2 eigenvalues not converged
     c_bands:  1 eigenvalues not converged
     c_bands:  1 eigenvalues not converged
     c_bands:  3 eigenvalues not converged
     c_bands:  2 eigenvalues not converged
     c_bands:  3 eigenvalues not converged
     c_bands:  3 eigenvalues not converged
     c_bands:  1 eigenvalues not converged
     c_bands:  3 eigenvalues not converged
     c_bands:  1 eigenvalues not converged
     c_bands:  3 eigenvalues not converged
     ethr =  1.52E-10,  avg # of iterations = 18.4

     total cpu time spent up to now is      721.5 secs

     total energy              =    -360.81735470 Ry
     estimated scf accuracy    <       0.00000015 Ry

     iteration # 88     ecut=    50.00 Ry     beta= 0.30
     Davidson diagonalization with overlap
     c_bands:  1 eigenvalues not converged
     c_bands:  1 eigenvalues not converged
     c_bands:  1 eigenvalues not converged
     c_bands:  1 eigenvalues not converged
     c_bands:  2 eigenvalues not converged
     c_bands:  1 eigenvalues not converged
     c_bands:  1 eigenvalues not converged
     c_bands:  2 eigenvalues not converged
     c_bands:  2 eigenvalues not converged
     c_bands:  1 eigenvalues not converged
     c_bands:  2 eigenvalues not converged
     c_bands:  1 eigenvalues not converged
     c_bands:  1 eigenvalues not converged
     c_bands:  1 eigenvalues not converged
     c_bands:  1 eigenvalues not converged
     c_bands:  1 eigenvalues not converged
     c_bands:  1 eigenvalues not converged
     c_bands:  1 eigenvalues not converged
     c_bands:  1 eigenvalues not converged
     c_bands:  2 eigenvalues not converged
     c_bands:  1 eigenvalues not converged
     c_bands:  1 eigenvalues not converged
     c_bands:  1 eigenvalues not converged
     ethr =  1.52E-10,  avg # of iterations = 12.6

     total cpu time spent up to now is      734.0 secs

     total energy              =    -360.81735465 Ry
     estimated scf accuracy    <       0.00000064 Ry

     iteration # 89     ecut=    50.00 Ry     beta= 0.30
     Davidson diagonalization with overlap
     c_bands:  2 eigenvalues not converged
     c_bands:  1 eigenvalues not converged
     c_bands:  1 eigenvalues not converged
     c_bands:  1 eigenvalues not converged
     ethr =  1.52E-10,  avg # of iterations = 10.7

     total cpu time spent up to now is      746.4 secs

     total energy              =    -360.81735472 Ry
     estimated scf accuracy    <       0.00000009 Ry

     iteration # 90     ecut=    50.00 Ry     beta= 0.30
     Davidson diagonalization with overlap
     ethr =  1.52E-10,  avg # of iterations =  6.2

     total cpu time spent up to now is      754.8 secs

     total energy              =    -360.81735475 Ry
     estimated scf accuracy    <       0.00000002 Ry

     iteration # 91     ecut=    50.00 Ry     beta= 0.30
     Davidson diagonalization with overlap
     c_bands:  1 eigenvalues not converged
     c_bands:  2 eigenvalues not converged
     c_bands:  3 eigenvalues not converged
     c_bands:  3 eigenvalues not converged
     c_bands:  3 eigenvalues not converged
     c_bands:  1 eigenvalues not converged
     c_bands:  1 eigenvalues not converged
     c_bands:  2 eigenvalues not converged
     c_bands:  2 eigenvalues not converged
     c_bands:  1 eigenvalues not converged
     c_bands:  1 eigenvalues not converged
     c_bands:  1 eigenvalues not converged
     c_bands:  3 eigenvalues not converged
     c_bands:  1 eigenvalues not converged
     c_bands:  1 eigenvalues not converged
     c_bands:  1 eigenvalues not converged
     c_bands:  2 eigenvalues not converged
     c_bands:  1 eigenvalues not converged
     c_bands:  2 eigenvalues not converged
     ethr =  4.81E-11,  avg # of iterations = 14.3

     total cpu time spent up to now is      770.0 secs

     total energy              =    -360.81735472 Ry
     estimated scf accuracy    <       0.00000084 Ry

     iteration # 92     ecut=    50.00 Ry     beta= 0.30
     Davidson diagonalization with overlap
     c_bands:  1 eigenvalues not converged
     c_bands:  1 eigenvalues not converged
     ethr =  4.81E-11,  avg # of iterations = 11.6

     total cpu time spent up to now is      782.8 secs

     total energy              =    -360.81735473 Ry
     estimated scf accuracy    <       0.00000014 Ry

     iteration # 93     ecut=    50.00 Ry     beta= 0.30
     Davidson diagonalization with overlap
     ethr =  4.81E-11,  avg # of iterations =  6.7

     total cpu time spent up to now is      791.4 secs

     total energy              =    -360.81735473 Ry
     estimated scf accuracy    <       0.00000001 Ry

     iteration # 94     ecut=    50.00 Ry     beta= 0.30
     Davidson diagonalization with overlap
     c_bands:  2 eigenvalues not converged
     c_bands:  1 eigenvalues not converged
     c_bands:  2 eigenvalues not converged
     c_bands:  1 eigenvalues not converged
     c_bands:  1 eigenvalues not converged
     c_bands:  2 eigenvalues not converged
     c_bands:  1 eigenvalues not converged
     c_bands:  1 eigenvalues not converged
     c_bands:  1 eigenvalues not converged
     c_bands:  2 eigenvalues not converged
     c_bands:  2 eigenvalues not converged
     c_bands:  1 eigenvalues not converged
     c_bands:  1 eigenvalues not converged
     c_bands:  1 eigenvalues not converged
     ethr =  3.72E-11,  avg # of iterations = 12.7

     total cpu time spent up to now is      804.8 secs

     total energy              =    -360.81735478 Ry
     estimated scf accuracy    <       0.00000027 Ry

     iteration # 95     ecut=    50.00 Ry     beta= 0.30
     Davidson diagonalization with overlap
     c_bands:  1 eigenvalues not converged
     c_bands:  1 eigenvalues not converged
     ethr =  3.72E-11,  avg # of iterations =  6.5

     total cpu time spent up to now is      813.2 secs

     total energy              =    -360.81735475 Ry
     estimated scf accuracy    <       0.00000049 Ry

     iteration # 96     ecut=    50.00 Ry     beta= 0.30
     Davidson diagonalization with overlap
     ethr =  3.72E-11,  avg # of iterations =  4.0

     total cpu time spent up to now is      820.3 secs

     total energy              =    -360.81735475 Ry
     estimated scf accuracy    <       0.00000033 Ry

     iteration # 97     ecut=    50.00 Ry     beta= 0.30
     Davidson diagonalization with overlap
     ethr =  3.72E-11,  avg # of iterations =  2.8

     total cpu time spent up to now is      826.8 secs

     total energy              =    -360.81735474 Ry
     estimated scf accuracy    <       0.00000027 Ry

     iteration # 98     ecut=    50.00 Ry     beta= 0.30
     Davidson diagonalization with overlap
     ethr =  3.72E-11,  avg # of iterations =  2.0

     total cpu time spent up to now is      832.7 secs

     total energy              =    -360.81735474 Ry
     estimated scf accuracy    <       0.00000024 Ry

     iteration # 99     ecut=    50.00 Ry     beta= 0.30
     Davidson diagonalization with overlap
     ethr =  3.72E-11,  avg # of iterations =  1.5

     total cpu time spent up to now is      838.3 secs

     total energy              =    -360.81735471 Ry
     estimated scf accuracy    <       0.00000022 Ry

     iteration #100     ecut=    50.00 Ry     beta= 0.30
     Davidson diagonalization with overlap
     c_bands:  2 eigenvalues not converged
     c_bands:  2 eigenvalues not converged
     c_bands:  2 eigenvalues not converged
     c_bands:  2 eigenvalues not converged
     c_bands:  2 eigenvalues not converged
     c_bands:  1 eigenvalues not converged
     c_bands:  1 eigenvalues not converged
     c_bands:  1 eigenvalues not converged
     c_bands:  1 eigenvalues not converged
     c_bands:  1 eigenvalues not converged
     c_bands:  1 eigenvalues not converged
     c_bands:  1 eigenvalues not converged
     c_bands:  1 eigenvalues not converged
     c_bands:  2 eigenvalues not converged
     c_bands:  3 eigenvalues not converged
     ethr =  3.72E-11,  avg # of iterations = 13.5

     total cpu time spent up to now is      852.2 secs

     total energy              =    -360.81735474 Ry
     estimated scf accuracy    <       0.00000003 Ry

     End of self-consistent calculation

     convergence NOT achieved after 100 iterations: stopping

     Writing config to output data dir ./ZnO_ANN.save/

     init_run     :      4.10s CPU      4.19s WALL (       1 calls)
     electrons    :    833.88s CPU    847.60s WALL (       1 calls)

     Called by init_run:
     wfcinit      :      3.01s CPU      3.06s WALL (       1 calls)
     potinit      :      0.40s CPU      0.40s WALL (       1 calls)
     hinit0       :      0.59s CPU      0.60s WALL (       1 calls)

     Called by electrons:
     c_bands      :    740.62s CPU    752.47s WALL (     100 calls)
     sum_band     :     83.08s CPU     84.71s WALL (     100 calls)
     v_of_rho     :      1.99s CPU      2.15s WALL (     101 calls)
     newd         :      7.68s CPU      7.73s WALL (     101 calls)
     mix_rho      :      0.38s CPU      0.41s WALL (     100 calls)

     Called by c_bands:
     init_us_2    :      6.45s CPU      6.55s WALL (   22512 calls)
     init_us_2:cp :      6.37s CPU      6.49s WALL (   22512 calls)
     cegterg      :    718.78s CPU    730.33s WALL (   11200 calls)

     Called by *egterg:
     cdiaghg      :     81.39s CPU     82.07s WALL (   77046 calls)
     h_psi        :    397.11s CPU    405.66s WALL (   77158 calls)
     s_psi        :     54.10s CPU     54.56s WALL (   77158 calls)
     g_psi        :      1.56s CPU      1.58s WALL (   65846 calls)

     Called by h_psi:
     h_psi:calbec :     62.56s CPU     64.45s WALL (   77158 calls)
     vloc_psi     :    278.96s CPU    285.02s WALL (   77158 calls)
     add_vuspsi   :     54.05s CPU     54.68s WALL (   77158 calls)

     General routines
     calbec       :     82.40s CPU     84.77s WALL (   88358 calls)
     fft          :      1.91s CPU      2.12s WALL (    1313 calls)
     ffts         :      0.18s CPU      0.19s WALL (     201 calls)
     fftw         :    279.72s CPU    285.77s WALL ( 1410298 calls)
     interpolate  :      0.25s CPU      0.27s WALL (     101 calls)
     davcio       :      0.00s CPU      0.01s WALL (     130 calls)

     Parallel routines

     PWSCF        :  13m58.45s CPU  14m12.30s WALL


   This run was terminated on:  20:59: 7  24Jun2025            

=------------------------------------------------------------------------------=
   JOB DONE.
=------------------------------------------------------------------------------=
STOP 2
STOP 2
STOP 2
STOP 2
STOP 2
STOP 2
STOP 2
STOP 2
--------------------------------------------------------------------------
Primary job  terminated normally, but 1 process returned
a non-zero exit code. Per user-direction, the job has been aborted.
--------------------------------------------------------------------------
--------------------------------------------------------------------------
mpirun detected that one or more processes exited with non-zero status, thus causing
the job to be terminated. The first process to do so was:

  Process name: [[60444,1],4]
  Exit code:    2
--------------------------------------------------------------------------
