
     Program PWSCF v.7.2 starts on 24Jun2025 at 20:29:45 

     This program is part of the open-source Quantum ESPRESSO suite
     for quantum simulation of materials; please cite
         "P. Giannozzi et al., J. Phys.:Condens. Matter 21 395502 (2009);
         "P. Giannozzi et al., J. Phys.:Condens. Matter 29 465901 (2017);
         "P. Giannozzi et al., J. Chem. Phys. 152 154105 (2020);
          URL http://www.quantum-espresso.org", 
     in publications or presentations arising from this work. More details at
     http://www.quantum-espresso.org/quote

     Parallel version (MPI), running on     8 processors

     MPI processes distributed on     1 nodes
     91059 MiB available memory on the printing compute node when the environment starts

     Reading input from /home/jvc/QEspresso7.2/ZnO_DataBase/scf_025_NOSYM.in/scf-6.80-1.45-0.25-4.in

     Current dimensions of program PWSCF are:
     Max number of different atomic species (ntypx) = 10
     Max number of k-points (npk) =  40000
     Max angular momentum in pseudopotentials (lmaxx) =  4
     file Zn.upf: wavefunction(s)  3D renormalized

     R & G space division:  proc/nbgrp/npool/nimage =       8
     Subspace diagonalization in iterative solution of the eigenvalue problem:
     a serial algorithm will be used


     Parallelization info
     --------------------
     sticks:   dense  smooth     PW     G-vecs:    dense   smooth      PW
     Min         160      81     24                 7354     2595     429
     Max         162      82     26                 7355     2598     432
     Sum        1285     649    199                58833    20773    3441

     Using Slab Decomposition



     bravais-lattice index     =            0
     lattice parameter (alat)  =       6.7967  a.u.
     unit-cell volume          =     435.0564 (a.u.)^3
     number of atoms/cell      =            4
     number of atomic types    =            2
     number of electrons       =        36.00
     number of Kohn-Sham states=           18
     kinetic-energy cutoff     =      50.0000  Ry
     charge density cutoff     =     400.0000  Ry
     scf convergence threshold =      1.0E-08
     mixing beta               =       0.3000
     number of iterations used =            8  plain     mixing
     Exchange-correlation= PBE
                           (   1   4   3   4   0   0   0)

     celldm(1)=   6.796704  celldm(2)=   0.000000  celldm(3)=   0.000000
     celldm(4)=   0.000000  celldm(5)=   0.000000  celldm(6)=   0.000000

     crystal axes: (cart. coord. in units of alat)
               a(1) = (   1.000000   0.000000   0.000000 )  
               a(2) = (  -0.500000   0.866025   0.000000 )  
               a(3) = (   0.000000   0.000000   1.600000 )  

     reciprocal axes: (cart. coord. in units 2 pi/alat)
               b(1) = (  1.000000  0.577350 -0.000000 )  
               b(2) = (  0.000000  1.154701  0.000000 )  
               b(3) = (  0.000000 -0.000000  0.625000 )  


     PseudoPot. # 1 for Zn read from file:
     ./pseudos/Zn.upf
     MD5 check sum: 7f56cabf9682ed8c977c2f7d0c5985c5
     Pseudo is Ultrasoft + core correction, Zval = 12.0
     Generated using &quot;atomic&quot; code by A. Dal Corso  v.6.2.2
     Using radial grid of 1201 points,  6 beta functions with: 
                l(1) =   0
                l(2) =   0
                l(3) =   1
                l(4) =   1
                l(5) =   2
                l(6) =   2
     Q(r) pseudized with 0 coefficients 


     PseudoPot. # 2 for O  read from file:
     ./pseudos/O.upf
     MD5 check sum: 91400c9766925bcf19f520983a725ff0
     Pseudo is Ultrasoft + core correction, Zval =  6.0
     Generated using &quot;atomic&quot; code by A. Dal Corso  v.6.3MaX
     Using radial grid of 1095 points,  4 beta functions with: 
                l(1) =   0
                l(2) =   0
                l(3) =   1
                l(4) =   1
     Q(r) pseudized with 0 coefficients 


     atomic species   valence    mass     pseudopotential
        Zn            12.00    63.38000     Zn( 1.00)
        O              6.00    15.99900     O ( 1.00)

     No symmetry found



   Cartesian axes

     site n.     atom                  positions (alat units)
         1           Zn  tau(   1) = (   0.4411355   0.2195530   0.9244198  )
         2           Zn  tau(   2) = (  -0.2819121   0.7173882   0.3708626  )
         3           O   tau(   3) = (   0.4928809   0.1084263   1.5308076  )
         4           O   tau(   4) = (  -0.1406575   0.6130647   0.9947445  )

     number of k points=   112

     Number of k-points >= 100: set verbosity='high' to print them.

     Dense  grid:    58833 G-vectors     FFT dimensions: (  45,  45,  72)

     Smooth grid:    20773 G-vectors     FFT dimensions: (  32,  32,  50)

     Estimated max dynamical RAM per process >      39.41 MB

     Estimated total dynamical RAM >     315.24 MB

     Check: negative core charge=   -0.000002

     Initial potential from superposition of free atoms

     starting charge      35.9925, renormalised to      36.0000
     Starting wfcs are   26 randomized atomic wfcs

     total cpu time spent up to now is        4.6 secs

     Self-consistent Calculation

     iteration #  1     ecut=    50.00 Ry     beta= 0.30
     Davidson diagonalization with overlap
     ethr =  1.00E-02,  avg # of iterations =  2.0

     total cpu time spent up to now is       10.6 secs

     total energy              =    -360.85770419 Ry
     estimated scf accuracy    <       1.37016531 Ry

     iteration #  2     ecut=    50.00 Ry     beta= 0.30
     Davidson diagonalization with overlap
     ethr =  3.81E-03,  avg # of iterations =  6.8

     total cpu time spent up to now is       19.3 secs

     total energy              =    -361.19830093 Ry
     estimated scf accuracy    <       0.37776263 Ry

     iteration #  3     ecut=    50.00 Ry     beta= 0.30
     Davidson diagonalization with overlap
     ethr =  1.05E-03,  avg # of iterations =  2.6

     total cpu time spent up to now is       25.7 secs

     total energy              =    -361.14237923 Ry
     estimated scf accuracy    <       0.16219909 Ry

     iteration #  4     ecut=    50.00 Ry     beta= 0.30
     Davidson diagonalization with overlap
     ethr =  4.51E-04,  avg # of iterations = 10.1

     total cpu time spent up to now is       38.5 secs

     total energy              =    -361.39612606 Ry
     estimated scf accuracy    <       0.70550419 Ry

     iteration #  5     ecut=    50.00 Ry     beta= 0.30
     Davidson diagonalization with overlap
     ethr =  4.51E-04,  avg # of iterations =  1.0

     total cpu time spent up to now is       43.6 secs

     total energy              =    -361.52779137 Ry
     estimated scf accuracy    <       0.67607256 Ry

     iteration #  6     ecut=    50.00 Ry     beta= 0.30
     Davidson diagonalization with overlap
     ethr =  4.51E-04,  avg # of iterations =  2.3

     total cpu time spent up to now is       49.5 secs

     total energy              =    -361.13140174 Ry
     estimated scf accuracy    <       1.00743510 Ry

     iteration #  7     ecut=    50.00 Ry     beta= 0.30
     Davidson diagonalization with overlap
     c_bands:  1 eigenvalues not converged
     ethr =  4.51E-04,  avg # of iterations =  9.1

     total cpu time spent up to now is       59.3 secs

     total energy              =    -361.30214044 Ry
     estimated scf accuracy    <       0.02943486 Ry

     iteration #  8     ecut=    50.00 Ry     beta= 0.30
     Davidson diagonalization with overlap
     c_bands:  1 eigenvalues not converged
     c_bands:  2 eigenvalues not converged
     c_bands:  2 eigenvalues not converged
     c_bands:  1 eigenvalues not converged
     c_bands:  1 eigenvalues not converged
     c_bands:  2 eigenvalues not converged
     c_bands:  1 eigenvalues not converged
     c_bands:  1 eigenvalues not converged
     c_bands:  1 eigenvalues not converged
     c_bands:  1 eigenvalues not converged
     c_bands:  2 eigenvalues not converged
     c_bands:  1 eigenvalues not converged
     c_bands:  1 eigenvalues not converged
     c_bands:  1 eigenvalues not converged
     c_bands:  1 eigenvalues not converged
     c_bands:  2 eigenvalues not converged
     c_bands:  2 eigenvalues not converged
     ethr =  8.18E-05,  avg # of iterations = 12.9

     total cpu time spent up to now is       71.2 secs

     total energy              =    -361.39887446 Ry
     estimated scf accuracy    <       0.82764016 Ry

     iteration #  9     ecut=    50.00 Ry     beta= 0.30
     Davidson diagonalization with overlap
     ethr =  8.18E-05,  avg # of iterations =  4.7

     total cpu time spent up to now is       77.7 secs

     total energy              =    -361.43802578 Ry
     estimated scf accuracy    <       1.08454559 Ry

     iteration # 10     ecut=    50.00 Ry     beta= 0.30
     Davidson diagonalization with overlap
     ethr =  8.18E-05,  avg # of iterations =  8.4

     total cpu time spent up to now is       86.2 secs

     total energy              =    -361.13873796 Ry
     estimated scf accuracy    <       1.94450800 Ry

     iteration # 11     ecut=    50.00 Ry     beta= 0.30
     Davidson diagonalization with overlap
     c_bands:  1 eigenvalues not converged
     c_bands:  2 eigenvalues not converged
     c_bands:  1 eigenvalues not converged
     c_bands:  1 eigenvalues not converged
     c_bands:  2 eigenvalues not converged
     c_bands:  1 eigenvalues not converged
     c_bands:  1 eigenvalues not converged
     c_bands:  1 eigenvalues not converged
     c_bands:  1 eigenvalues not converged
     c_bands:  1 eigenvalues not converged
     c_bands:  1 eigenvalues not converged
     c_bands:  1 eigenvalues not converged
     c_bands:  1 eigenvalues not converged
     c_bands:  1 eigenvalues not converged
     c_bands:  1 eigenvalues not converged
     c_bands:  1 eigenvalues not converged
     c_bands:  1 eigenvalues not converged
     c_bands:  1 eigenvalues not converged
     c_bands:  1 eigenvalues not converged
     c_bands:  1 eigenvalues not converged
     c_bands:  1 eigenvalues not converged
     c_bands:  1 eigenvalues not converged
     c_bands:  1 eigenvalues not converged
     c_bands:  1 eigenvalues not converged
     c_bands:  2 eigenvalues not converged
     c_bands:  1 eigenvalues not converged
     c_bands:  2 eigenvalues not converged
     c_bands:  1 eigenvalues not converged
     c_bands:  1 eigenvalues not converged
     ethr =  8.18E-05,  avg # of iterations = 15.7

     total cpu time spent up to now is      100.9 secs

     total energy              =    -361.26156130 Ry
     estimated scf accuracy    <       0.02010000 Ry

     iteration # 12     ecut=    50.00 Ry     beta= 0.30
     Davidson diagonalization with overlap
     c_bands:  2 eigenvalues not converged
     c_bands:  2 eigenvalues not converged
     c_bands:  3 eigenvalues not converged
     c_bands:  2 eigenvalues not converged
     c_bands:  2 eigenvalues not converged
     c_bands:  2 eigenvalues not converged
     c_bands:  1 eigenvalues not converged
     c_bands:  1 eigenvalues not converged
     ethr =  5.58E-05,  avg # of iterations = 12.4

     total cpu time spent up to now is      114.3 secs

     total energy              =    -361.28310545 Ry
     estimated scf accuracy    <       0.23271931 Ry

     iteration # 13     ecut=    50.00 Ry     beta= 0.30
     Davidson diagonalization with overlap
     ethr =  5.58E-05,  avg # of iterations =  4.5

     total cpu time spent up to now is      121.2 secs

     total energy              =    -361.24046482 Ry
     estimated scf accuracy    <       0.14053431 Ry

     iteration # 14     ecut=    50.00 Ry     beta= 0.30
     Davidson diagonalization with overlap
     c_bands:  1 eigenvalues not converged
     c_bands:  2 eigenvalues not converged
     c_bands:  1 eigenvalues not converged
     c_bands:  1 eigenvalues not converged
     c_bands:  1 eigenvalues not converged
     c_bands:  2 eigenvalues not converged
     c_bands:  1 eigenvalues not converged
     c_bands:  2 eigenvalues not converged
     c_bands:  1 eigenvalues not converged
     c_bands:  1 eigenvalues not converged
     ethr =  5.58E-05,  avg # of iterations = 13.1

     total cpu time spent up to now is      134.1 secs

     total energy              =    -361.27690399 Ry
     estimated scf accuracy    <       0.08397309 Ry

     iteration # 15     ecut=    50.00 Ry     beta= 0.30
     Davidson diagonalization with overlap
     ethr =  5.58E-05,  avg # of iterations =  1.8

     total cpu time spent up to now is      139.8 secs

     total energy              =    -361.28024465 Ry
     estimated scf accuracy    <       0.05892731 Ry

     iteration # 16     ecut=    50.00 Ry     beta= 0.30
     Davidson diagonalization with overlap
     ethr =  5.58E-05,  avg # of iterations =  1.0

     total cpu time spent up to now is      145.0 secs

     total energy              =    -361.26550109 Ry
     estimated scf accuracy    <       0.06127835 Ry

     iteration # 17     ecut=    50.00 Ry     beta= 0.30
     Davidson diagonalization with overlap
     ethr =  5.58E-05,  avg # of iterations =  7.7

     total cpu time spent up to now is      154.6 secs

     total energy              =    -361.27901624 Ry
     estimated scf accuracy    <       0.00825581 Ry

     iteration # 18     ecut=    50.00 Ry     beta= 0.30
     Davidson diagonalization with overlap
     ethr =  2.29E-05,  avg # of iterations =  1.6

     total cpu time spent up to now is      160.2 secs

     total energy              =    -361.27834196 Ry
     estimated scf accuracy    <       0.00649460 Ry

     iteration # 19     ecut=    50.00 Ry     beta= 0.30
     Davidson diagonalization with overlap
     ethr =  1.80E-05,  avg # of iterations =  1.4

     total cpu time spent up to now is      165.8 secs

     total energy              =    -361.28004946 Ry
     estimated scf accuracy    <       0.00473984 Ry

     iteration # 20     ecut=    50.00 Ry     beta= 0.30
     Davidson diagonalization with overlap
     ethr =  1.32E-05,  avg # of iterations =  2.0

     total cpu time spent up to now is      171.7 secs

     total energy              =    -361.28012875 Ry
     estimated scf accuracy    <       0.00900034 Ry

     iteration # 21     ecut=    50.00 Ry     beta= 0.30
     Davidson diagonalization with overlap
     ethr =  1.32E-05,  avg # of iterations =  1.0

     total cpu time spent up to now is      177.0 secs

     total energy              =    -361.28021817 Ry
     estimated scf accuracy    <       0.00909158 Ry

     iteration # 22     ecut=    50.00 Ry     beta= 0.30
     Davidson diagonalization with overlap
     ethr =  1.32E-05,  avg # of iterations =  1.2

     total cpu time spent up to now is      182.4 secs

     total energy              =    -361.28209237 Ry
     estimated scf accuracy    <       0.00988558 Ry

     iteration # 23     ecut=    50.00 Ry     beta= 0.30
     Davidson diagonalization with overlap
     ethr =  1.32E-05,  avg # of iterations =  5.6

     total cpu time spent up to now is      189.8 secs

     total energy              =    -361.27846680 Ry
     estimated scf accuracy    <       0.03013939 Ry

     iteration # 24     ecut=    50.00 Ry     beta= 0.30
     Davidson diagonalization with overlap
     ethr =  1.32E-05,  avg # of iterations =  3.4

     total cpu time spent up to now is      196.1 secs

     total energy              =    -361.27775651 Ry
     estimated scf accuracy    <       0.01653323 Ry

     iteration # 25     ecut=    50.00 Ry     beta= 0.30
     Davidson diagonalization with overlap
     ethr =  1.32E-05,  avg # of iterations =  4.1

     total cpu time spent up to now is      203.0 secs

     total energy              =    -361.27658011 Ry
     estimated scf accuracy    <       0.00603718 Ry

     iteration # 26     ecut=    50.00 Ry     beta= 0.30
     Davidson diagonalization with overlap
     c_bands:  1 eigenvalues not converged
     ethr =  1.32E-05,  avg # of iterations =  7.5

     total cpu time spent up to now is      211.8 secs

     total energy              =    -361.27827298 Ry
     estimated scf accuracy    <       0.00382945 Ry

     iteration # 27     ecut=    50.00 Ry     beta= 0.30
     Davidson diagonalization with overlap
     ethr =  1.06E-05,  avg # of iterations =  1.2

     total cpu time spent up to now is      217.2 secs

     total energy              =    -361.27810174 Ry
     estimated scf accuracy    <       0.00228816 Ry

     iteration # 28     ecut=    50.00 Ry     beta= 0.30
     Davidson diagonalization with overlap
     ethr =  6.36E-06,  avg # of iterations =  3.8

     total cpu time spent up to now is      223.8 secs

     total energy              =    -361.27808175 Ry
     estimated scf accuracy    <       0.00063588 Ry

     iteration # 29     ecut=    50.00 Ry     beta= 0.30
     Davidson diagonalization with overlap
     c_bands:  1 eigenvalues not converged
     c_bands:  3 eigenvalues not converged
     c_bands:  1 eigenvalues not converged
     c_bands:  2 eigenvalues not converged
     c_bands:  2 eigenvalues not converged
     c_bands:  1 eigenvalues not converged
     ethr =  1.77E-06,  avg # of iterations =  9.8

     total cpu time spent up to now is      234.8 secs

     total energy              =    -361.27870465 Ry
     estimated scf accuracy    <       0.00231169 Ry

     iteration # 30     ecut=    50.00 Ry     beta= 0.30
     Davidson diagonalization with overlap
     ethr =  1.77E-06,  avg # of iterations =  1.1

     total cpu time spent up to now is      240.2 secs

     total energy              =    -361.27832909 Ry
     estimated scf accuracy    <       0.00188645 Ry

     iteration # 31     ecut=    50.00 Ry     beta= 0.30
     Davidson diagonalization with overlap
     ethr =  1.77E-06,  avg # of iterations =  7.4

     total cpu time spent up to now is      249.0 secs

     total energy              =    -361.27860500 Ry
     estimated scf accuracy    <       0.00000764 Ry

     iteration # 32     ecut=    50.00 Ry     beta= 0.30
     Davidson diagonalization with overlap
     c_bands:  1 eigenvalues not converged
     c_bands:  2 eigenvalues not converged
     c_bands:  2 eigenvalues not converged
     c_bands:  2 eigenvalues not converged
     c_bands:  3 eigenvalues not converged
     c_bands:  1 eigenvalues not converged
     c_bands:  4 eigenvalues not converged
     c_bands:  1 eigenvalues not converged
     c_bands:  2 eigenvalues not converged
     c_bands:  2 eigenvalues not converged
     c_bands:  2 eigenvalues not converged
     c_bands:  3 eigenvalues not converged
     c_bands:  2 eigenvalues not converged
     c_bands:  2 eigenvalues not converged
     c_bands:  2 eigenvalues not converged
     c_bands:  4 eigenvalues not converged
     c_bands:  2 eigenvalues not converged
     c_bands:  2 eigenvalues not converged
     c_bands:  2 eigenvalues not converged
     c_bands:  2 eigenvalues not converged
     c_bands:  2 eigenvalues not converged
     c_bands:  2 eigenvalues not converged
     c_bands:  3 eigenvalues not converged
     c_bands:  1 eigenvalues not converged
     c_bands:  2 eigenvalues not converged
     c_bands:  2 eigenvalues not converged
     ethr =  2.12E-08,  avg # of iterations = 14.7

     total cpu time spent up to now is      265.9 secs

     total energy              =    -361.27860057 Ry
     estimated scf accuracy    <       0.00036742 Ry

     iteration # 33     ecut=    50.00 Ry     beta= 0.30
     Davidson diagonalization with overlap
     c_bands:  2 eigenvalues not converged
     c_bands:  1 eigenvalues not converged
     c_bands:  1 eigenvalues not converged
     c_bands:  2 eigenvalues not converged
     c_bands:  1 eigenvalues not converged
     c_bands:  1 eigenvalues not converged
     ethr =  2.12E-08,  avg # of iterations = 13.3

     total cpu time spent up to now is      279.7 secs

     total energy              =    -361.27861213 Ry
     estimated scf accuracy    <       0.00004853 Ry

     iteration # 34     ecut=    50.00 Ry     beta= 0.30
     Davidson diagonalization with overlap
     c_bands:  1 eigenvalues not converged
     ethr =  2.12E-08,  avg # of iterations =  6.1

     total cpu time spent up to now is      287.4 secs

     total energy              =    -361.27861778 Ry
     estimated scf accuracy    <       0.00001286 Ry

     iteration # 35     ecut=    50.00 Ry     beta= 0.30
     Davidson diagonalization with overlap
     ethr =  2.12E-08,  avg # of iterations =  1.5

     total cpu time spent up to now is      292.9 secs

     total energy              =    -361.27861696 Ry
     estimated scf accuracy    <       0.00001993 Ry

     iteration # 36     ecut=    50.00 Ry     beta= 0.30
     Davidson diagonalization with overlap
     ethr =  2.12E-08,  avg # of iterations =  1.0

     total cpu time spent up to now is      298.2 secs

     total energy              =    -361.27861617 Ry
     estimated scf accuracy    <       0.00001802 Ry

     iteration # 37     ecut=    50.00 Ry     beta= 0.30
     Davidson diagonalization with overlap
     ethr =  2.12E-08,  avg # of iterations =  1.1

     total cpu time spent up to now is      303.4 secs

     total energy              =    -361.27861382 Ry
     estimated scf accuracy    <       0.00001634 Ry

     iteration # 38     ecut=    50.00 Ry     beta= 0.30
     Davidson diagonalization with overlap
     ethr =  2.12E-08,  avg # of iterations =  2.9

     total cpu time spent up to now is      309.5 secs

     total energy              =    -361.27861456 Ry
     estimated scf accuracy    <       0.00000653 Ry

     iteration # 39     ecut=    50.00 Ry     beta= 0.30
     Davidson diagonalization with overlap
     ethr =  1.81E-08,  avg # of iterations =  1.5

     total cpu time spent up to now is      315.0 secs

     total energy              =    -361.27861508 Ry
     estimated scf accuracy    <       0.00000556 Ry

     iteration # 40     ecut=    50.00 Ry     beta= 0.30
     Davidson diagonalization with overlap
     ethr =  1.54E-08,  avg # of iterations =  1.1

     total cpu time spent up to now is      320.3 secs

     total energy              =    -361.27861261 Ry
     estimated scf accuracy    <       0.00000587 Ry

     iteration # 41     ecut=    50.00 Ry     beta= 0.30
     Davidson diagonalization with overlap
     ethr =  1.54E-08,  avg # of iterations =  8.0

     total cpu time spent up to now is      329.8 secs

     total energy              =    -361.27861614 Ry
     estimated scf accuracy    <       0.00001105 Ry

     iteration # 42     ecut=    50.00 Ry     beta= 0.30
     Davidson diagonalization with overlap
     ethr =  1.54E-08,  avg # of iterations =  1.0

     total cpu time spent up to now is      335.1 secs

     total energy              =    -361.27861510 Ry
     estimated scf accuracy    <       0.00001051 Ry

     iteration # 43     ecut=    50.00 Ry     beta= 0.30
     Davidson diagonalization with overlap
     ethr =  1.54E-08,  avg # of iterations =  1.7

     total cpu time spent up to now is      340.9 secs

     total energy              =    -361.27861435 Ry
     estimated scf accuracy    <       0.00000683 Ry

     iteration # 44     ecut=    50.00 Ry     beta= 0.30
     Davidson diagonalization with overlap
     ethr =  1.54E-08,  avg # of iterations =  1.8

     total cpu time spent up to now is      346.7 secs

     total energy              =    -361.27861377 Ry
     estimated scf accuracy    <       0.00000424 Ry

     iteration # 45     ecut=    50.00 Ry     beta= 0.30
     Davidson diagonalization with overlap
     ethr =  1.18E-08,  avg # of iterations =  7.5

     total cpu time spent up to now is      355.0 secs

     total energy              =    -361.27861476 Ry
     estimated scf accuracy    <       0.00000075 Ry

     iteration # 46     ecut=    50.00 Ry     beta= 0.30
     Davidson diagonalization with overlap
     ethr =  2.07E-09,  avg # of iterations =  7.6

     total cpu time spent up to now is      363.5 secs

     total energy              =    -361.27861501 Ry
     estimated scf accuracy    <       0.00000005 Ry

     iteration # 47     ecut=    50.00 Ry     beta= 0.30
     Davidson diagonalization with overlap
     c_bands:  1 eigenvalues not converged
     ethr =  1.35E-10,  avg # of iterations =  7.8

     total cpu time spent up to now is      373.3 secs

     total energy              =    -361.27861504 Ry
     estimated scf accuracy    <       0.00000003 Ry

     iteration # 48     ecut=    50.00 Ry     beta= 0.30
     Davidson diagonalization with overlap
     ethr =  6.99E-11,  avg # of iterations =  3.5

     total cpu time spent up to now is      379.9 secs

     End of self-consistent calculation

     Number of k-points >= 100: set verbosity='high' to print the bands.

     highest occupied level (ev):     4.2425

!    total energy              =    -361.27861504 Ry
     estimated scf accuracy    <          5.2E-09 Ry

     The total energy is the sum of the following terms:
     one-electron contribution =    -196.46131064 Ry
     hartree contribution      =     134.22401787 Ry
     xc contribution           =    -108.91112395 Ry
     ewald contribution        =    -190.13019832 Ry

     convergence has been achieved in  48 iterations

     Forces acting on atoms (cartesian axes, Ry/au):

     atom    1 type  1   force =     0.03522164    0.14460698    0.08094557
     atom    2 type  1   force =     0.02534937   -0.00493115   -0.10618747
     atom    3 type  2   force =    -0.01657127    0.00122627    0.10975248
     atom    4 type  2   force =    -0.04399974   -0.14090211   -0.08451058
     The non-local contrib.  to forces
     atom    1 type  1   force =    -0.04398315    0.49064754   -0.33671727
     atom    2 type  1   force =    -0.27467395   -0.17357412    0.34626225
     atom    3 type  2   force =    -0.34275564   -0.08885449    0.47067019
     atom    4 type  2   force =    -0.20011295    0.34978301   -0.93933482
     The ionic contribution  to forces
     atom    1 type  1   force =    -0.11576043    5.99154029    2.45548329
     atom    2 type  1   force =    -3.00624189   -1.91115510   -9.27264793
     atom    3 type  2   force =     2.16854491    1.25652711    1.07888474
     atom    4 type  2   force =     0.95345741   -5.33691231    5.73827990
     The local contribution  to forces
     atom    1 type  1   force =     0.19194415   -6.29452635   -2.05357530
     atom    2 type  1   force =     3.28966949    2.07073083    8.82870833
     atom    3 type  2   force =    -1.84563649   -1.16717193   -1.43470462
     atom    4 type  2   force =    -0.79940381    4.84815342   -4.89250126
     The core correction contribution to forces
     atom    1 type  1   force =     0.00299250   -0.04303490    0.01559991
     atom    2 type  1   force =     0.01661694    0.00910931   -0.00837748
     atom    3 type  2   force =     0.00327855    0.00070241   -0.00506845
     atom    4 type  2   force =     0.00205915   -0.00195663    0.00899309
     The Hubbard contrib.    to forces
     atom    1 type  1   force =     0.00000000    0.00000000    0.00000000
     atom    2 type  1   force =     0.00000000    0.00000000    0.00000000
     atom    3 type  2   force =     0.00000000    0.00000000    0.00000000
     atom    4 type  2   force =     0.00000000    0.00000000    0.00000000
     The SCF correction term to forces
     atom    1 type  1   force =     0.00002680   -0.00003515    0.00015717
     atom    2 type  1   force =    -0.00002298   -0.00005762   -0.00013041
     atom    3 type  2   force =    -0.00000435    0.00000763   -0.00002715
     atom    4 type  2   force =    -0.00000131    0.00001484    0.00005475

     Total force =     0.286181     Total SCF correction =     0.000227

     Writing all to output data dir ./ZnO_ANN.save/

     init_run     :      4.04s CPU      4.15s WALL (       1 calls)
     electrons    :    369.78s CPU    375.29s WALL (       1 calls)
     forces       :      1.48s CPU      1.49s WALL (       1 calls)

     Called by init_run:
     wfcinit      :      2.96s CPU      3.02s WALL (       1 calls)
     potinit      :      0.38s CPU      0.39s WALL (       1 calls)
     hinit0       :      0.60s CPU      0.61s WALL (       1 calls)

     Called by electrons:
     c_bands      :    324.73s CPU    329.41s WALL (      48 calls)
     sum_band     :     40.24s CPU     40.96s WALL (      48 calls)
     v_of_rho     :      0.98s CPU      1.05s WALL (      49 calls)
     newd         :      3.63s CPU      3.67s WALL (      49 calls)
     mix_rho      :      0.16s CPU      0.19s WALL (      48 calls)

     Called by c_bands:
     init_us_2    :      2.93s CPU      2.98s WALL (   10976 calls)
     init_us_2:cp :      2.90s CPU      2.95s WALL (   10976 calls)
     cegterg      :    314.36s CPU    318.90s WALL (    5376 calls)

     Called by *egterg:
     cdiaghg      :     32.66s CPU     32.92s WALL (   33285 calls)
     h_psi        :    174.83s CPU    178.22s WALL (   33397 calls)
     s_psi        :     20.35s CPU     20.51s WALL (   33397 calls)
     g_psi        :      0.65s CPU      0.66s WALL (   27909 calls)

     Called by h_psi:
     h_psi:calbec :     28.16s CPU     28.89s WALL (   33397 calls)
     vloc_psi     :    125.66s CPU    128.15s WALL (   33397 calls)
     add_vuspsi   :     20.41s CPU     20.59s WALL (   33397 calls)

     General routines
     calbec       :     38.72s CPU     39.67s WALL (   39221 calls)
     fft          :      1.32s CPU      1.43s WALL (     646 calls)
     ffts         :      0.14s CPU      0.15s WALL (      97 calls)
     fftw         :    131.04s CPU    133.62s WALL (  635828 calls)
     interpolate  :      0.18s CPU      0.19s WALL (      49 calls)

     Parallel routines

     PWSCF        :   6m16.04s CPU   6m22.03s WALL


   This run was terminated on:  20:36: 7  24Jun2025            

=------------------------------------------------------------------------------=
   JOB DONE.
=------------------------------------------------------------------------------=
Note: The following floating-point exceptions are signalling: IEEE_INVALID_FLAG
