
     Program PWSCF v.7.2 starts on 24Jun2025 at 21: 4:20 

     This program is part of the open-source Quantum ESPRESSO suite
     for quantum simulation of materials; please cite
         "P. Giannozzi et al., J. Phys.:Condens. Matter 21 395502 (2009);
         "P. Giannozzi et al., J. Phys.:Condens. Matter 29 465901 (2017);
         "P. Giannozzi et al., J. Chem. Phys. 152 154105 (2020);
          URL http://www.quantum-espresso.org", 
     in publications or presentations arising from this work. More details at
     http://www.quantum-espresso.org/quote

     Parallel version (MPI), running on     8 processors

     MPI processes distributed on     1 nodes
     90574 MiB available memory on the printing compute node when the environment starts

     Reading input from /home/jvc/QEspresso7.2/ZnO_DataBase/scf_025_NOSYM.in/scf-6.80-1.68-0.25-1.in

     Current dimensions of program PWSCF are:
     Max number of different atomic species (ntypx) = 10
     Max number of k-points (npk) =  40000
     Max angular momentum in pseudopotentials (lmaxx) =  4
     file Zn.upf: wavefunction(s)  3D renormalized

     R & G space division:  proc/nbgrp/npool/nimage =       8
     Subspace diagonalization in iterative solution of the eigenvalue problem:
     a serial algorithm will be used


     Parallelization info
     --------------------
     sticks:   dense  smooth     PW     G-vecs:    dense   smooth      PW
     Min         160      81     24                 7354     2595     429
     Max         162      82     26                 7355     2598     432
     Sum        1285     649    199                58833    20773    3441

     Using Slab Decomposition



     bravais-lattice index     =            0
     lattice parameter (alat)  =       6.7967  a.u.
     unit-cell volume          =     435.0564 (a.u.)^3
     number of atoms/cell      =            4
     number of atomic types    =            2
     number of electrons       =        36.00
     number of Kohn-Sham states=           18
     kinetic-energy cutoff     =      50.0000  Ry
     charge density cutoff     =     400.0000  Ry
     scf convergence threshold =      1.0E-08
     mixing beta               =       0.3000
     number of iterations used =            8  plain     mixing
     Exchange-correlation= PBE
                           (   1   4   3   4   0   0   0)

     celldm(1)=   6.796704  celldm(2)=   0.000000  celldm(3)=   0.000000
     celldm(4)=   0.000000  celldm(5)=   0.000000  celldm(6)=   0.000000

     crystal axes: (cart. coord. in units of alat)
               a(1) = (   1.000000   0.000000   0.000000 )  
               a(2) = (  -0.500000   0.866025   0.000000 )  
               a(3) = (   0.000000   0.000000   1.600000 )  

     reciprocal axes: (cart. coord. in units 2 pi/alat)
               b(1) = (  1.000000  0.577350 -0.000000 )  
               b(2) = (  0.000000  1.154701  0.000000 )  
               b(3) = (  0.000000 -0.000000  0.625000 )  


     PseudoPot. # 1 for Zn read from file:
     ./pseudos/Zn.upf
     MD5 check sum: 7f56cabf9682ed8c977c2f7d0c5985c5
     Pseudo is Ultrasoft + core correction, Zval = 12.0
     Generated using &quot;atomic&quot; code by A. Dal Corso  v.6.2.2
     Using radial grid of 1201 points,  6 beta functions with: 
                l(1) =   0
                l(2) =   0
                l(3) =   1
                l(4) =   1
                l(5) =   2
                l(6) =   2
     Q(r) pseudized with 0 coefficients 


     PseudoPot. # 2 for O  read from file:
     ./pseudos/O.upf
     MD5 check sum: 91400c9766925bcf19f520983a725ff0
     Pseudo is Ultrasoft + core correction, Zval =  6.0
     Generated using &quot;atomic&quot; code by A. Dal Corso  v.6.3MaX
     Using radial grid of 1095 points,  4 beta functions with: 
                l(1) =   0
                l(2) =   0
                l(3) =   1
                l(4) =   1
     Q(r) pseudized with 0 coefficients 


     atomic species   valence    mass     pseudopotential
        Zn            12.00    63.38000     Zn( 1.00)
        O              6.00    15.99900     O ( 1.00)

     No symmetry found



   Cartesian axes

     site n.     atom                  positions (alat units)
         1           Zn  tau(   1) = (   0.5353999   0.1856356   0.4044102  )
         2           Zn  tau(   2) = (  -0.1448284   0.7079435   0.2203609  )
         3           O   tau(   3) = (   0.4882893   0.2954638   1.7859125  )
         4           O   tau(   4) = (   0.0526273   0.7540463   0.2383528  )

     number of k points=   112

     Number of k-points >= 100: set verbosity='high' to print them.

     Dense  grid:    58833 G-vectors     FFT dimensions: (  45,  45,  72)

     Smooth grid:    20773 G-vectors     FFT dimensions: (  32,  32,  50)

     Estimated max dynamical RAM per process >      39.41 MB

     Estimated total dynamical RAM >     315.24 MB

     Check: negative core charge=   -0.000003

     Initial potential from superposition of free atoms

     starting charge      35.9925, renormalised to      36.0000
     Starting wfcs are   26 randomized atomic wfcs

     total cpu time spent up to now is        4.6 secs

     Self-consistent Calculation

     iteration #  1     ecut=    50.00 Ry     beta= 0.30
     Davidson diagonalization with overlap
     ethr =  1.00E-02,  avg # of iterations =  7.3

     total cpu time spent up to now is       16.9 secs

     total energy              =    -342.75127993 Ry
     estimated scf accuracy    <       1.58349651 Ry

     iteration #  2     ecut=    50.00 Ry     beta= 0.30
     Davidson diagonalization with overlap
     ethr =  4.40E-03,  avg # of iterations =  2.3

     total cpu time spent up to now is       23.7 secs

     total energy              =    -342.62796692 Ry
     estimated scf accuracy    <       0.48986648 Ry

     iteration #  3     ecut=    50.00 Ry     beta= 0.30
     Davidson diagonalization with overlap
     ethr =  1.36E-03,  avg # of iterations =  7.0

     total cpu time spent up to now is       35.2 secs

     total energy              =    -342.91010587 Ry
     estimated scf accuracy    <       0.38266239 Ry

     iteration #  4     ecut=    50.00 Ry     beta= 0.30
     Davidson diagonalization with overlap
     ethr =  1.06E-03,  avg # of iterations =  1.3

     total cpu time spent up to now is       40.8 secs

     total energy              =    -342.73332913 Ry
     estimated scf accuracy    <       0.22609317 Ry

     iteration #  5     ecut=    50.00 Ry     beta= 0.30
     Davidson diagonalization with overlap
     c_bands:  1 eigenvalues not converged
     c_bands:  1 eigenvalues not converged
     ethr =  6.28E-04,  avg # of iterations = 14.7

     total cpu time spent up to now is       56.4 secs

     total energy              =    -342.99008163 Ry
     estimated scf accuracy    <       1.47672902 Ry

     iteration #  6     ecut=    50.00 Ry     beta= 0.30
     Davidson diagonalization with overlap
     ethr =  6.28E-04,  avg # of iterations =  2.9

     total cpu time spent up to now is       62.8 secs

     total energy              =    -342.91645768 Ry
     estimated scf accuracy    <       0.93897566 Ry

     iteration #  7     ecut=    50.00 Ry     beta= 0.30
     Davidson diagonalization with overlap
     ethr =  6.28E-04,  avg # of iterations =  4.1

     total cpu time spent up to now is       69.5 secs

     total energy              =    -342.87542806 Ry
     estimated scf accuracy    <       0.55433557 Ry

     iteration #  8     ecut=    50.00 Ry     beta= 0.30
     Davidson diagonalization with overlap
     ethr =  6.28E-04,  avg # of iterations =  4.4

     total cpu time spent up to now is       76.0 secs

     total energy              =    -342.79444809 Ry
     estimated scf accuracy    <       0.27315139 Ry

     iteration #  9     ecut=    50.00 Ry     beta= 0.30
     Davidson diagonalization with overlap
     ethr =  6.28E-04,  avg # of iterations =  9.3

     total cpu time spent up to now is       84.5 secs

     total energy              =    -342.90977399 Ry
     estimated scf accuracy    <       0.08005054 Ry

     iteration # 10     ecut=    50.00 Ry     beta= 0.30
     Davidson diagonalization with overlap
     ethr =  2.22E-04,  avg # of iterations =  2.5

     total cpu time spent up to now is       90.6 secs

     total energy              =    -342.91752045 Ry
     estimated scf accuracy    <       0.10307328 Ry

     iteration # 11     ecut=    50.00 Ry     beta= 0.30
     Davidson diagonalization with overlap
     ethr =  2.22E-04,  avg # of iterations =  1.1

     total cpu time spent up to now is       95.8 secs

     total energy              =    -342.92921116 Ry
     estimated scf accuracy    <       0.11217671 Ry

     iteration # 12     ecut=    50.00 Ry     beta= 0.30
     Davidson diagonalization with overlap
     ethr =  2.22E-04,  avg # of iterations =  1.4

     total cpu time spent up to now is      101.2 secs

     total energy              =    -342.93550628 Ry
     estimated scf accuracy    <       0.14575220 Ry

     iteration # 13     ecut=    50.00 Ry     beta= 0.30
     Davidson diagonalization with overlap
     ethr =  2.22E-04,  avg # of iterations =  1.1

     total cpu time spent up to now is      106.4 secs

     total energy              =    -342.91190193 Ry
     estimated scf accuracy    <       0.16892229 Ry

     iteration # 14     ecut=    50.00 Ry     beta= 0.30
     Davidson diagonalization with overlap
     ethr =  2.22E-04,  avg # of iterations =  1.1

     total cpu time spent up to now is      111.6 secs

     total energy              =    -342.90596788 Ry
     estimated scf accuracy    <       0.11973021 Ry

     iteration # 15     ecut=    50.00 Ry     beta= 0.30
     Davidson diagonalization with overlap
     ethr =  2.22E-04,  avg # of iterations =  1.0

     total cpu time spent up to now is      116.8 secs

     total energy              =    -342.91091385 Ry
     estimated scf accuracy    <       0.09478381 Ry

     iteration # 16     ecut=    50.00 Ry     beta= 0.30
     Davidson diagonalization with overlap
     ethr =  2.22E-04,  avg # of iterations =  1.0

     total cpu time spent up to now is      122.0 secs

     total energy              =    -342.90063695 Ry
     estimated scf accuracy    <       0.09799294 Ry

     iteration # 17     ecut=    50.00 Ry     beta= 0.30
     Davidson diagonalization with overlap
     ethr =  2.22E-04,  avg # of iterations =  1.3

     total cpu time spent up to now is      127.3 secs

     total energy              =    -342.88123982 Ry
     estimated scf accuracy    <       0.06794759 Ry

     iteration # 18     ecut=    50.00 Ry     beta= 0.30
     Davidson diagonalization with overlap
     ethr =  1.89E-04,  avg # of iterations =  7.8

     total cpu time spent up to now is      134.6 secs

     total energy              =    -342.89260201 Ry
     estimated scf accuracy    <       0.00656614 Ry

     iteration # 19     ecut=    50.00 Ry     beta= 0.30
     Davidson diagonalization with overlap
     c_bands:  1 eigenvalues not converged
     ethr =  1.82E-05,  avg # of iterations =  9.2

     total cpu time spent up to now is      144.2 secs

     total energy              =    -342.89412438 Ry
     estimated scf accuracy    <       0.00596366 Ry

     iteration # 20     ecut=    50.00 Ry     beta= 0.30
     Davidson diagonalization with overlap
     ethr =  1.66E-05,  avg # of iterations =  9.7

     total cpu time spent up to now is      152.5 secs

     total energy              =    -342.89554087 Ry
     estimated scf accuracy    <       0.00168068 Ry

     iteration # 21     ecut=    50.00 Ry     beta= 0.30
     Davidson diagonalization with overlap
     ethr =  4.67E-06,  avg # of iterations =  9.3

     total cpu time spent up to now is      160.7 secs

     total energy              =    -342.89597392 Ry
     estimated scf accuracy    <       0.00039569 Ry

     iteration # 22     ecut=    50.00 Ry     beta= 0.30
     Davidson diagonalization with overlap
     ethr =  1.10E-06,  avg # of iterations =  3.4

     total cpu time spent up to now is      167.2 secs

     total energy              =    -342.89602169 Ry
     estimated scf accuracy    <       0.00028182 Ry

     iteration # 23     ecut=    50.00 Ry     beta= 0.30
     Davidson diagonalization with overlap
     ethr =  7.83E-07,  avg # of iterations =  4.9

     total cpu time spent up to now is      174.2 secs

     total energy              =    -342.89593983 Ry
     estimated scf accuracy    <       0.00041164 Ry

     iteration # 24     ecut=    50.00 Ry     beta= 0.30
     Davidson diagonalization with overlap
     ethr =  7.83E-07,  avg # of iterations =  3.2

     total cpu time spent up to now is      180.4 secs

     total energy              =    -342.89593582 Ry
     estimated scf accuracy    <       0.00011813 Ry

     iteration # 25     ecut=    50.00 Ry     beta= 0.30
     Davidson diagonalization with overlap
     ethr =  3.28E-07,  avg # of iterations =  9.9

     total cpu time spent up to now is      189.1 secs

     total energy              =    -342.89596379 Ry
     estimated scf accuracy    <       0.00003187 Ry

     iteration # 26     ecut=    50.00 Ry     beta= 0.30
     Davidson diagonalization with overlap
     ethr =  8.85E-08,  avg # of iterations =  7.5

     total cpu time spent up to now is      198.1 secs

     total energy              =    -342.89597022 Ry
     estimated scf accuracy    <       0.00001808 Ry

     iteration # 27     ecut=    50.00 Ry     beta= 0.30
     Davidson diagonalization with overlap
     ethr =  5.02E-08,  avg # of iterations =  5.6

     total cpu time spent up to now is      205.5 secs

     total energy              =    -342.89597158 Ry
     estimated scf accuracy    <       0.00000730 Ry

     iteration # 28     ecut=    50.00 Ry     beta= 0.30
     Davidson diagonalization with overlap
     ethr =  2.03E-08,  avg # of iterations =  4.8

     total cpu time spent up to now is      212.4 secs

     total energy              =    -342.89597165 Ry
     estimated scf accuracy    <       0.00000250 Ry

     iteration # 29     ecut=    50.00 Ry     beta= 0.30
     Davidson diagonalization with overlap
     ethr =  6.94E-09,  avg # of iterations =  6.7

     total cpu time spent up to now is      220.8 secs

     total energy              =    -342.89597242 Ry
     estimated scf accuracy    <       0.00000044 Ry

     iteration # 30     ecut=    50.00 Ry     beta= 0.30
     Davidson diagonalization with overlap
     ethr =  1.21E-09,  avg # of iterations =  5.5

     total cpu time spent up to now is      228.5 secs

     total energy              =    -342.89597239 Ry
     estimated scf accuracy    <       0.00000028 Ry

     iteration # 31     ecut=    50.00 Ry     beta= 0.30
     Davidson diagonalization with overlap
     ethr =  7.65E-10,  avg # of iterations =  9.9

     total cpu time spent up to now is      237.7 secs

     total energy              =    -342.89597245 Ry
     estimated scf accuracy    <       0.00000029 Ry

     iteration # 32     ecut=    50.00 Ry     beta= 0.30
     Davidson diagonalization with overlap
     ethr =  7.65E-10,  avg # of iterations =  5.7

     total cpu time spent up to now is      244.8 secs

     total energy              =    -342.89597248 Ry
     estimated scf accuracy    <       0.00000003 Ry

     iteration # 33     ecut=    50.00 Ry     beta= 0.30
     Davidson diagonalization with overlap
     c_bands:  1 eigenvalues not converged
     c_bands:  1 eigenvalues not converged
     c_bands:  1 eigenvalues not converged
     ethr =  7.06E-11,  avg # of iterations = 14.0

     total cpu time spent up to now is      258.1 secs

     total energy              =    -342.89597250 Ry
     estimated scf accuracy    <       0.00000013 Ry

     iteration # 34     ecut=    50.00 Ry     beta= 0.30
     Davidson diagonalization with overlap
     ethr =  7.06E-11,  avg # of iterations =  8.6

     total cpu time spent up to now is      266.4 secs

     total energy              =    -342.89597250 Ry
     estimated scf accuracy    <       0.00000002 Ry

     iteration # 35     ecut=    50.00 Ry     beta= 0.30
     Davidson diagonalization with overlap
     ethr =  6.79E-11,  avg # of iterations =  2.6

     total cpu time spent up to now is      272.7 secs

     End of self-consistent calculation

     Number of k-points >= 100: set verbosity='high' to print the bands.

     highest occupied level (ev):     7.6656

!    total energy              =    -342.89597249 Ry
     estimated scf accuracy    <          9.2E-09 Ry

     The total energy is the sum of the following terms:
     one-electron contribution =    -565.68621150 Ry
     hartree contribution      =     309.74263873 Ry
     xc contribution           =    -114.28479215 Ry
     ewald contribution        =      27.33239244 Ry

     convergence has been achieved in  35 iterations

     Forces acting on atoms (cartesian axes, Ry/au):

     atom    1 type  1   force =     3.17129403   -2.47245085   14.07393289
     atom    2 type  1   force =   -28.44399587   -8.06041200   -3.29776328
     atom    3 type  2   force =    -2.63285754    6.78449685  -12.09440440
     atom    4 type  2   force =    27.90555939    3.74836600    1.31823479
     The non-local contrib.  to forces
     atom    1 type  1   force =    -1.19674273   -0.21159848   -3.05608613
     atom    2 type  1   force =     9.55757205    3.56740976    1.36053291
     atom    3 type  2   force =     0.31582014   -0.62988526    0.95972030
     atom    4 type  2   force =    -2.88504705    0.18954969    0.24590811
     The ionic contribution  to forces
     atom    1 type  1   force =    15.33260434   12.79864252   79.15836883
     atom    2 type  1   force =   -76.92249905  -35.27459461  -24.35756804
     atom    3 type  2   force =    -9.46496640   29.81420307  -48.55270857
     atom    4 type  2   force =    71.05486110   -7.33825098   -6.24809222
     The local contribution  to forces
     atom    1 type  1   force =   -10.83848353  -15.11994122  -61.37271989
     atom    2 type  1   force =    37.89591993   23.37713600   19.56923393
     atom    3 type  2   force =     6.51355844  -22.38797689   35.47978671
     atom    4 type  2   force =   -40.22349396   10.90141913    7.32304243
     The core correction contribution to forces
     atom    1 type  1   force =    -0.12619788    0.06054583   -0.65618841
     atom    2 type  1   force =     1.02499685    0.26970946    0.13002329
     atom    3 type  2   force =     0.00275763   -0.01193399    0.01891850
     atom    4 type  2   force =    -0.04075957   -0.00428422   -0.00258425
     The Hubbard contrib.    to forces
     atom    1 type  1   force =     0.00000000    0.00000000    0.00000000
     atom    2 type  1   force =     0.00000000    0.00000000    0.00000000
     atom    3 type  2   force =     0.00000000    0.00000000    0.00000000
     atom    4 type  2   force =     0.00000000    0.00000000    0.00000000
     The SCF correction term to forces
     atom    1 type  1   force =     0.00013473   -0.00014252    0.00067973
     atom    2 type  1   force =     0.00003526   -0.00011565    0.00013587
     atom    3 type  2   force =    -0.00000645    0.00004689   -0.00000011
     atom    4 type  2   force =     0.00001978   -0.00011064    0.00008197

     Total force =    45.748183     Total SCF correction =     0.000745

     Writing all to output data dir ./ZnO_ANN.save/

     init_run     :      4.07s CPU      4.15s WALL (       1 calls)
     electrons    :    263.72s CPU    268.08s WALL (       1 calls)
     forces       :      1.47s CPU      1.49s WALL (       1 calls)

     Called by init_run:
     wfcinit      :      2.97s CPU      3.01s WALL (       1 calls)
     potinit      :      0.40s CPU      0.41s WALL (       1 calls)
     hinit0       :      0.59s CPU      0.60s WALL (       1 calls)

     Called by electrons:
     c_bands      :    231.47s CPU    235.13s WALL (      35 calls)
     sum_band     :     28.79s CPU     29.40s WALL (      35 calls)
     v_of_rho     :      0.71s CPU      0.77s WALL (      36 calls)
     newd         :      2.64s CPU      2.67s WALL (      36 calls)
     mix_rho      :      0.12s CPU      0.14s WALL (      35 calls)

     Called by c_bands:
     init_us_2    :      2.27s CPU      2.31s WALL (    8064 calls)
     init_us_2:cp :      2.24s CPU      2.28s WALL (    8064 calls)
     cegterg      :    223.82s CPU    227.38s WALL (    3920 calls)

     Called by *egterg:
     cdiaghg      :     27.14s CPU     27.42s WALL (   25443 calls)
     h_psi        :    125.46s CPU    128.02s WALL (   25555 calls)
     s_psi        :     16.68s CPU     16.81s WALL (   25555 calls)
     g_psi        :      0.46s CPU      0.47s WALL (   21523 calls)

     Called by h_psi:
     h_psi:calbec :     19.69s CPU     20.21s WALL (   25555 calls)
     vloc_psi     :     88.59s CPU     90.52s WALL (   25555 calls)
     add_vuspsi   :     16.69s CPU     16.80s WALL (   25555 calls)

     General routines
     calbec       :     27.43s CPU     28.14s WALL (   29923 calls)
     fft          :      0.84s CPU      0.91s WALL (     477 calls)
     ffts         :      0.13s CPU      0.14s WALL (      71 calls)
     fftw         :     90.43s CPU     92.39s WALL (  451854 calls)
     interpolate  :      0.16s CPU      0.17s WALL (      36 calls)

     Parallel routines

     PWSCF        :   4m30.03s CPU   4m34.81s WALL


   This run was terminated on:  21: 8:55  24Jun2025            

=------------------------------------------------------------------------------=
   JOB DONE.
=------------------------------------------------------------------------------=
Note: The following floating-point exceptions are signalling: IEEE_INVALID_FLAG
