
     Program PWSCF v.7.2 starts on 24Jun2025 at 19: 5:47 

     This program is part of the open-source Quantum ESPRESSO suite
     for quantum simulation of materials; please cite
         "P. Giannozzi et al., J. Phys.:Condens. Matter 21 395502 (2009);
         "P. Giannozzi et al., J. Phys.:Condens. Matter 29 465901 (2017);
         "P. Giannozzi et al., J. Chem. Phys. 152 154105 (2020);
          URL http://www.quantum-espresso.org", 
     in publications or presentations arising from this work. More details at
     http://www.quantum-espresso.org/quote

     Parallel version (MPI), running on     8 processors

     MPI processes distributed on     1 nodes
     90772 MiB available memory on the printing compute node when the environment starts

     Reading input from /home/jvc/QEspresso7.2/ZnO_DataBase/scf_025_NOSYM.in/scf-6.55-1.55-0.25-3.in

     Current dimensions of program PWSCF are:
     Max number of different atomic species (ntypx) = 10
     Max number of k-points (npk) =  40000
     Max angular momentum in pseudopotentials (lmaxx) =  4
     file Zn.upf: wavefunction(s)  3D renormalized

     R & G space division:  proc/nbgrp/npool/nimage =       8
     Subspace diagonalization in iterative solution of the eigenvalue problem:
     a serial algorithm will be used


     Parallelization info
     --------------------
     sticks:   dense  smooth     PW     G-vecs:    dense   smooth      PW
     Min         147      72     23                 6576     2326     385
     Max         148      73     24                 6577     2335     388
     Sum        1177     583    187                52615    18665    3091

     Using Slab Decomposition



     bravais-lattice index     =            0
     lattice parameter (alat)  =       6.5496  a.u.
     unit-cell volume          =     389.3007 (a.u.)^3
     number of atoms/cell      =            4
     number of atomic types    =            2
     number of electrons       =        36.00
     number of Kohn-Sham states=           18
     kinetic-energy cutoff     =      50.0000  Ry
     charge density cutoff     =     400.0000  Ry
     scf convergence threshold =      1.0E-08
     mixing beta               =       0.3000
     number of iterations used =            8  plain     mixing
     Exchange-correlation= PBE
                           (   1   4   3   4   0   0   0)

     celldm(1)=   6.549551  celldm(2)=   0.000000  celldm(3)=   0.000000
     celldm(4)=   0.000000  celldm(5)=   0.000000  celldm(6)=   0.000000

     crystal axes: (cart. coord. in units of alat)
               a(1) = (   1.000000   0.000000   0.000000 )  
               a(2) = (  -0.500000   0.866025   0.000000 )  
               a(3) = (   0.000000   0.000000   1.600000 )  

     reciprocal axes: (cart. coord. in units 2 pi/alat)
               b(1) = (  1.000000  0.577350 -0.000000 )  
               b(2) = (  0.000000  1.154701  0.000000 )  
               b(3) = (  0.000000 -0.000000  0.625000 )  


     PseudoPot. # 1 for Zn read from file:
     ./pseudos/Zn.upf
     MD5 check sum: 7f56cabf9682ed8c977c2f7d0c5985c5
     Pseudo is Ultrasoft + core correction, Zval = 12.0
     Generated using &quot;atomic&quot; code by A. Dal Corso  v.6.2.2
     Using radial grid of 1201 points,  6 beta functions with: 
                l(1) =   0
                l(2) =   0
                l(3) =   1
                l(4) =   1
                l(5) =   2
                l(6) =   2
     Q(r) pseudized with 0 coefficients 


     PseudoPot. # 2 for O  read from file:
     ./pseudos/O.upf
     MD5 check sum: 91400c9766925bcf19f520983a725ff0
     Pseudo is Ultrasoft + core correction, Zval =  6.0
     Generated using &quot;atomic&quot; code by A. Dal Corso  v.6.3MaX
     Using radial grid of 1095 points,  4 beta functions with: 
                l(1) =   0
                l(2) =   0
                l(3) =   1
                l(4) =   1
     Q(r) pseudized with 0 coefficients 


     atomic species   valence    mass     pseudopotential
        Zn            12.00    63.38000     Zn( 1.00)
        O              6.00    15.99900     O ( 1.00)

     No symmetry found



   Cartesian axes

     site n.     atom                  positions (alat units)
         1           Zn  tau(   1) = (   0.5679038   0.1389510   0.7879351  )
         2           Zn  tau(   2) = (   0.2832770   0.5034261  -0.2619073  )
         3           O   tau(   3) = (   0.2519145   0.4811310   1.2750350  )
         4           O   tau(   4) = (   0.2071855   0.5824423   0.4748764  )

     number of k points=   112

     Number of k-points >= 100: set verbosity='high' to print them.

     Dense  grid:    52615 G-vectors     FFT dimensions: (  45,  45,  72)

     Smooth grid:    18665 G-vectors     FFT dimensions: (  30,  30,  48)

     Estimated max dynamical RAM per process >      35.72 MB

     Estimated total dynamical RAM >     285.77 MB

     Check: negative core charge=   -0.000002

     Initial potential from superposition of free atoms

     starting charge      35.9925, renormalised to      36.0000
     Starting wfcs are   26 randomized atomic wfcs

     total cpu time spent up to now is        4.5 secs

     Self-consistent Calculation

     iteration #  1     ecut=    50.00 Ry     beta= 0.30
     Davidson diagonalization with overlap
     ethr =  1.00E-02,  avg # of iterations =  4.9

     total cpu time spent up to now is       13.6 secs

     total energy              =    -215.05743156 Ry
     estimated scf accuracy    <       8.68970428 Ry

     iteration #  2     ecut=    50.00 Ry     beta= 0.30
     Davidson diagonalization with overlap
     ethr =  1.00E-02,  avg # of iterations =  3.7

     total cpu time spent up to now is       21.8 secs

     total energy              =    -215.76301168 Ry
     estimated scf accuracy    <       0.94747116 Ry

     iteration #  3     ecut=    50.00 Ry     beta= 0.30
     Davidson diagonalization with overlap
     ethr =  2.63E-03,  avg # of iterations =  5.9

     total cpu time spent up to now is       29.6 secs

     total energy              =    -215.86688228 Ry
     estimated scf accuracy    <       0.58041132 Ry

     iteration #  4     ecut=    50.00 Ry     beta= 0.30
     Davidson diagonalization with overlap
     ethr =  1.61E-03,  avg # of iterations =  1.6

     total cpu time spent up to now is       35.2 secs

     total energy              =    -215.64584212 Ry
     estimated scf accuracy    <       0.32918304 Ry

     iteration #  5     ecut=    50.00 Ry     beta= 0.30
     Davidson diagonalization with overlap
     ethr =  9.14E-04,  avg # of iterations =  7.0

     total cpu time spent up to now is       46.4 secs

     total energy              =    -215.63363760 Ry
     estimated scf accuracy    <       1.00267481 Ry

     iteration #  6     ecut=    50.00 Ry     beta= 0.30
     Davidson diagonalization with overlap
     ethr =  9.14E-04,  avg # of iterations =  6.7

     total cpu time spent up to now is       55.1 secs

     total energy              =    -215.81902200 Ry
     estimated scf accuracy    <       0.02551636 Ry

     iteration #  7     ecut=    50.00 Ry     beta= 0.30
     Davidson diagonalization with overlap
     ethr =  7.09E-05,  avg # of iterations =  2.4

     total cpu time spent up to now is       61.3 secs

     total energy              =    -215.83174718 Ry
     estimated scf accuracy    <       0.02536675 Ry

     iteration #  8     ecut=    50.00 Ry     beta= 0.30
     Davidson diagonalization with overlap
     ethr =  7.05E-05,  avg # of iterations =  6.9

     total cpu time spent up to now is       69.6 secs

     total energy              =    -215.79229824 Ry
     estimated scf accuracy    <       0.13887765 Ry

     iteration #  9     ecut=    50.00 Ry     beta= 0.30
     Davidson diagonalization with overlap
     ethr =  7.05E-05,  avg # of iterations =  6.2

     total cpu time spent up to now is       78.4 secs

     total energy              =    -215.81675064 Ry
     estimated scf accuracy    <       0.00158446 Ry

     iteration # 10     ecut=    50.00 Ry     beta= 0.30
     Davidson diagonalization with overlap
     ethr =  4.40E-06,  avg # of iterations =  5.7

     total cpu time spent up to now is       87.1 secs

     total energy              =    -215.81621506 Ry
     estimated scf accuracy    <       0.00897118 Ry

     iteration # 11     ecut=    50.00 Ry     beta= 0.30
     Davidson diagonalization with overlap
     ethr =  4.40E-06,  avg # of iterations =  2.8

     total cpu time spent up to now is       93.1 secs

     total energy              =    -215.81429744 Ry
     estimated scf accuracy    <       0.00585759 Ry

     iteration # 12     ecut=    50.00 Ry     beta= 0.30
     Davidson diagonalization with overlap
     ethr =  4.40E-06,  avg # of iterations =  6.2

     total cpu time spent up to now is      102.0 secs

     total energy              =    -215.81598357 Ry
     estimated scf accuracy    <       0.00048892 Ry

     iteration # 13     ecut=    50.00 Ry     beta= 0.30
     Davidson diagonalization with overlap
     ethr =  1.36E-06,  avg # of iterations =  1.8

     total cpu time spent up to now is      107.7 secs

     total energy              =    -215.81587221 Ry
     estimated scf accuracy    <       0.00068318 Ry

     iteration # 14     ecut=    50.00 Ry     beta= 0.30
     Davidson diagonalization with overlap
     ethr =  1.36E-06,  avg # of iterations =  1.1

     total cpu time spent up to now is      112.8 secs

     total energy              =    -215.81571563 Ry
     estimated scf accuracy    <       0.00047423 Ry

     iteration # 15     ecut=    50.00 Ry     beta= 0.30
     Davidson diagonalization with overlap
     ethr =  1.32E-06,  avg # of iterations =  6.0

     total cpu time spent up to now is      119.8 secs

     total energy              =    -215.81580817 Ry
     estimated scf accuracy    <       0.00000105 Ry

     iteration # 16     ecut=    50.00 Ry     beta= 0.30
     Davidson diagonalization with overlap
     ethr =  2.92E-09,  avg # of iterations = 11.1

     total cpu time spent up to now is      133.6 secs

     total energy              =    -215.81581952 Ry
     estimated scf accuracy    <       0.00001673 Ry

     iteration # 17     ecut=    50.00 Ry     beta= 0.30
     Davidson diagonalization with overlap
     ethr =  2.92E-09,  avg # of iterations =  6.4

     total cpu time spent up to now is      141.4 secs

     total energy              =    -215.81581781 Ry
     estimated scf accuracy    <       0.00000736 Ry

     iteration # 18     ecut=    50.00 Ry     beta= 0.30
     Davidson diagonalization with overlap
     ethr =  2.92E-09,  avg # of iterations =  6.0

     total cpu time spent up to now is      149.9 secs

     total energy              =    -215.81581857 Ry
     estimated scf accuracy    <       0.00000021 Ry

     iteration # 19     ecut=    50.00 Ry     beta= 0.30
     Davidson diagonalization with overlap
     ethr =  5.88E-10,  avg # of iterations =  3.8

     total cpu time spent up to now is      156.0 secs

     total energy              =    -215.81581859 Ry
     estimated scf accuracy    <       0.00000006 Ry

     iteration # 20     ecut=    50.00 Ry     beta= 0.30
     Davidson diagonalization with overlap
     ethr =  1.55E-10,  avg # of iterations =  6.4

     total cpu time spent up to now is      163.6 secs

     End of self-consistent calculation

     Number of k-points >= 100: set verbosity='high' to print the bands.

     highest occupied level (ev):     6.3849

!    total energy              =    -215.81581861 Ry
     estimated scf accuracy    <          1.9E-09 Ry

     The total energy is the sum of the following terms:
     one-electron contribution =    -338.90932571 Ry
     hartree contribution      =     194.59392358 Ry
     xc contribution           =    -116.99493189 Ry
     ewald contribution        =      45.49451541 Ry

     convergence has been achieved in  20 iterations

     Forces acting on atoms (cartesian axes, Ry/au):

     atom    1 type  1   force =    -0.00523906    0.02727800   -0.18439408
     atom    2 type  1   force =   231.98451613  164.89219723  466.43649201
     atom    3 type  2   force =  -231.98972369 -164.89916971 -466.35444479
     atom    4 type  2   force =     0.01044662   -0.02030552    0.10234686
     The non-local contrib.  to forces
     atom    1 type  1   force =    -0.10517391    0.45876565    0.95147457
     atom    2 type  1   force =   -18.85321376  -13.61715442  -38.72529378
     atom    3 type  2   force =     0.75168985    0.40934460    1.20380706
     atom    4 type  2   force =     0.00218730    0.30535955    1.05797900
     The ionic contribution  to forces
     atom    1 type  1   force =     0.93032640    1.79829740  -11.20318960
     atom    2 type  1   force =   260.16773493  185.46971279  536.73233166
     atom    3 type  2   force =  -261.14842023 -185.08457828 -517.42894853
     atom    4 type  2   force =     0.05035890   -2.18343192   -8.10019353
     The local contribution  to forces
     atom    1 type  1   force =    -0.83171613   -2.20760347   10.09838169
     atom    2 type  1   force =    -8.52859243   -6.39622620  -29.97167824
     atom    3 type  2   force =    28.16133573   19.60090546   49.37733680
     atom    4 type  2   force =    -0.04200505    1.86028980    7.15471961
     The core correction contribution to forces
     atom    1 type  1   force =     0.00131596   -0.02219235   -0.03125898
     atom    2 type  1   force =    -0.80140465   -0.56411785   -1.59859430
     atom    3 type  2   force =     0.24564146    0.17514196    0.49339640
     atom    4 type  2   force =    -0.00012232   -0.00253057   -0.01028839
     The Hubbard contrib.    to forces
     atom    1 type  1   force =     0.00000000    0.00000000    0.00000000
     atom    2 type  1   force =     0.00000000    0.00000000    0.00000000
     atom    3 type  2   force =     0.00000000    0.00000000    0.00000000
     atom    4 type  2   force =     0.00000000    0.00000000    0.00000000
     The SCF correction term to forces
     atom    1 type  1   force =    -0.00001734   -0.00000989    0.00009793
     atom    2 type  1   force =    -0.00003392   -0.00003777   -0.00037364
     atom    3 type  2   force =     0.00000355   -0.00000411   -0.00013682
     atom    4 type  2   force =     0.00000183   -0.00001303    0.00002986

     Total force =   772.700935     Total SCF correction =     0.000415

     Writing all to output data dir ./ZnO_ANN.save/

     init_run     :      3.91s CPU      4.01s WALL (       1 calls)
     electrons    :    156.70s CPU    159.14s WALL (       1 calls)
     forces       :      1.36s CPU      1.37s WALL (       1 calls)

     Called by init_run:
     wfcinit      :      2.88s CPU      2.93s WALL (       1 calls)
     potinit      :      0.38s CPU      0.39s WALL (       1 calls)
     hinit0       :      0.56s CPU      0.57s WALL (       1 calls)

     Called by electrons:
     c_bands      :    138.48s CPU    140.57s WALL (      20 calls)
     sum_band     :     16.42s CPU     16.72s WALL (      20 calls)
     v_of_rho     :      0.41s CPU      0.44s WALL (      21 calls)
     newd         :      1.37s CPU      1.40s WALL (      21 calls)
     mix_rho      :      0.06s CPU      0.07s WALL (      20 calls)

     Called by c_bands:
     init_us_2    :      1.19s CPU      1.21s WALL (    4704 calls)
     init_us_2:cp :      1.18s CPU      1.19s WALL (    4704 calls)
     cegterg      :    134.66s CPU    136.70s WALL (    2240 calls)

     Called by *egterg:
     cdiaghg      :     14.45s CPU     14.55s WALL (   13720 calls)
     h_psi        :     79.59s CPU     81.12s WALL (   13832 calls)
     s_psi        :      9.28s CPU      9.35s WALL (   13832 calls)
     g_psi        :      0.27s CPU      0.27s WALL (   11480 calls)

     Called by h_psi:
     h_psi:calbec :     11.22s CPU     11.51s WALL (   13832 calls)
     vloc_psi     :     58.79s CPU     59.96s WALL (   13832 calls)
     add_vuspsi   :      9.32s CPU      9.40s WALL (   13832 calls)

     General routines
     calbec       :     15.61s CPU     15.99s WALL (   16520 calls)
     fft          :      0.64s CPU      0.69s WALL (     282 calls)
     ffts         :      0.15s CPU      0.15s WALL (      41 calls)
     fftw         :     60.90s CPU     62.12s WALL (  279638 calls)
     interpolate  :      0.16s CPU      0.17s WALL (      21 calls)

     Parallel routines

     PWSCF        :   2m42.68s CPU   2m45.48s WALL


   This run was terminated on:  19: 8:32  24Jun2025            

=------------------------------------------------------------------------------=
   JOB DONE.
=------------------------------------------------------------------------------=
Note: The following floating-point exceptions are signalling: IEEE_INVALID_FLAG
