
     Program PWSCF v.7.2 starts on 24Jun2025 at 16:27: 0 

     This program is part of the open-source Quantum ESPRESSO suite
     for quantum simulation of materials; please cite
         "P. Giannozzi et al., J. Phys.:Condens. Matter 21 395502 (2009);
         "P. Giannozzi et al., J. Phys.:Condens. Matter 29 465901 (2017);
         "P. Giannozzi et al., J. Chem. Phys. 152 154105 (2020);
          URL http://www.quantum-espresso.org", 
     in publications or presentations arising from this work. More details at
     http://www.quantum-espresso.org/quote

     Parallel version (MPI), running on     8 processors

     MPI processes distributed on     1 nodes
     91057 MiB available memory on the printing compute node when the environment starts

     Reading input from /home/jvc/QEspresso7.2/ZnO_DataBase/scf_025_NOSYM.in/scf-6.06-1.61-0.25-2.in

     Current dimensions of program PWSCF are:
     Max number of different atomic species (ntypx) = 10
     Max number of k-points (npk) =  40000
     Max angular momentum in pseudopotentials (lmaxx) =  4
     file Zn.upf: wavefunction(s)  3D renormalized

     R & G space division:  proc/nbgrp/npool/nimage =       8
     Subspace diagonalization in iterative solution of the eigenvalue problem:
     a serial algorithm will be used


     Parallelization info
     --------------------
     sticks:   dense  smooth     PW     G-vecs:    dense   smooth      PW
     Min         126      63     18                 5206     1840     312
     Max         127      65     19                 5211     1843     317
     Sum        1015     511    151                41671    14737    2527

     Using Slab Decomposition



     bravais-lattice index     =            0
     lattice parameter (alat)  =       6.0552  a.u.
     unit-cell volume          =     307.6421 (a.u.)^3
     number of atoms/cell      =            4
     number of atomic types    =            2
     number of electrons       =        36.00
     number of Kohn-Sham states=           18
     kinetic-energy cutoff     =      50.0000  Ry
     charge density cutoff     =     400.0000  Ry
     scf convergence threshold =      1.0E-08
     mixing beta               =       0.3000
     number of iterations used =            8  plain     mixing
     Exchange-correlation= PBE
                           (   1   4   3   4   0   0   0)

     celldm(1)=   6.055245  celldm(2)=   0.000000  celldm(3)=   0.000000
     celldm(4)=   0.000000  celldm(5)=   0.000000  celldm(6)=   0.000000

     crystal axes: (cart. coord. in units of alat)
               a(1) = (   1.000000   0.000000   0.000000 )  
               a(2) = (  -0.500000   0.866025   0.000000 )  
               a(3) = (   0.000000   0.000000   1.600000 )  

     reciprocal axes: (cart. coord. in units 2 pi/alat)
               b(1) = (  1.000000  0.577350 -0.000000 )  
               b(2) = (  0.000000  1.154701  0.000000 )  
               b(3) = (  0.000000 -0.000000  0.625000 )  


     PseudoPot. # 1 for Zn read from file:
     ./pseudos/Zn.upf
     MD5 check sum: 7f56cabf9682ed8c977c2f7d0c5985c5
     Pseudo is Ultrasoft + core correction, Zval = 12.0
     Generated using &quot;atomic&quot; code by A. Dal Corso  v.6.2.2
     Using radial grid of 1201 points,  6 beta functions with: 
                l(1) =   0
                l(2) =   0
                l(3) =   1
                l(4) =   1
                l(5) =   2
                l(6) =   2
     Q(r) pseudized with 0 coefficients 


     PseudoPot. # 2 for O  read from file:
     ./pseudos/O.upf
     MD5 check sum: 91400c9766925bcf19f520983a725ff0
     Pseudo is Ultrasoft + core correction, Zval =  6.0
     Generated using &quot;atomic&quot; code by A. Dal Corso  v.6.3MaX
     Using radial grid of 1095 points,  4 beta functions with: 
                l(1) =   0
                l(2) =   0
                l(3) =   1
                l(4) =   1
     Q(r) pseudized with 0 coefficients 


     atomic species   valence    mass     pseudopotential
        Zn            12.00    63.38000     Zn( 1.00)
        O              6.00    15.99900     O ( 1.00)

     No symmetry found



   Cartesian axes

     site n.     atom                  positions (alat units)
         1           Zn  tau(   1) = (   0.4581403   0.1751971   0.8367449  )
         2           Zn  tau(   2) = (  -0.0739669   0.4859160  -0.0559282  )
         3           O   tau(   3) = (   0.8152905   0.1628830   1.2489958  )
         4           O   tau(   4) = (  -0.2455190   0.6373866   0.2876478  )

     number of k points=   112

     Number of k-points >= 100: set verbosity='high' to print them.

     Dense  grid:    41671 G-vectors     FFT dimensions: (  40,  40,  64)

     Smooth grid:    14737 G-vectors     FFT dimensions: (  27,  27,  45)

     Estimated max dynamical RAM per process >      28.83 MB

     Estimated total dynamical RAM >     230.62 MB

     Check: negative core charge=   -0.000002

     Initial potential from superposition of free atoms

     starting charge      35.9925, renormalised to      36.0000
     Starting wfcs are   26 randomized atomic wfcs

     total cpu time spent up to now is        3.9 secs

     Self-consistent Calculation

     iteration #  1     ecut=    50.00 Ry     beta= 0.30
     Davidson diagonalization with overlap
     ethr =  1.00E-02,  avg # of iterations =  2.9

     total cpu time spent up to now is        9.5 secs

     total energy              =    -360.50313853 Ry
     estimated scf accuracy    <       1.25852016 Ry

     iteration #  2     ecut=    50.00 Ry     beta= 0.30
     Davidson diagonalization with overlap
     ethr =  3.50E-03,  avg # of iterations =  2.1

     total cpu time spent up to now is       14.9 secs

     total energy              =    -360.53213311 Ry
     estimated scf accuracy    <       0.23646262 Ry

     iteration #  3     ecut=    50.00 Ry     beta= 0.30
     Davidson diagonalization with overlap
     ethr =  6.57E-04,  avg # of iterations =  8.5

     total cpu time spent up to now is       27.0 secs

     total energy              =    -360.83626055 Ry
     estimated scf accuracy    <       0.62385504 Ry

     iteration #  4     ecut=    50.00 Ry     beta= 0.30
     Davidson diagonalization with overlap
     ethr =  6.57E-04,  avg # of iterations =  1.1

     total cpu time spent up to now is       31.5 secs

     total energy              =    -360.57725360 Ry
     estimated scf accuracy    <       0.44510127 Ry

     iteration #  5     ecut=    50.00 Ry     beta= 0.30
     Davidson diagonalization with overlap
     ethr =  6.57E-04,  avg # of iterations =  8.1

     total cpu time spent up to now is       43.8 secs

     total energy              =    -360.89621857 Ry
     estimated scf accuracy    <       0.23783952 Ry

     iteration #  6     ecut=    50.00 Ry     beta= 0.30
     Davidson diagonalization with overlap
     ethr =  6.57E-04,  avg # of iterations =  1.7

     total cpu time spent up to now is       48.6 secs

     total energy              =    -360.72698385 Ry
     estimated scf accuracy    <       0.39799539 Ry

     iteration #  7     ecut=    50.00 Ry     beta= 0.30
     Davidson diagonalization with overlap
     ethr =  6.57E-04,  avg # of iterations =  2.2

     total cpu time spent up to now is       54.2 secs

     total energy              =    -360.75043713 Ry
     estimated scf accuracy    <       0.08778996 Ry

     iteration #  8     ecut=    50.00 Ry     beta= 0.30
     Davidson diagonalization with overlap
     ethr =  2.44E-04,  avg # of iterations =  4.7

     total cpu time spent up to now is       60.5 secs

     total energy              =    -360.76930214 Ry
     estimated scf accuracy    <       0.01711826 Ry

     iteration #  9     ecut=    50.00 Ry     beta= 0.30
     Davidson diagonalization with overlap
     ethr =  4.76E-05,  avg # of iterations =  3.9

     total cpu time spent up to now is       67.0 secs

     total energy              =    -360.77428867 Ry
     estimated scf accuracy    <       0.00709658 Ry

     iteration # 10     ecut=    50.00 Ry     beta= 0.30
     Davidson diagonalization with overlap
     ethr =  1.97E-05,  avg # of iterations =  1.7

     total cpu time spent up to now is       71.8 secs

     total energy              =    -360.77433210 Ry
     estimated scf accuracy    <       0.00739738 Ry

     iteration # 11     ecut=    50.00 Ry     beta= 0.30
     Davidson diagonalization with overlap
     ethr =  1.97E-05,  avg # of iterations =  1.1

     total cpu time spent up to now is       76.3 secs

     total energy              =    -360.83570084 Ry
     estimated scf accuracy    <       0.00659247 Ry

     iteration # 12     ecut=    50.00 Ry     beta= 0.30
     Davidson diagonalization with overlap
     ethr =  1.83E-05,  avg # of iterations = 11.8

     total cpu time spent up to now is       96.6 secs

     total energy              =    -360.85405969 Ry
     estimated scf accuracy    <       0.59959421 Ry

     iteration # 13     ecut=    50.00 Ry     beta= 0.30
     Davidson diagonalization with overlap
     ethr =  1.83E-05,  avg # of iterations =  6.5

     total cpu time spent up to now is      107.4 secs

     total energy              =    -361.01438655 Ry
     estimated scf accuracy    <       0.37397460 Ry

     iteration # 14     ecut=    50.00 Ry     beta= 0.30
     Davidson diagonalization with overlap
     ethr =  1.83E-05,  avg # of iterations =  9.0

     total cpu time spent up to now is      123.8 secs

     total energy              =    -360.91367472 Ry
     estimated scf accuracy    <       1.03501494 Ry

     iteration # 15     ecut=    50.00 Ry     beta= 0.30
     Davidson diagonalization with overlap
     ethr =  1.83E-05,  avg # of iterations =  7.6

     total cpu time spent up to now is      136.7 secs

     total energy              =    -360.83900412 Ry
     estimated scf accuracy    <       0.61795363 Ry

     iteration # 16     ecut=    50.00 Ry     beta= 0.30
     Davidson diagonalization with overlap
     ethr =  1.83E-05,  avg # of iterations =  8.0

     total cpu time spent up to now is      149.3 secs

     total energy              =    -360.72046450 Ry
     estimated scf accuracy    <       0.32304287 Ry

     iteration # 17     ecut=    50.00 Ry     beta= 0.30
     Davidson diagonalization with overlap
     c_bands:  1 eigenvalues not converged
     ethr =  1.83E-05,  avg # of iterations = 11.8

     total cpu time spent up to now is      166.7 secs

     total energy              =    -360.77301116 Ry
     estimated scf accuracy    <       0.00031254 Ry

     iteration # 18     ecut=    50.00 Ry     beta= 0.30
     Davidson diagonalization with overlap
     ethr =  8.68E-07,  avg # of iterations = 10.5

     total cpu time spent up to now is      179.4 secs

     total energy              =    -360.77339536 Ry
     estimated scf accuracy    <       0.00169816 Ry

     iteration # 19     ecut=    50.00 Ry     beta= 0.30
     Davidson diagonalization with overlap
     ethr =  8.68E-07,  avg # of iterations =  3.8

     total cpu time spent up to now is      185.2 secs

     total energy              =    -360.77314000 Ry
     estimated scf accuracy    <       0.00067871 Ry

     iteration # 20     ecut=    50.00 Ry     beta= 0.30
     Davidson diagonalization with overlap
     ethr =  8.68E-07,  avg # of iterations =  7.4

     total cpu time spent up to now is      195.4 secs

     total energy              =    -360.77342410 Ry
     estimated scf accuracy    <       0.00014071 Ry

     iteration # 21     ecut=    50.00 Ry     beta= 0.30
     Davidson diagonalization with overlap
     ethr =  3.91E-07,  avg # of iterations =  1.6

     total cpu time spent up to now is      200.1 secs

     total energy              =    -360.77338909 Ry
     estimated scf accuracy    <       0.00008028 Ry

     iteration # 22     ecut=    50.00 Ry     beta= 0.30
     Davidson diagonalization with overlap
     ethr =  2.23E-07,  avg # of iterations =  4.6

     total cpu time spent up to now is      207.5 secs

     total energy              =    -360.77341796 Ry
     estimated scf accuracy    <       0.00000494 Ry

     iteration # 23     ecut=    50.00 Ry     beta= 0.30
     Davidson diagonalization with overlap
     ethr =  1.37E-08,  avg # of iterations =  6.1

     total cpu time spent up to now is      215.9 secs

     total energy              =    -360.77341651 Ry
     estimated scf accuracy    <       0.00001437 Ry

     iteration # 24     ecut=    50.00 Ry     beta= 0.30
     Davidson diagonalization with overlap
     ethr =  1.37E-08,  avg # of iterations =  5.4

     total cpu time spent up to now is      223.0 secs

     total energy              =    -360.77341976 Ry
     estimated scf accuracy    <       0.00000174 Ry

     iteration # 25     ecut=    50.00 Ry     beta= 0.30
     Davidson diagonalization with overlap
     c_bands:  2 eigenvalues not converged
     c_bands:  1 eigenvalues not converged
     ethr =  4.82E-09,  avg # of iterations = 12.8

     total cpu time spent up to now is      241.3 secs

     total energy              =    -360.77341445 Ry
     estimated scf accuracy    <       0.00007889 Ry

     iteration # 26     ecut=    50.00 Ry     beta= 0.30
     Davidson diagonalization with overlap
     c_bands:  2 eigenvalues not converged
     ethr =  4.82E-09,  avg # of iterations = 10.5

     total cpu time spent up to now is      256.3 secs

     total energy              =    -360.77341799 Ry
     estimated scf accuracy    <       0.00001075 Ry

     iteration # 27     ecut=    50.00 Ry     beta= 0.30
     Davidson diagonalization with overlap
     ethr =  4.82E-09,  avg # of iterations =  5.9

     total cpu time spent up to now is      263.6 secs

     total energy              =    -360.77341970 Ry
     estimated scf accuracy    <       0.00000352 Ry

     iteration # 28     ecut=    50.00 Ry     beta= 0.30
     Davidson diagonalization with overlap
     ethr =  4.82E-09,  avg # of iterations =  2.0

     total cpu time spent up to now is      268.5 secs

     total energy              =    -360.77342141 Ry
     estimated scf accuracy    <       0.00000587 Ry

     iteration # 29     ecut=    50.00 Ry     beta= 0.30
     Davidson diagonalization with overlap
     ethr =  4.82E-09,  avg # of iterations =  5.4

     total cpu time spent up to now is      276.0 secs

     total energy              =    -360.77342387 Ry
     estimated scf accuracy    <       0.00001641 Ry

     iteration # 30     ecut=    50.00 Ry     beta= 0.30
     Davidson diagonalization with overlap
     ethr =  4.82E-09,  avg # of iterations =  2.2

     total cpu time spent up to now is      280.9 secs

     total energy              =    -360.77341768 Ry
     estimated scf accuracy    <       0.00002125 Ry

     iteration # 31     ecut=    50.00 Ry     beta= 0.30
     Davidson diagonalization with overlap
     ethr =  4.82E-09,  avg # of iterations =  6.2

     total cpu time spent up to now is      289.7 secs

     total energy              =    -360.77341538 Ry
     estimated scf accuracy    <       0.00000468 Ry

     iteration # 32     ecut=    50.00 Ry     beta= 0.30
     Davidson diagonalization with overlap
     c_bands:  2 eigenvalues not converged
     ethr =  4.82E-09,  avg # of iterations = 10.3

     total cpu time spent up to now is      304.2 secs

     total energy              =    -360.77341803 Ry
     estimated scf accuracy    <       0.00001293 Ry

     iteration # 33     ecut=    50.00 Ry     beta= 0.30
     Davidson diagonalization with overlap
     ethr =  4.82E-09,  avg # of iterations =  4.7

     total cpu time spent up to now is      310.7 secs

     total energy              =    -360.77341780 Ry
     estimated scf accuracy    <       0.00000472 Ry

     iteration # 34     ecut=    50.00 Ry     beta= 0.30
     Davidson diagonalization with overlap
     ethr =  4.82E-09,  avg # of iterations =  3.1

     total cpu time spent up to now is      316.2 secs

     total energy              =    -360.77341801 Ry
     estimated scf accuracy    <       0.00000247 Ry

     iteration # 35     ecut=    50.00 Ry     beta= 0.30
     Davidson diagonalization with overlap
     ethr =  4.82E-09,  avg # of iterations =  1.6

     total cpu time spent up to now is      321.0 secs

     total energy              =    -360.77341767 Ry
     estimated scf accuracy    <       0.00000201 Ry

     iteration # 36     ecut=    50.00 Ry     beta= 0.30
     Davidson diagonalization with overlap
     ethr =  4.82E-09,  avg # of iterations =  2.6

     total cpu time spent up to now is      326.4 secs

     total energy              =    -360.77341739 Ry
     estimated scf accuracy    <       0.00000082 Ry

     iteration # 37     ecut=    50.00 Ry     beta= 0.30
     Davidson diagonalization with overlap
     ethr =  2.28E-09,  avg # of iterations =  7.5

     total cpu time spent up to now is      336.2 secs

     total energy              =    -360.77341807 Ry
     estimated scf accuracy    <       0.00000067 Ry

     iteration # 38     ecut=    50.00 Ry     beta= 0.30
     Davidson diagonalization with overlap
     ethr =  1.86E-09,  avg # of iterations =  1.2

     total cpu time spent up to now is      340.7 secs

     total energy              =    -360.77341795 Ry
     estimated scf accuracy    <       0.00000061 Ry

     iteration # 39     ecut=    50.00 Ry     beta= 0.30
     Davidson diagonalization with overlap
     ethr =  1.69E-09,  avg # of iterations =  1.2

     total cpu time spent up to now is      345.2 secs

     total energy              =    -360.77341784 Ry
     estimated scf accuracy    <       0.00000034 Ry

     iteration # 40     ecut=    50.00 Ry     beta= 0.30
     Davidson diagonalization with overlap
     ethr =  9.40E-10,  avg # of iterations =  4.7

     total cpu time spent up to now is      351.7 secs

     End of self-consistent calculation

     Number of k-points >= 100: set verbosity='high' to print the bands.

     highest occupied level (ev):     8.8819

!    total energy              =    -360.77341793 Ry
     estimated scf accuracy    <          4.3E-09 Ry

     The total energy is the sum of the following terms:
     one-electron contribution =    -166.59134428 Ry
     hartree contribution      =     124.44200870 Ry
     xc contribution           =    -109.98794751 Ry
     ewald contribution        =    -208.63613484 Ry

     convergence has been achieved in  40 iterations

     Forces acting on atoms (cartesian axes, Ry/au):

     atom    1 type  1   force =    -0.07733594   -0.01826371   -0.16626653
     atom    2 type  1   force =     0.72424088   -0.02208561   -0.64412910
     atom    3 type  2   force =    -0.08175181   -0.55289602   -0.52875281
     atom    4 type  2   force =    -0.56515312    0.59324534    1.33914844
     The non-local contrib.  to forces
     atom    1 type  1   force =    -0.42170277    0.13771602   -0.22680269
     atom    2 type  1   force =     0.62638518    0.16036280   -0.48399475
     atom    3 type  2   force =    -0.09365610    0.69156274   -0.38335841
     atom    4 type  2   force =     0.63635214   -0.08076492   -0.13844687
     The ionic contribution  to forces
     atom    1 type  1   force =    -3.51935438    0.73830366  -10.65135465
     atom    2 type  1   force =     9.58160056    1.97633331    0.41941069
     atom    3 type  2   force =     0.95321173   -8.41475687   -5.49975199
     atom    4 type  2   force =    -7.01545791    5.70011989   15.73169596
     The local contribution  to forces
     atom    1 type  1   force =     3.82947290   -0.88574671   10.68057650
     atom    2 type  1   force =    -9.35667669   -2.13351947   -0.65960539
     atom    3 type  2   force =    -0.94222064    7.17348776    5.34824655
     atom    4 type  2   force =     5.81687248   -5.02368182  -14.24828651
     The core correction contribution to forces
     atom    1 type  1   force =     0.03427364   -0.00851368    0.03137172
     atom    2 type  1   force =    -0.12707444   -0.02535769    0.07992274
     atom    3 type  2   force =     0.00090632   -0.00317433    0.00615275
     atom    4 type  2   force =    -0.00292337   -0.00241617   -0.00576954
     The Hubbard contrib.    to forces
     atom    1 type  1   force =     0.00000000    0.00000000    0.00000000
     atom    2 type  1   force =     0.00000000    0.00000000    0.00000000
     atom    3 type  2   force =     0.00000000    0.00000000    0.00000000
     atom    4 type  2   force =     0.00000000    0.00000000    0.00000000
     The SCF correction term to forces
     atom    1 type  1   force =    -0.00003035   -0.00000864   -0.00001257
     atom    2 type  1   force =     0.00000124    0.00010979    0.00018246
     atom    3 type  2   force =     0.00000185   -0.00000097    0.00000312
     atom    4 type  2   force =    -0.00000149    0.00000271    0.00000024

     Total force =     2.007607     Total SCF correction =     0.000216

     Writing all to output data dir ./ZnO_ANN.save/

     init_run     :      3.39s CPU      3.48s WALL (       1 calls)
     electrons    :    341.52s CPU    347.80s WALL (       1 calls)
     forces       :      1.06s CPU      1.08s WALL (       1 calls)

     Called by init_run:
     wfcinit      :      2.47s CPU      2.53s WALL (       1 calls)
     potinit      :      0.25s CPU      0.26s WALL (       1 calls)
     hinit0       :      0.59s CPU      0.61s WALL (       1 calls)

     Called by electrons:
     c_bands      :    311.00s CPU    316.56s WALL (      40 calls)
     sum_band     :     27.75s CPU     28.39s WALL (      40 calls)
     v_of_rho     :      0.56s CPU      0.60s WALL (      41 calls)
     newd         :      2.11s CPU      2.14s WALL (      41 calls)
     mix_rho      :      0.11s CPU      0.11s WALL (      40 calls)

     Called by c_bands:
     init_us_2    :      1.88s CPU      1.90s WALL (    9184 calls)
     init_us_2:cp :      1.85s CPU      1.88s WALL (    9184 calls)
     cegterg      :    304.87s CPU    310.32s WALL (    4480 calls)

     Called by *egterg:
     cdiaghg      :     32.45s CPU     32.68s WALL (   28408 calls)
     h_psi        :    177.21s CPU    181.31s WALL (   28520 calls)
     s_psi        :     20.29s CPU     20.48s WALL (   28520 calls)
     g_psi        :      0.62s CPU      0.62s WALL (   23928 calls)

     Called by h_psi:
     h_psi:calbec :     23.09s CPU     23.90s WALL (   28520 calls)
     vloc_psi     :    133.17s CPU    136.26s WALL (   28520 calls)
     add_vuspsi   :     20.38s CPU     20.58s WALL (   28520 calls)

     General routines
     calbec       :     29.50s CPU     30.51s WALL (   33448 calls)
     fft          :      0.73s CPU      0.78s WALL (     542 calls)
     ffts         :      0.09s CPU      0.09s WALL (      81 calls)
     fftw         :    134.98s CPU    138.14s WALL (  698296 calls)
     interpolate  :      0.10s CPU      0.11s WALL (      41 calls)

     Parallel routines

     PWSCF        :   5m46.74s CPU   5m53.27s WALL


   This run was terminated on:  16:32:54  24Jun2025            

=------------------------------------------------------------------------------=
   JOB DONE.
=------------------------------------------------------------------------------=
Note: The following floating-point exceptions are signalling: IEEE_INVALID_FLAG
