
     Program PWSCF v.7.2 starts on 24Jun2025 at 19:21:35 

     This program is part of the open-source Quantum ESPRESSO suite
     for quantum simulation of materials; please cite
         "P. Giannozzi et al., J. Phys.:Condens. Matter 21 395502 (2009);
         "P. Giannozzi et al., J. Phys.:Condens. Matter 29 465901 (2017);
         "P. Giannozzi et al., J. Chem. Phys. 152 154105 (2020);
          URL http://www.quantum-espresso.org", 
     in publications or presentations arising from this work. More details at
     http://www.quantum-espresso.org/quote

     Parallel version (MPI), running on     8 processors

     MPI processes distributed on     1 nodes
     90785 MiB available memory on the printing compute node when the environment starts

     Reading input from /home/jvc/QEspresso7.2/ZnO_DataBase/scf_025_NOSYM.in/scf-6.55-1.68-0.25-1.in

     Current dimensions of program PWSCF are:
     Max number of different atomic species (ntypx) = 10
     Max number of k-points (npk) =  40000
     Max angular momentum in pseudopotentials (lmaxx) =  4
     file Zn.upf: wavefunction(s)  3D renormalized

     R & G space division:  proc/nbgrp/npool/nimage =       8
     Subspace diagonalization in iterative solution of the eigenvalue problem:
     a serial algorithm will be used


     Parallelization info
     --------------------
     sticks:   dense  smooth     PW     G-vecs:    dense   smooth      PW
     Min         147      72     23                 6576     2326     385
     Max         148      73     24                 6577     2335     388
     Sum        1177     583    187                52615    18665    3091

     Using Slab Decomposition



     bravais-lattice index     =            0
     lattice parameter (alat)  =       6.5496  a.u.
     unit-cell volume          =     389.3007 (a.u.)^3
     number of atoms/cell      =            4
     number of atomic types    =            2
     number of electrons       =        36.00
     number of Kohn-Sham states=           18
     kinetic-energy cutoff     =      50.0000  Ry
     charge density cutoff     =     400.0000  Ry
     scf convergence threshold =      1.0E-08
     mixing beta               =       0.3000
     number of iterations used =            8  plain     mixing
     Exchange-correlation= PBE
                           (   1   4   3   4   0   0   0)

     celldm(1)=   6.549551  celldm(2)=   0.000000  celldm(3)=   0.000000
     celldm(4)=   0.000000  celldm(5)=   0.000000  celldm(6)=   0.000000

     crystal axes: (cart. coord. in units of alat)
               a(1) = (   1.000000   0.000000   0.000000 )  
               a(2) = (  -0.500000   0.866025   0.000000 )  
               a(3) = (   0.000000   0.000000   1.600000 )  

     reciprocal axes: (cart. coord. in units 2 pi/alat)
               b(1) = (  1.000000  0.577350 -0.000000 )  
               b(2) = (  0.000000  1.154701  0.000000 )  
               b(3) = (  0.000000 -0.000000  0.625000 )  


     PseudoPot. # 1 for Zn read from file:
     ./pseudos/Zn.upf
     MD5 check sum: 7f56cabf9682ed8c977c2f7d0c5985c5
     Pseudo is Ultrasoft + core correction, Zval = 12.0
     Generated using &quot;atomic&quot; code by A. Dal Corso  v.6.2.2
     Using radial grid of 1201 points,  6 beta functions with: 
                l(1) =   0
                l(2) =   0
                l(3) =   1
                l(4) =   1
                l(5) =   2
                l(6) =   2
     Q(r) pseudized with 0 coefficients 


     PseudoPot. # 2 for O  read from file:
     ./pseudos/O.upf
     MD5 check sum: 91400c9766925bcf19f520983a725ff0
     Pseudo is Ultrasoft + core correction, Zval =  6.0
     Generated using &quot;atomic&quot; code by A. Dal Corso  v.6.3MaX
     Using radial grid of 1095 points,  4 beta functions with: 
                l(1) =   0
                l(2) =   0
                l(3) =   1
                l(4) =   1
     Q(r) pseudized with 0 coefficients 


     atomic species   valence    mass     pseudopotential
        Zn            12.00    63.38000     Zn( 1.00)
        O              6.00    15.99900     O ( 1.00)

     No symmetry found



   Cartesian axes

     site n.     atom                  positions (alat units)
         1           Zn  tau(   1) = (   0.6439205   0.2715312   0.5082057  )
         2           Zn  tau(   2) = (  -0.1731250   0.6845330  -0.2216893  )
         3           O   tau(   3) = (   0.8596210   0.0846218   1.3272233  )
         4           O   tau(   4) = (   0.1697134   0.5703047   0.9743329  )

     number of k points=   112

     Number of k-points >= 100: set verbosity='high' to print them.

     Dense  grid:    52615 G-vectors     FFT dimensions: (  45,  45,  72)

     Smooth grid:    18665 G-vectors     FFT dimensions: (  30,  30,  48)

     Estimated max dynamical RAM per process >      35.72 MB

     Estimated total dynamical RAM >     285.77 MB

     Check: negative core charge=   -0.000002

     Initial potential from superposition of free atoms

     starting charge      35.9925, renormalised to      36.0000
     Starting wfcs are   26 randomized atomic wfcs

     total cpu time spent up to now is        4.6 secs

     Self-consistent Calculation

     iteration #  1     ecut=    50.00 Ry     beta= 0.30
     Davidson diagonalization with overlap
     ethr =  1.00E-02,  avg # of iterations =  1.9

     total cpu time spent up to now is       10.2 secs

     total energy              =    -360.77070285 Ry
     estimated scf accuracy    <       1.40163197 Ry

     iteration #  2     ecut=    50.00 Ry     beta= 0.30
     Davidson diagonalization with overlap
     ethr =  3.89E-03,  avg # of iterations =  6.7

     total cpu time spent up to now is       18.8 secs

     total energy              =    -361.18776283 Ry
     estimated scf accuracy    <       0.38951428 Ry

     iteration #  3     ecut=    50.00 Ry     beta= 0.30
     Davidson diagonalization with overlap
     ethr =  1.08E-03,  avg # of iterations =  2.5

     total cpu time spent up to now is       24.8 secs

     total energy              =    -361.11019003 Ry
     estimated scf accuracy    <       0.19701085 Ry

     iteration #  4     ecut=    50.00 Ry     beta= 0.30
     Davidson diagonalization with overlap
     ethr =  5.47E-04,  avg # of iterations = 10.7

     total cpu time spent up to now is       36.1 secs

     total energy              =    -361.22108084 Ry
     estimated scf accuracy    <       0.52203107 Ry

     iteration #  5     ecut=    50.00 Ry     beta= 0.30
     Davidson diagonalization with overlap
     ethr =  5.47E-04,  avg # of iterations =  2.3

     total cpu time spent up to now is       41.9 secs

     total energy              =    -361.11005955 Ry
     estimated scf accuracy    <       0.27839083 Ry

     iteration #  6     ecut=    50.00 Ry     beta= 0.30
     Davidson diagonalization with overlap
     ethr =  5.47E-04,  avg # of iterations =  9.5

     total cpu time spent up to now is       53.0 secs

     total energy              =    -361.25944677 Ry
     estimated scf accuracy    <       0.33031788 Ry

     iteration #  7     ecut=    50.00 Ry     beta= 0.30
     Davidson diagonalization with overlap
     ethr =  5.47E-04,  avg # of iterations =  1.2

     total cpu time spent up to now is       58.3 secs

     total energy              =    -361.18196625 Ry
     estimated scf accuracy    <       0.25184348 Ry

     iteration #  8     ecut=    50.00 Ry     beta= 0.30
     Davidson diagonalization with overlap
     ethr =  5.47E-04,  avg # of iterations =  5.4

     total cpu time spent up to now is       65.9 secs

     total energy              =    -361.23243468 Ry
     estimated scf accuracy    <       0.00109145 Ry

     iteration #  9     ecut=    50.00 Ry     beta= 0.30
     Davidson diagonalization with overlap
     c_bands:  1 eigenvalues not converged
     c_bands:  3 eigenvalues not converged
     c_bands:  1 eigenvalues not converged
     c_bands:  1 eigenvalues not converged
     c_bands:  1 eigenvalues not converged
     c_bands:  1 eigenvalues not converged
     c_bands:  3 eigenvalues not converged
     c_bands:  4 eigenvalues not converged
     c_bands:  1 eigenvalues not converged
     c_bands:  1 eigenvalues not converged
     c_bands:  1 eigenvalues not converged
     c_bands:  1 eigenvalues not converged
     c_bands:  2 eigenvalues not converged
     c_bands:  2 eigenvalues not converged
     c_bands:  1 eigenvalues not converged
     c_bands:  1 eigenvalues not converged
     c_bands:  1 eigenvalues not converged
     c_bands:  1 eigenvalues not converged
     c_bands:  2 eigenvalues not converged
     c_bands:  3 eigenvalues not converged
     c_bands:  3 eigenvalues not converged
     c_bands:  1 eigenvalues not converged
     c_bands:  1 eigenvalues not converged
     c_bands:  1 eigenvalues not converged
     c_bands:  1 eigenvalues not converged
     c_bands:  1 eigenvalues not converged
     c_bands:  1 eigenvalues not converged
     ethr =  3.03E-06,  avg # of iterations = 15.3

     total cpu time spent up to now is       87.3 secs

     total energy              =    -361.24287661 Ry
     estimated scf accuracy    <       0.02327161 Ry

     iteration # 10     ecut=    50.00 Ry     beta= 0.30
     Davidson diagonalization with overlap
     ethr =  3.03E-06,  avg # of iterations =  4.6

     total cpu time spent up to now is       94.0 secs

     total energy              =    -361.24159906 Ry
     estimated scf accuracy    <       0.01738926 Ry

     iteration # 11     ecut=    50.00 Ry     beta= 0.30
     Davidson diagonalization with overlap
     ethr =  3.03E-06,  avg # of iterations =  6.1

     total cpu time spent up to now is      102.4 secs

     total energy              =    -361.24137014 Ry
     estimated scf accuracy    <       0.00760943 Ry

     iteration # 12     ecut=    50.00 Ry     beta= 0.30
     Davidson diagonalization with overlap
     ethr =  3.03E-06,  avg # of iterations =  3.3

     total cpu time spent up to now is      109.2 secs

     total energy              =    -361.23965567 Ry
     estimated scf accuracy    <       0.00454843 Ry

     iteration # 13     ecut=    50.00 Ry     beta= 0.30
     Davidson diagonalization with overlap
     c_bands:  1 eigenvalues not converged
     c_bands:  1 eigenvalues not converged
     c_bands:  1 eigenvalues not converged
     c_bands:  1 eigenvalues not converged
     c_bands:  1 eigenvalues not converged
     c_bands:  1 eigenvalues not converged
     c_bands:  1 eigenvalues not converged
     c_bands:  1 eigenvalues not converged
     ethr =  3.03E-06,  avg # of iterations = 13.7

     total cpu time spent up to now is      125.1 secs

     total energy              =    -361.24172953 Ry
     estimated scf accuracy    <       0.00575001 Ry

     iteration # 14     ecut=    50.00 Ry     beta= 0.30
     Davidson diagonalization with overlap
     ethr =  3.03E-06,  avg # of iterations =  1.9

     total cpu time spent up to now is      130.7 secs

     total energy              =    -361.24228108 Ry
     estimated scf accuracy    <       0.00478269 Ry

     iteration # 15     ecut=    50.00 Ry     beta= 0.30
     Davidson diagonalization with overlap
     ethr =  3.03E-06,  avg # of iterations =  1.1

     total cpu time spent up to now is      135.9 secs

     total energy              =    -361.24001599 Ry
     estimated scf accuracy    <       0.00568576 Ry

     iteration # 16     ecut=    50.00 Ry     beta= 0.30
     Davidson diagonalization with overlap
     c_bands:  1 eigenvalues not converged
     ethr =  3.03E-06,  avg # of iterations = 10.2

     total cpu time spent up to now is      149.2 secs

     total energy              =    -361.24130503 Ry
     estimated scf accuracy    <       0.00112550 Ry

     iteration # 17     ecut=    50.00 Ry     beta= 0.30
     Davidson diagonalization with overlap
     ethr =  3.03E-06,  avg # of iterations =  1.5

     total cpu time spent up to now is      154.7 secs

     total energy              =    -361.24122222 Ry
     estimated scf accuracy    <       0.00067300 Ry

     iteration # 18     ecut=    50.00 Ry     beta= 0.30
     Davidson diagonalization with overlap
     c_bands:  1 eigenvalues not converged
     ethr =  1.87E-06,  avg # of iterations =  7.3

     total cpu time spent up to now is      163.9 secs

     total energy              =    -361.24142334 Ry
     estimated scf accuracy    <       0.00129470 Ry

     iteration # 19     ecut=    50.00 Ry     beta= 0.30
     Davidson diagonalization with overlap
     ethr =  1.87E-06,  avg # of iterations =  1.1

     total cpu time spent up to now is      169.2 secs

     total energy              =    -361.24111774 Ry
     estimated scf accuracy    <       0.00100430 Ry

     iteration # 20     ecut=    50.00 Ry     beta= 0.30
     Davidson diagonalization with overlap
     ethr =  1.87E-06,  avg # of iterations =  6.2

     total cpu time spent up to now is      177.3 secs

     total energy              =    -361.24135169 Ry
     estimated scf accuracy    <       0.00004803 Ry

     iteration # 21     ecut=    50.00 Ry     beta= 0.30
     Davidson diagonalization with overlap
     c_bands:  1 eigenvalues not converged
     ethr =  1.33E-07,  avg # of iterations =  7.6

     total cpu time spent up to now is      187.1 secs

     total energy              =    -361.24134000 Ry
     estimated scf accuracy    <       0.00013363 Ry

     iteration # 22     ecut=    50.00 Ry     beta= 0.30
     Davidson diagonalization with overlap
     c_bands:  1 eigenvalues not converged
     c_bands:  1 eigenvalues not converged
     c_bands:  1 eigenvalues not converged
     c_bands:  1 eigenvalues not converged
     ethr =  1.33E-07,  avg # of iterations =  9.2

     total cpu time spent up to now is      197.5 secs

     total energy              =    -361.24136813 Ry
     estimated scf accuracy    <       0.00008266 Ry

     iteration # 23     ecut=    50.00 Ry     beta= 0.30
     Davidson diagonalization with overlap
     ethr =  1.33E-07,  avg # of iterations =  1.8

     total cpu time spent up to now is      203.2 secs

     total energy              =    -361.24135414 Ry
     estimated scf accuracy    <       0.00005150 Ry

     iteration # 24     ecut=    50.00 Ry     beta= 0.30
     Davidson diagonalization with overlap
     ethr =  1.33E-07,  avg # of iterations =  6.8

     total cpu time spent up to now is      211.8 secs

     total energy              =    -361.24136656 Ry
     estimated scf accuracy    <       0.00001001 Ry

     iteration # 25     ecut=    50.00 Ry     beta= 0.30
     Davidson diagonalization with overlap
     c_bands:  1 eigenvalues not converged
     ethr =  2.78E-08,  avg # of iterations =  6.9

     total cpu time spent up to now is      221.0 secs

     total energy              =    -361.24136982 Ry
     estimated scf accuracy    <       0.00000630 Ry

     iteration # 26     ecut=    50.00 Ry     beta= 0.30
     Davidson diagonalization with overlap
     ethr =  1.75E-08,  avg # of iterations =  3.4

     total cpu time spent up to now is      227.2 secs

     total energy              =    -361.24136996 Ry
     estimated scf accuracy    <       0.00000176 Ry

     iteration # 27     ecut=    50.00 Ry     beta= 0.30
     Davidson diagonalization with overlap
     c_bands:  1 eigenvalues not converged
     ethr =  4.89E-09,  avg # of iterations =  7.5

     total cpu time spent up to now is      236.3 secs

     total energy              =    -361.24137074 Ry
     estimated scf accuracy    <       0.00000072 Ry

     iteration # 28     ecut=    50.00 Ry     beta= 0.30
     Davidson diagonalization with overlap
     c_bands:  1 eigenvalues not converged
     c_bands:  1 eigenvalues not converged
     ethr =  2.01E-09,  avg # of iterations =  3.9

     total cpu time spent up to now is      242.7 secs

     total energy              =    -361.24137087 Ry
     estimated scf accuracy    <       0.00000022 Ry

     iteration # 29     ecut=    50.00 Ry     beta= 0.30
     Davidson diagonalization with overlap
     c_bands:  1 eigenvalues not converged
     ethr =  6.22E-10,  avg # of iterations =  3.9

     total cpu time spent up to now is      249.3 secs

     total energy              =    -361.24137089 Ry
     estimated scf accuracy    <       0.00000018 Ry

     iteration # 30     ecut=    50.00 Ry     beta= 0.30
     Davidson diagonalization with overlap
     ethr =  5.11E-10,  avg # of iterations =  4.5

     total cpu time spent up to now is      256.7 secs

     total energy              =    -361.24137087 Ry
     estimated scf accuracy    <       0.00000018 Ry

     iteration # 31     ecut=    50.00 Ry     beta= 0.30
     Davidson diagonalization with overlap
     ethr =  4.93E-10,  avg # of iterations =  2.4

     total cpu time spent up to now is      262.7 secs

     total energy              =    -361.24137086 Ry
     estimated scf accuracy    <       0.00000006 Ry

     iteration # 32     ecut=    50.00 Ry     beta= 0.30
     Davidson diagonalization with overlap
     c_bands:  1 eigenvalues not converged
     ethr =  1.74E-10,  avg # of iterations =  9.4

     total cpu time spent up to now is      274.0 secs

     total energy              =    -361.24137091 Ry
     estimated scf accuracy    <       0.00000012 Ry

     iteration # 33     ecut=    50.00 Ry     beta= 0.30
     Davidson diagonalization with overlap
     ethr =  1.74E-10,  avg # of iterations =  1.2

     total cpu time spent up to now is      279.4 secs

     total energy              =    -361.24137088 Ry
     estimated scf accuracy    <       0.00000008 Ry

     iteration # 34     ecut=    50.00 Ry     beta= 0.30
     Davidson diagonalization with overlap
     ethr =  1.74E-10,  avg # of iterations =  6.8

     total cpu time spent up to now is      288.8 secs

     total energy              =    -361.24137091 Ry
     estimated scf accuracy    <       0.00000002 Ry

     iteration # 35     ecut=    50.00 Ry     beta= 0.30
     Davidson diagonalization with overlap
     ethr =  5.36E-11,  avg # of iterations =  2.6

     total cpu time spent up to now is      294.9 secs

     total energy              =    -361.24137091 Ry
     estimated scf accuracy    <       0.00000003 Ry

     iteration # 36     ecut=    50.00 Ry     beta= 0.30
     Davidson diagonalization with overlap
     ethr =  5.36E-11,  avg # of iterations =  2.1

     total cpu time spent up to now is      300.8 secs

     total energy              =    -361.24137090 Ry
     estimated scf accuracy    <       0.00000001 Ry

     iteration # 37     ecut=    50.00 Ry     beta= 0.30
     Davidson diagonalization with overlap
     ethr =  3.53E-11,  avg # of iterations =  4.3

     total cpu time spent up to now is      308.0 secs

     End of self-consistent calculation

     Number of k-points >= 100: set verbosity='high' to print the bands.

     highest occupied level (ev):     6.1074

!    total energy              =    -361.24137091 Ry
     estimated scf accuracy    <          1.1E-09 Ry

     The total energy is the sum of the following terms:
     one-electron contribution =    -179.00299400 Ry
     hartree contribution      =     127.61552769 Ry
     xc contribution           =    -109.01806352 Ry
     ewald contribution        =    -200.83584108 Ry

     convergence has been achieved in  37 iterations

     Forces acting on atoms (cartesian axes, Ry/au):

     atom    1 type  1   force =     0.00581218   -0.00636926    0.04375933
     atom    2 type  1   force =    -0.00662768   -0.01221993    0.02018274
     atom    3 type  2   force =    -0.02712188    0.02373567    0.09924479
     atom    4 type  2   force =     0.02793738   -0.00514648   -0.16318686
     The non-local contrib.  to forces
     atom    1 type  1   force =    -0.06512661   -0.02919433    0.02837519
     atom    2 type  1   force =     0.00102622   -0.01866688    0.38401614
     atom    3 type  2   force =     0.17277437   -0.28943598    0.45118286
     atom    4 type  2   force =    -0.23750606    0.26556905   -0.03546930
     The ionic contribution  to forces
     atom    1 type  1   force =    -0.29858211    0.03020261   -3.46054376
     atom    2 type  1   force =    -1.55066925    0.56030062    9.36872606
     atom    3 type  2   force =    -0.59156921    1.74268188    2.26748385
     atom    4 type  2   force =     2.44082057   -2.33318511   -8.17566614
     The local contribution  to forces
     atom    1 type  1   force =     0.36768220   -0.00782916    3.47421663
     atom    2 type  1   force =     1.54245839   -0.55719366   -9.70195707
     atom    3 type  2   force =     0.39319259   -1.43208104   -2.61478560
     atom    4 type  2   force =    -2.17702875    2.06471805    8.04637340
     The core correction contribution to forces
     atom    1 type  1   force =     0.00183770    0.00044651    0.00175383
     atom    2 type  1   force =     0.00057353    0.00333481   -0.03067372
     atom    3 type  2   force =    -0.00152467    0.00256018   -0.00466921
     atom    4 type  2   force =     0.00164900   -0.00224436    0.00161334
     The Hubbard contrib.    to forces
     atom    1 type  1   force =     0.00000000    0.00000000    0.00000000
     atom    2 type  1   force =     0.00000000    0.00000000    0.00000000
     atom    3 type  2   force =     0.00000000    0.00000000    0.00000000
     atom    4 type  2   force =     0.00000000    0.00000000    0.00000000
     The SCF correction term to forces
     atom    1 type  1   force =    -0.00000110    0.00000561   -0.00004476
     atom    2 type  1   force =    -0.00001866    0.00000567    0.00006913
     atom    3 type  2   force =     0.00000295    0.00001113    0.00003068
     atom    4 type  2   force =     0.00000052   -0.00000360   -0.00004037

     Total force =     0.202917     Total SCF correction =     0.000100

     Writing all to output data dir ./ZnO_ANN.save/

     init_run     :      4.04s CPU      4.14s WALL (       1 calls)
     electrons    :    298.48s CPU    303.46s WALL (       1 calls)
     forces       :      1.40s CPU      1.42s WALL (       1 calls)

     Called by init_run:
     wfcinit      :      2.91s CPU      2.95s WALL (       1 calls)
     potinit      :      0.39s CPU      0.39s WALL (       1 calls)
     hinit0       :      0.66s CPU      0.68s WALL (       1 calls)

     Called by electrons:
     c_bands      :    264.28s CPU    268.55s WALL (      37 calls)
     sum_band     :     30.74s CPU     31.36s WALL (      37 calls)
     v_of_rho     :      0.74s CPU      0.79s WALL (      38 calls)
     newd         :      2.60s CPU      2.63s WALL (      38 calls)
     mix_rho      :      0.12s CPU      0.14s WALL (      37 calls)

     Called by c_bands:
     init_us_2    :      2.29s CPU      2.33s WALL (    8512 calls)
     init_us_2:cp :      2.26s CPU      2.30s WALL (    8512 calls)
     cegterg      :    256.99s CPU    261.14s WALL (    4144 calls)

     Called by *egterg:
     cdiaghg      :     28.27s CPU     28.51s WALL (   26156 calls)
     h_psi        :    150.48s CPU    153.56s WALL (   26268 calls)
     s_psi        :     18.97s CPU     19.13s WALL (   26268 calls)
     g_psi        :      0.51s CPU      0.51s WALL (   22012 calls)

     Called by h_psi:
     h_psi:calbec :     20.70s CPU     21.32s WALL (   26268 calls)
     vloc_psi     :    110.27s CPU    112.56s WALL (   26268 calls)
     add_vuspsi   :     18.99s CPU     19.16s WALL (   26268 calls)

     General routines
     calbec       :     28.09s CPU     28.90s WALL (   30860 calls)
     fft          :      0.89s CPU      0.97s WALL (     503 calls)
     ffts         :      0.16s CPU      0.17s WALL (      75 calls)
     fftw         :    112.56s CPU    114.89s WALL (  518352 calls)
     interpolate  :      0.19s CPU      0.20s WALL (      38 calls)

     Parallel routines

     PWSCF        :   5m 4.66s CPU   5m10.06s WALL


   This run was terminated on:  19:26:45  24Jun2025            

=------------------------------------------------------------------------------=
   JOB DONE.
=------------------------------------------------------------------------------=
Note: The following floating-point exceptions are signalling: IEEE_INVALID_FLAG
