phonopy:
  version: "2.41.0"
  calculator: qe
  frequency_unit_conversion_factor: 15.633302
  symmetry_tolerance: 1.00000e-05
  configuration:
    cell_filename: "../ZnO.in"
    create_displacements: ".true."
    dim: "1 2 1"
    calculator: "qe"

physical_unit:
  atomic_mass: "AMU"
  length: "au"

space_group:
  type: "P6_3mc"
  number: 186
  Hall_symbol: "P 6c -2c"

supercell_matrix:
- [   1,   0,   0 ]
- [   0,   2,   0 ]
- [   0,   0,   1 ]

primitive_cell:
  lattice:
  - [     6.178821893930327,     0.000000000000000,     0.000000000000000 ] # a
  - [    -3.089410946020300,     5.351016726106737,     0.000000000000000 ] # b
  - [     0.000000000000000,     0.000000000000000,     9.974832755355598 ] # c
  points:
  - symbol: Zn # 1
    coordinates: [  0.666666666700000,  0.333333333300000,  0.500633585400000 ]
    mass: 65.380000
  - symbol: Zn # 2
    coordinates: [  0.333333333300000,  0.666666666700000,  0.000633585400000 ]
    mass: 65.380000
  - symbol: O # 3
    coordinates: [  0.666666666700000,  0.333333333300000,  0.879676414600000 ]
    mass: 15.999400
  - symbol: O # 4
    coordinates: [  0.333333333300000,  0.666666666700000,  0.379676414600000 ]
    mass: 15.999400
  reciprocal_lattice: # without 2pi
  - [     0.161843150226152,     0.093440186312194,     0.000000000000000 ] # a*
  - [     0.000000000000000,     0.186880372681544,     0.000000000000000 ] # b*
  - [     0.000000000000000,     0.000000000000000,     0.100252307434738 ] # c*

unit_cell:
  lattice:
  - [     6.178821893930327,     0.000000000000000,     0.000000000000000 ] # a
  - [    -3.089410946020300,     5.351016726106737,     0.000000000000000 ] # b
  - [     0.000000000000000,     0.000000000000000,     9.974832755355598 ] # c
  points:
  - symbol: Zn # 1
    coordinates: [  0.666666666700000,  0.333333333300000,  0.500633585400000 ]
    mass: 65.380000
    reduced_to: 1
  - symbol: Zn # 2
    coordinates: [  0.333333333300000,  0.666666666700000,  0.000633585400000 ]
    mass: 65.380000
    reduced_to: 2
  - symbol: O # 3
    coordinates: [  0.666666666700000,  0.333333333300000,  0.879676414600000 ]
    mass: 15.999400
    reduced_to: 3
  - symbol: O # 4
    coordinates: [  0.333333333300000,  0.666666666700000,  0.379676414600000 ]
    mass: 15.999400
    reduced_to: 4

supercell:
  lattice:
  - [     6.178821893930327,     0.000000000000000,     0.000000000000000 ] # a
  - [    -6.178821892040601,    10.702033452213474,     0.000000000000000 ] # b
  - [     0.000000000000000,     0.000000000000000,     9.974832755355598 ] # c
  points:
  - symbol: Zn # 1
    coordinates: [  0.666666666700000,  0.166666666650000,  0.500633585400000 ]
    mass: 65.380000
    reduced_to: 1
  - symbol: Zn # 2
    coordinates: [  0.666666666700000,  0.666666666650000,  0.500633585400000 ]
    mass: 65.380000
    reduced_to: 1
  - symbol: Zn # 3
    coordinates: [  0.333333333300000,  0.333333333350000,  0.000633585400000 ]
    mass: 65.380000
    reduced_to: 3
  - symbol: Zn # 4
    coordinates: [  0.333333333300000,  0.833333333350000,  0.000633585400000 ]
    mass: 65.380000
    reduced_to: 3
  - symbol: O # 5
    coordinates: [  0.666666666700000,  0.166666666650000,  0.879676414600000 ]
    mass: 15.999400
    reduced_to: 5
  - symbol: O # 6
    coordinates: [  0.666666666700000,  0.666666666650000,  0.879676414600000 ]
    mass: 15.999400
    reduced_to: 5
  - symbol: O # 7
    coordinates: [  0.333333333300000,  0.333333333350000,  0.379676414600000 ]
    mass: 15.999400
    reduced_to: 7
  - symbol: O # 8
    coordinates: [  0.333333333300000,  0.833333333350000,  0.379676414600000 ]
    mass: 15.999400
    reduced_to: 7

displacements:
- atom:    1
  displacement:
    [  -0.0099999999970004,  0.0173205080774206,  0.0000000000000000 ]
- atom:    1
  displacement:
    [   0.0099999999970004, -0.0173205080774206,  0.0000000000000000 ]
- atom:    1
  displacement:
    [   0.0000000000000000,  0.0000000000000000,  0.0200000000000000 ]
- atom:    1
  displacement:
    [   0.0000000000000000,  0.0000000000000000, -0.0200000000000000 ]
- atom:    5
  displacement:
    [  -0.0099999999970004,  0.0173205080774206,  0.0000000000000000 ]
- atom:    5
  displacement:
    [   0.0099999999970004, -0.0173205080774206,  0.0000000000000000 ]
- atom:    5
  displacement:
    [   0.0000000000000000,  0.0000000000000000,  0.0200000000000000 ]
- atom:    5
  displacement:
    [   0.0000000000000000,  0.0000000000000000, -0.0200000000000000 ]
