
     Program PWSCF v.7.2 starts on 21May2025 at 18:44:23 

     This program is part of the open-source Quantum ESPRESSO suite
     for quantum simulation of materials; please cite
         "P. Giannozzi et al., J. Phys.:Condens. Matter 21 395502 (2009);
         "P. Giannozzi et al., J. Phys.:Condens. Matter 29 465901 (2017);
         "P. Giannozzi et al., J. Chem. Phys. 152 154105 (2020);
          URL http://www.quantum-espresso.org", 
     in publications or presentations arising from this work. More details at
     http://www.quantum-espresso.org/quote

     Parallel version (MPI), running on    64 processors

     MPI processes distributed on     1 nodes
     100764 MiB available memory on the printing compute node when the environment starts

     Reading input from kpoint.30.in

     Current dimensions of program PWSCF are:
     Max number of different atomic species (ntypx) = 10
     Max number of k-points (npk) =  40000
     Max angular momentum in pseudopotentials (lmaxx) =  4
     file Zn.upf: wavefunction(s)  3D renormalized

     K-points division:     npool     =       4
     R & G space division:  proc/nbgrp/npool/nimage =      16
     Subspace diagonalization in iterative solution of the eigenvalue problem:
     a serial algorithm will be used


     Parallelization info
     --------------------
     sticks:   dense  smooth     PW     G-vecs:    dense   smooth      PW
     Min          57      46     13                 2293     1644     261
     Max          58      47     14                 2300     1651     268
     Sum         925     745    211                36755    26357    4235

     Using Slab Decomposition



     bravais-lattice index     =            4
     lattice parameter (alat)  =       6.1946  a.u.
     unit-cell volume          =     332.3260 (a.u.)^3
     number of atoms/cell      =            4
     number of atomic types    =            2
     number of electrons       =        36.00
     number of Kohn-Sham states=           72
     kinetic-energy cutoff     =      70.0000  Ry
     charge density cutoff     =     350.0000  Ry
     scf convergence threshold =      1.0E-09
     mixing beta               =       0.1000
     number of iterations used =            8  local-TF  mixing
     Exchange-correlation= PBE
                           (   1   4   3   4   0   0   0)

     celldm(1)=   6.194571  celldm(2)=   0.000000  celldm(3)=   1.614358
     celldm(4)=   0.000000  celldm(5)=   0.000000  celldm(6)=   0.000000

     crystal axes: (cart. coord. in units of alat)
               a(1) = (   1.000000   0.000000   0.000000 )  
               a(2) = (  -0.500000   0.866025   0.000000 )  
               a(3) = (   0.000000   0.000000   1.614358 )  

     reciprocal axes: (cart. coord. in units 2 pi/alat)
               b(1) = (  1.000000  0.577350 -0.000000 )  
               b(2) = (  0.000000  1.154701  0.000000 )  
               b(3) = (  0.000000 -0.000000  0.619441 )  


     PseudoPot. # 1 for Zn read from file:
     ../pseudos/Zn.upf
     MD5 check sum: 7f56cabf9682ed8c977c2f7d0c5985c5
     Pseudo is Ultrasoft + core correction, Zval = 12.0
     Generated using &quot;atomic&quot; code by A. Dal Corso  v.6.2.2
     Using radial grid of 1201 points,  6 beta functions with: 
                l(1) =   0
                l(2) =   0
                l(3) =   1
                l(4) =   1
                l(5) =   2
                l(6) =   2
     Q(r) pseudized with 0 coefficients 


     PseudoPot. # 2 for O  read from file:
     ../pseudos/O.upf
     MD5 check sum: 91400c9766925bcf19f520983a725ff0
     Pseudo is Ultrasoft + core correction, Zval =  6.0
     Generated using &quot;atomic&quot; code by A. Dal Corso  v.6.3MaX
     Using radial grid of 1095 points,  4 beta functions with: 
                l(1) =   0
                l(2) =   0
                l(3) =   1
                l(4) =   1
     Q(r) pseudized with 0 coefficients 


     atomic species   valence    mass     pseudopotential
        Zn            12.00    63.38000     Zn( 1.00)
        O              6.00    15.99900     O ( 1.00)

     12 Sym. Ops. (no inversion) found ( 6 have fractional translation)


                                    s                        frac. trans.

      isym =  1     identity                                     

 cryst.   s( 1) = (     1          0          0      )
                  (     0          1          0      )
                  (     0          0          1      )

 cart.    s( 1) = (  1.0000000  0.0000000  0.0000000 )
                  (  0.0000000  1.0000000  0.0000000 )
                  (  0.0000000  0.0000000  1.0000000 )


      isym =  2     180 deg rotation - cart. axis [0,0,1]        

 cryst.   s( 2) = (    -1          0          0      )    f =(  0.0000000 )
                  (     0         -1          0      )       (  0.0000000 )
                  (     0          0          1      )       (  0.5000000 )

 cart.    s( 2) = ( -1.0000000  0.0000000  0.0000000 )    f =(  0.0000000 )
                  (  0.0000000 -1.0000000  0.0000000 )       (  0.0000000 )
                  (  0.0000000  0.0000000  1.0000000 )       (  0.8071792 )


      isym =  3      60 deg rotation - cryst. axis [0,0,1]       

 cryst.   s( 3) = (     1          1          0      )    f =( -0.0000000 )
                  (    -1          0          0      )       (  0.0000000 )
                  (     0          0          1      )       (  0.5000000 )

 cart.    s( 3) = (  0.5000000 -0.8660254  0.0000000 )    f =( -0.0000000 )
                  (  0.8660254  0.5000000  0.0000000 )       (  0.0000000 )
                  (  0.0000000  0.0000000  1.0000000 )       (  0.8071792 )


      isym =  4      60 deg rotation - cryst. axis [0,0,-1]      

 cryst.   s( 4) = (     0         -1          0      )    f =(  0.0000000 )
                  (     1          1          0      )       (  0.0000000 )
                  (     0          0          1      )       (  0.5000000 )

 cart.    s( 4) = (  0.5000000  0.8660254  0.0000000 )    f =( -0.0000000 )
                  ( -0.8660254  0.5000000  0.0000000 )       (  0.0000000 )
                  (  0.0000000  0.0000000  1.0000000 )       (  0.8071792 )


      isym =  5     120 deg rotation - cryst. axis [0,0,1]       

 cryst.   s( 5) = (     0          1          0      )
                  (    -1         -1          0      )
                  (     0          0          1      )

 cart.    s( 5) = ( -0.5000000 -0.8660254  0.0000000 )
                  (  0.8660254 -0.5000000  0.0000000 )
                  (  0.0000000  0.0000000  1.0000000 )


      isym =  6     120 deg rotation - cryst. axis [0,0,-1]      

 cryst.   s( 6) = (    -1         -1          0      )
                  (     1          0          0      )
                  (     0          0          1      )

 cart.    s( 6) = ( -0.5000000  0.8660254  0.0000000 )
                  ( -0.8660254 -0.5000000  0.0000000 )
                  (  0.0000000  0.0000000  1.0000000 )


      isym =  7     inv. 180 deg rotation - cart. axis [0,1,0]   

 cryst.   s( 7) = (     1          0          0      )    f =( -0.0000000 )
                  (    -1         -1          0      )       (  0.0000000 )
                  (     0          0          1      )       (  0.5000000 )

 cart.    s( 7) = (  1.0000000  0.0000000  0.0000000 )    f =( -0.0000000 )
                  (  0.0000000 -1.0000000  0.0000000 )       (  0.0000000 )
                  (  0.0000000  0.0000000  1.0000000 )       (  0.8071792 )


      isym =  8     inv. 180 deg rotation - cart. axis [1,0,0]   

 cryst.   s( 8) = (    -1          0          0      )
                  (     1          1          0      )
                  (     0          0          1      )

 cart.    s( 8) = ( -1.0000000  0.0000000  0.0000000 )
                  (  0.0000000  1.0000000  0.0000000 )
                  (  0.0000000  0.0000000  1.0000000 )


      isym =  9     inv. 180 deg rotation - cryst. axis [1,-1,0] 

 cryst.   s( 9) = (     0          1          0      )    f =(  0.0000000 )
                  (     1          0          0      )       (  0.0000000 )
                  (     0          0          1      )       (  0.5000000 )

 cart.    s( 9) = ( -0.5000000  0.8660254  0.0000000 )    f =(  0.0000000 )
                  (  0.8660254  0.5000000  0.0000000 )       (  0.0000000 )
                  (  0.0000000  0.0000000  1.0000000 )       (  0.8071792 )


      isym = 10     inv. 180 deg rotation - cryst. axis [2,1,0]  

 cryst.   s(10) = (    -1         -1          0      )    f =(  0.0000000 )
                  (     0          1          0      )       (  0.0000000 )
                  (     0          0          1      )       (  0.5000000 )

 cart.    s(10) = ( -0.5000000 -0.8660254  0.0000000 )    f =( -0.0000000 )
                  ( -0.8660254  0.5000000  0.0000000 )       (  0.0000000 )
                  (  0.0000000  0.0000000  1.0000000 )       (  0.8071792 )


      isym = 11     inv. 180 deg rotation - cryst. axis [0,1,0]  

 cryst.   s(11) = (     1          1          0      )
                  (     0         -1          0      )
                  (     0          0          1      )

 cart.    s(11) = (  0.5000000  0.8660254  0.0000000 )
                  (  0.8660254 -0.5000000  0.0000000 )
                  (  0.0000000  0.0000000  1.0000000 )


      isym = 12     inv. 180 deg rotation - cryst. axis [1,1,0]  

 cryst.   s(12) = (     0         -1          0      )
                  (    -1          0          0      )
                  (     0          0          1      )

 cart.    s(12) = (  0.5000000 -0.8660254  0.0000000 )
                  ( -0.8660254 -0.5000000  0.0000000 )
                  (  0.0000000  0.0000000  1.0000000 )


     point group C_6v (6mm) 
     there are  6 classes
     the character table:

       E     2C6   2C3   C2    3s_v  3s_d 
A_1    1.00  1.00  1.00  1.00  1.00  1.00
A_2    1.00  1.00  1.00  1.00 -1.00 -1.00
B_1    1.00 -1.00  1.00 -1.00  1.00 -1.00
B_2    1.00 -1.00  1.00 -1.00 -1.00  1.00
E_1    2.00  1.00 -1.00 -2.00  0.00  0.00
E_2    2.00 -1.00 -1.00  2.00  0.00  0.00

     the symmetry operations in each class and the name of the first element:

     E        1
          identity                                               
     2C6      3    4
           60 deg rotation - cryst. axis [0,0,1]                 
     2C3      5    6
          120 deg rotation - cryst. axis [0,0,1]                 
     C2       2
          180 deg rotation - cart. axis [0,0,1]                  
     3s_v     8   12   11
          inv. 180 deg rotation - cart. axis [1,0,0]             
     3s_d     7    9   10
          inv. 180 deg rotation - cart. axis [0,1,0]             

   Cartesian axes

     site n.     atom                  positions (alat units)
         1           Zn  tau(   1) = (   0.5000000   0.2886751   0.8082166  )
         2           Zn  tau(   2) = (  -0.0000000   0.5773503   0.0010374  )
         3           O   tau(   3) = (   0.5000000   0.2886751   1.4200984  )
         4           O   tau(   4) = (  -0.0000000   0.5773503   0.6129192  )

   Crystallographic axes

     site n.     atom                  positions (cryst. coord.)
         1           Zn  tau(   1) = (  0.6666667  0.3333333  0.5006426  )
         2           Zn  tau(   2) = (  0.3333333  0.6666667  0.0006426  )
         3           O   tau(   3) = (  0.6666667  0.3333333  0.8796674  )
         4           O   tau(   4) = (  0.3333333  0.6666667  0.3796674  )

     number of k points=  1456
                       cart. coord. in units 2pi/alat
        k(    1) = (   0.0000000   0.0000000   0.0000000), wk =   0.0000741
        k(    2) = (   0.0000000   0.0000000   0.0206480), wk =   0.0001481
        k(    3) = (   0.0000000   0.0000000   0.0412961), wk =   0.0001481
        k(    4) = (   0.0000000   0.0000000   0.0619441), wk =   0.0001481
        k(    5) = (   0.0000000   0.0000000   0.0825922), wk =   0.0001481
        k(    6) = (   0.0000000   0.0000000   0.1032402), wk =   0.0001481
        k(    7) = (   0.0000000   0.0000000   0.1238882), wk =   0.0001481
        k(    8) = (   0.0000000   0.0000000   0.1445363), wk =   0.0001481
        k(    9) = (   0.0000000   0.0000000   0.1651843), wk =   0.0001481
        k(   10) = (   0.0000000   0.0000000   0.1858323), wk =   0.0001481
        k(   11) = (   0.0000000   0.0000000   0.2064804), wk =   0.0001481
        k(   12) = (   0.0000000   0.0000000   0.2271284), wk =   0.0001481
        k(   13) = (   0.0000000   0.0000000   0.2477765), wk =   0.0001481
        k(   14) = (   0.0000000   0.0000000   0.2684245), wk =   0.0001481
        k(   15) = (   0.0000000   0.0000000   0.2890725), wk =   0.0001481
        k(   16) = (   0.0000000   0.0000000  -0.3097206), wk =   0.0000741
        k(   17) = (   0.0000000   0.0384900   0.0000000), wk =   0.0004444
        k(   18) = (   0.0000000   0.0384900   0.0206480), wk =   0.0008889
        k(   19) = (   0.0000000   0.0384900   0.0412961), wk =   0.0008889
        k(   20) = (   0.0000000   0.0384900   0.0619441), wk =   0.0008889
        k(   21) = (   0.0000000   0.0384900   0.0825922), wk =   0.0008889
        k(   22) = (   0.0000000   0.0384900   0.1032402), wk =   0.0008889
        k(   23) = (   0.0000000   0.0384900   0.1238882), wk =   0.0008889
        k(   24) = (   0.0000000   0.0384900   0.1445363), wk =   0.0008889
        k(   25) = (   0.0000000   0.0384900   0.1651843), wk =   0.0008889
        k(   26) = (   0.0000000   0.0384900   0.1858323), wk =   0.0008889
        k(   27) = (   0.0000000   0.0384900   0.2064804), wk =   0.0008889
        k(   28) = (   0.0000000   0.0384900   0.2271284), wk =   0.0008889
        k(   29) = (   0.0000000   0.0384900   0.2477765), wk =   0.0008889
        k(   30) = (   0.0000000   0.0384900   0.2684245), wk =   0.0008889
        k(   31) = (   0.0000000   0.0384900   0.2890725), wk =   0.0008889
        k(   32) = (   0.0000000   0.0384900  -0.3097206), wk =   0.0004444
        k(   33) = (   0.0000000   0.0769800   0.0000000), wk =   0.0004444
        k(   34) = (   0.0000000   0.0769800   0.0206480), wk =   0.0008889
        k(   35) = (   0.0000000   0.0769800   0.0412961), wk =   0.0008889
        k(   36) = (   0.0000000   0.0769800   0.0619441), wk =   0.0008889
        k(   37) = (   0.0000000   0.0769800   0.0825922), wk =   0.0008889
        k(   38) = (   0.0000000   0.0769800   0.1032402), wk =   0.0008889
        k(   39) = (   0.0000000   0.0769800   0.1238882), wk =   0.0008889
        k(   40) = (   0.0000000   0.0769800   0.1445363), wk =   0.0008889
        k(   41) = (   0.0000000   0.0769800   0.1651843), wk =   0.0008889
        k(   42) = (   0.0000000   0.0769800   0.1858323), wk =   0.0008889
        k(   43) = (   0.0000000   0.0769800   0.2064804), wk =   0.0008889
        k(   44) = (   0.0000000   0.0769800   0.2271284), wk =   0.0008889
        k(   45) = (   0.0000000   0.0769800   0.2477765), wk =   0.0008889
        k(   46) = (   0.0000000   0.0769800   0.2684245), wk =   0.0008889
        k(   47) = (   0.0000000   0.0769800   0.2890725), wk =   0.0008889
        k(   48) = (   0.0000000   0.0769800  -0.3097206), wk =   0.0004444
        k(   49) = (   0.0000000   0.1154701   0.0000000), wk =   0.0004444
        k(   50) = (   0.0000000   0.1154701   0.0206480), wk =   0.0008889
        k(   51) = (   0.0000000   0.1154701   0.0412961), wk =   0.0008889
        k(   52) = (   0.0000000   0.1154701   0.0619441), wk =   0.0008889
        k(   53) = (   0.0000000   0.1154701   0.0825922), wk =   0.0008889
        k(   54) = (   0.0000000   0.1154701   0.1032402), wk =   0.0008889
        k(   55) = (   0.0000000   0.1154701   0.1238882), wk =   0.0008889
        k(   56) = (   0.0000000   0.1154701   0.1445363), wk =   0.0008889
        k(   57) = (   0.0000000   0.1154701   0.1651843), wk =   0.0008889
        k(   58) = (   0.0000000   0.1154701   0.1858323), wk =   0.0008889
        k(   59) = (   0.0000000   0.1154701   0.2064804), wk =   0.0008889
        k(   60) = (   0.0000000   0.1154701   0.2271284), wk =   0.0008889
        k(   61) = (   0.0000000   0.1154701   0.2477765), wk =   0.0008889
        k(   62) = (   0.0000000   0.1154701   0.2684245), wk =   0.0008889
        k(   63) = (   0.0000000   0.1154701   0.2890725), wk =   0.0008889
        k(   64) = (   0.0000000   0.1154701  -0.3097206), wk =   0.0004444
        k(   65) = (   0.0000000   0.1539601   0.0000000), wk =   0.0004444
        k(   66) = (   0.0000000   0.1539601   0.0206480), wk =   0.0008889
        k(   67) = (   0.0000000   0.1539601   0.0412961), wk =   0.0008889
        k(   68) = (   0.0000000   0.1539601   0.0619441), wk =   0.0008889
        k(   69) = (   0.0000000   0.1539601   0.0825922), wk =   0.0008889
        k(   70) = (   0.0000000   0.1539601   0.1032402), wk =   0.0008889
        k(   71) = (   0.0000000   0.1539601   0.1238882), wk =   0.0008889
        k(   72) = (   0.0000000   0.1539601   0.1445363), wk =   0.0008889
        k(   73) = (   0.0000000   0.1539601   0.1651843), wk =   0.0008889
        k(   74) = (   0.0000000   0.1539601   0.1858323), wk =   0.0008889
        k(   75) = (   0.0000000   0.1539601   0.2064804), wk =   0.0008889
        k(   76) = (   0.0000000   0.1539601   0.2271284), wk =   0.0008889
        k(   77) = (   0.0000000   0.1539601   0.2477765), wk =   0.0008889
        k(   78) = (   0.0000000   0.1539601   0.2684245), wk =   0.0008889
        k(   79) = (   0.0000000   0.1539601   0.2890725), wk =   0.0008889
        k(   80) = (   0.0000000   0.1539601  -0.3097206), wk =   0.0004444
        k(   81) = (   0.0000000   0.1924501   0.0000000), wk =   0.0004444
        k(   82) = (   0.0000000   0.1924501   0.0206480), wk =   0.0008889
        k(   83) = (   0.0000000   0.1924501   0.0412961), wk =   0.0008889
        k(   84) = (   0.0000000   0.1924501   0.0619441), wk =   0.0008889
        k(   85) = (   0.0000000   0.1924501   0.0825922), wk =   0.0008889
        k(   86) = (   0.0000000   0.1924501   0.1032402), wk =   0.0008889
        k(   87) = (   0.0000000   0.1924501   0.1238882), wk =   0.0008889
        k(   88) = (   0.0000000   0.1924501   0.1445363), wk =   0.0008889
        k(   89) = (   0.0000000   0.1924501   0.1651843), wk =   0.0008889
        k(   90) = (   0.0000000   0.1924501   0.1858323), wk =   0.0008889
        k(   91) = (   0.0000000   0.1924501   0.2064804), wk =   0.0008889
        k(   92) = (   0.0000000   0.1924501   0.2271284), wk =   0.0008889
        k(   93) = (   0.0000000   0.1924501   0.2477765), wk =   0.0008889
        k(   94) = (   0.0000000   0.1924501   0.2684245), wk =   0.0008889
        k(   95) = (   0.0000000   0.1924501   0.2890725), wk =   0.0008889
        k(   96) = (   0.0000000   0.1924501  -0.3097206), wk =   0.0004444
        k(   97) = (   0.0000000   0.2309401   0.0000000), wk =   0.0004444
        k(   98) = (   0.0000000   0.2309401   0.0206480), wk =   0.0008889
        k(   99) = (   0.0000000   0.2309401   0.0412961), wk =   0.0008889
        k(  100) = (   0.0000000   0.2309401   0.0619441), wk =   0.0008889
        k(  101) = (   0.0000000   0.2309401   0.0825922), wk =   0.0008889
        k(  102) = (   0.0000000   0.2309401   0.1032402), wk =   0.0008889
        k(  103) = (   0.0000000   0.2309401   0.1238882), wk =   0.0008889
        k(  104) = (   0.0000000   0.2309401   0.1445363), wk =   0.0008889
        k(  105) = (   0.0000000   0.2309401   0.1651843), wk =   0.0008889
        k(  106) = (   0.0000000   0.2309401   0.1858323), wk =   0.0008889
        k(  107) = (   0.0000000   0.2309401   0.2064804), wk =   0.0008889
        k(  108) = (   0.0000000   0.2309401   0.2271284), wk =   0.0008889
        k(  109) = (   0.0000000   0.2309401   0.2477765), wk =   0.0008889
        k(  110) = (   0.0000000   0.2309401   0.2684245), wk =   0.0008889
        k(  111) = (   0.0000000   0.2309401   0.2890725), wk =   0.0008889
        k(  112) = (   0.0000000   0.2309401  -0.3097206), wk =   0.0004444
        k(  113) = (   0.0000000   0.2694301   0.0000000), wk =   0.0004444
        k(  114) = (   0.0000000   0.2694301   0.0206480), wk =   0.0008889
        k(  115) = (   0.0000000   0.2694301   0.0412961), wk =   0.0008889
        k(  116) = (   0.0000000   0.2694301   0.0619441), wk =   0.0008889
        k(  117) = (   0.0000000   0.2694301   0.0825922), wk =   0.0008889
        k(  118) = (   0.0000000   0.2694301   0.1032402), wk =   0.0008889
        k(  119) = (   0.0000000   0.2694301   0.1238882), wk =   0.0008889
        k(  120) = (   0.0000000   0.2694301   0.1445363), wk =   0.0008889
        k(  121) = (   0.0000000   0.2694301   0.1651843), wk =   0.0008889
        k(  122) = (   0.0000000   0.2694301   0.1858323), wk =   0.0008889
        k(  123) = (   0.0000000   0.2694301   0.2064804), wk =   0.0008889
        k(  124) = (   0.0000000   0.2694301   0.2271284), wk =   0.0008889
        k(  125) = (   0.0000000   0.2694301   0.2477765), wk =   0.0008889
        k(  126) = (   0.0000000   0.2694301   0.2684245), wk =   0.0008889
        k(  127) = (   0.0000000   0.2694301   0.2890725), wk =   0.0008889
        k(  128) = (   0.0000000   0.2694301  -0.3097206), wk =   0.0004444
        k(  129) = (   0.0000000   0.3079201   0.0000000), wk =   0.0004444
        k(  130) = (   0.0000000   0.3079201   0.0206480), wk =   0.0008889
        k(  131) = (   0.0000000   0.3079201   0.0412961), wk =   0.0008889
        k(  132) = (   0.0000000   0.3079201   0.0619441), wk =   0.0008889
        k(  133) = (   0.0000000   0.3079201   0.0825922), wk =   0.0008889
        k(  134) = (   0.0000000   0.3079201   0.1032402), wk =   0.0008889
        k(  135) = (   0.0000000   0.3079201   0.1238882), wk =   0.0008889
        k(  136) = (   0.0000000   0.3079201   0.1445363), wk =   0.0008889
        k(  137) = (   0.0000000   0.3079201   0.1651843), wk =   0.0008889
        k(  138) = (   0.0000000   0.3079201   0.1858323), wk =   0.0008889
        k(  139) = (   0.0000000   0.3079201   0.2064804), wk =   0.0008889
        k(  140) = (   0.0000000   0.3079201   0.2271284), wk =   0.0008889
        k(  141) = (   0.0000000   0.3079201   0.2477765), wk =   0.0008889
        k(  142) = (   0.0000000   0.3079201   0.2684245), wk =   0.0008889
        k(  143) = (   0.0000000   0.3079201   0.2890725), wk =   0.0008889
        k(  144) = (   0.0000000   0.3079201  -0.3097206), wk =   0.0004444
        k(  145) = (   0.0000000   0.3464102   0.0000000), wk =   0.0004444
        k(  146) = (   0.0000000   0.3464102   0.0206480), wk =   0.0008889
        k(  147) = (   0.0000000   0.3464102   0.0412961), wk =   0.0008889
        k(  148) = (   0.0000000   0.3464102   0.0619441), wk =   0.0008889
        k(  149) = (   0.0000000   0.3464102   0.0825922), wk =   0.0008889
        k(  150) = (   0.0000000   0.3464102   0.1032402), wk =   0.0008889
        k(  151) = (   0.0000000   0.3464102   0.1238882), wk =   0.0008889
        k(  152) = (   0.0000000   0.3464102   0.1445363), wk =   0.0008889
        k(  153) = (   0.0000000   0.3464102   0.1651843), wk =   0.0008889
        k(  154) = (   0.0000000   0.3464102   0.1858323), wk =   0.0008889
        k(  155) = (   0.0000000   0.3464102   0.2064804), wk =   0.0008889
        k(  156) = (   0.0000000   0.3464102   0.2271284), wk =   0.0008889
        k(  157) = (   0.0000000   0.3464102   0.2477765), wk =   0.0008889
        k(  158) = (   0.0000000   0.3464102   0.2684245), wk =   0.0008889
        k(  159) = (   0.0000000   0.3464102   0.2890725), wk =   0.0008889
        k(  160) = (   0.0000000   0.3464102  -0.3097206), wk =   0.0004444
        k(  161) = (   0.0000000   0.3849002   0.0000000), wk =   0.0004444
        k(  162) = (   0.0000000   0.3849002   0.0206480), wk =   0.0008889
        k(  163) = (   0.0000000   0.3849002   0.0412961), wk =   0.0008889
        k(  164) = (   0.0000000   0.3849002   0.0619441), wk =   0.0008889
        k(  165) = (   0.0000000   0.3849002   0.0825922), wk =   0.0008889
        k(  166) = (   0.0000000   0.3849002   0.1032402), wk =   0.0008889
        k(  167) = (   0.0000000   0.3849002   0.1238882), wk =   0.0008889
        k(  168) = (   0.0000000   0.3849002   0.1445363), wk =   0.0008889
        k(  169) = (   0.0000000   0.3849002   0.1651843), wk =   0.0008889
        k(  170) = (   0.0000000   0.3849002   0.1858323), wk =   0.0008889
        k(  171) = (   0.0000000   0.3849002   0.2064804), wk =   0.0008889
        k(  172) = (   0.0000000   0.3849002   0.2271284), wk =   0.0008889
        k(  173) = (   0.0000000   0.3849002   0.2477765), wk =   0.0008889
        k(  174) = (   0.0000000   0.3849002   0.2684245), wk =   0.0008889
        k(  175) = (   0.0000000   0.3849002   0.2890725), wk =   0.0008889
        k(  176) = (   0.0000000   0.3849002  -0.3097206), wk =   0.0004444
        k(  177) = (   0.0000000   0.4233902   0.0000000), wk =   0.0004444
        k(  178) = (   0.0000000   0.4233902   0.0206480), wk =   0.0008889
        k(  179) = (   0.0000000   0.4233902   0.0412961), wk =   0.0008889
        k(  180) = (   0.0000000   0.4233902   0.0619441), wk =   0.0008889
        k(  181) = (   0.0000000   0.4233902   0.0825922), wk =   0.0008889
        k(  182) = (   0.0000000   0.4233902   0.1032402), wk =   0.0008889
        k(  183) = (   0.0000000   0.4233902   0.1238882), wk =   0.0008889
        k(  184) = (   0.0000000   0.4233902   0.1445363), wk =   0.0008889
        k(  185) = (   0.0000000   0.4233902   0.1651843), wk =   0.0008889
        k(  186) = (   0.0000000   0.4233902   0.1858323), wk =   0.0008889
        k(  187) = (   0.0000000   0.4233902   0.2064804), wk =   0.0008889
        k(  188) = (   0.0000000   0.4233902   0.2271284), wk =   0.0008889
        k(  189) = (   0.0000000   0.4233902   0.2477765), wk =   0.0008889
        k(  190) = (   0.0000000   0.4233902   0.2684245), wk =   0.0008889
        k(  191) = (   0.0000000   0.4233902   0.2890725), wk =   0.0008889
        k(  192) = (   0.0000000   0.4233902  -0.3097206), wk =   0.0004444
        k(  193) = (   0.0000000   0.4618802   0.0000000), wk =   0.0004444
        k(  194) = (   0.0000000   0.4618802   0.0206480), wk =   0.0008889
        k(  195) = (   0.0000000   0.4618802   0.0412961), wk =   0.0008889
        k(  196) = (   0.0000000   0.4618802   0.0619441), wk =   0.0008889
        k(  197) = (   0.0000000   0.4618802   0.0825922), wk =   0.0008889
        k(  198) = (   0.0000000   0.4618802   0.1032402), wk =   0.0008889
        k(  199) = (   0.0000000   0.4618802   0.1238882), wk =   0.0008889
        k(  200) = (   0.0000000   0.4618802   0.1445363), wk =   0.0008889
        k(  201) = (   0.0000000   0.4618802   0.1651843), wk =   0.0008889
        k(  202) = (   0.0000000   0.4618802   0.1858323), wk =   0.0008889
        k(  203) = (   0.0000000   0.4618802   0.2064804), wk =   0.0008889
        k(  204) = (   0.0000000   0.4618802   0.2271284), wk =   0.0008889
        k(  205) = (   0.0000000   0.4618802   0.2477765), wk =   0.0008889
        k(  206) = (   0.0000000   0.4618802   0.2684245), wk =   0.0008889
        k(  207) = (   0.0000000   0.4618802   0.2890725), wk =   0.0008889
        k(  208) = (   0.0000000   0.4618802  -0.3097206), wk =   0.0004444
        k(  209) = (   0.0000000   0.5003702   0.0000000), wk =   0.0004444
        k(  210) = (   0.0000000   0.5003702   0.0206480), wk =   0.0008889
        k(  211) = (   0.0000000   0.5003702   0.0412961), wk =   0.0008889
        k(  212) = (   0.0000000   0.5003702   0.0619441), wk =   0.0008889
        k(  213) = (   0.0000000   0.5003702   0.0825922), wk =   0.0008889
        k(  214) = (   0.0000000   0.5003702   0.1032402), wk =   0.0008889
        k(  215) = (   0.0000000   0.5003702   0.1238882), wk =   0.0008889
        k(  216) = (   0.0000000   0.5003702   0.1445363), wk =   0.0008889
        k(  217) = (   0.0000000   0.5003702   0.1651843), wk =   0.0008889
        k(  218) = (   0.0000000   0.5003702   0.1858323), wk =   0.0008889
        k(  219) = (   0.0000000   0.5003702   0.2064804), wk =   0.0008889
        k(  220) = (   0.0000000   0.5003702   0.2271284), wk =   0.0008889
        k(  221) = (   0.0000000   0.5003702   0.2477765), wk =   0.0008889
        k(  222) = (   0.0000000   0.5003702   0.2684245), wk =   0.0008889
        k(  223) = (   0.0000000   0.5003702   0.2890725), wk =   0.0008889
        k(  224) = (   0.0000000   0.5003702  -0.3097206), wk =   0.0004444
        k(  225) = (   0.0000000   0.5388603   0.0000000), wk =   0.0004444
        k(  226) = (   0.0000000   0.5388603   0.0206480), wk =   0.0008889
        k(  227) = (   0.0000000   0.5388603   0.0412961), wk =   0.0008889
        k(  228) = (   0.0000000   0.5388603   0.0619441), wk =   0.0008889
        k(  229) = (   0.0000000   0.5388603   0.0825922), wk =   0.0008889
        k(  230) = (   0.0000000   0.5388603   0.1032402), wk =   0.0008889
        k(  231) = (   0.0000000   0.5388603   0.1238882), wk =   0.0008889
        k(  232) = (   0.0000000   0.5388603   0.1445363), wk =   0.0008889
        k(  233) = (   0.0000000   0.5388603   0.1651843), wk =   0.0008889
        k(  234) = (   0.0000000   0.5388603   0.1858323), wk =   0.0008889
        k(  235) = (   0.0000000   0.5388603   0.2064804), wk =   0.0008889
        k(  236) = (   0.0000000   0.5388603   0.2271284), wk =   0.0008889
        k(  237) = (   0.0000000   0.5388603   0.2477765), wk =   0.0008889
        k(  238) = (   0.0000000   0.5388603   0.2684245), wk =   0.0008889
        k(  239) = (   0.0000000   0.5388603   0.2890725), wk =   0.0008889
        k(  240) = (   0.0000000   0.5388603  -0.3097206), wk =   0.0004444
        k(  241) = (   0.0000000  -0.5773503   0.0000000), wk =   0.0002222
        k(  242) = (   0.0000000  -0.5773503   0.0206480), wk =   0.0004444
        k(  243) = (   0.0000000  -0.5773503   0.0412961), wk =   0.0004444
        k(  244) = (   0.0000000  -0.5773503   0.0619441), wk =   0.0004444
        k(  245) = (   0.0000000  -0.5773503   0.0825922), wk =   0.0004444
        k(  246) = (   0.0000000  -0.5773503   0.1032402), wk =   0.0004444
        k(  247) = (   0.0000000  -0.5773503   0.1238882), wk =   0.0004444
        k(  248) = (   0.0000000  -0.5773503   0.1445363), wk =   0.0004444
        k(  249) = (   0.0000000  -0.5773503   0.1651843), wk =   0.0004444
        k(  250) = (   0.0000000  -0.5773503   0.1858323), wk =   0.0004444
        k(  251) = (   0.0000000  -0.5773503   0.2064804), wk =   0.0004444
        k(  252) = (   0.0000000  -0.5773503   0.2271284), wk =   0.0004444
        k(  253) = (   0.0000000  -0.5773503   0.2477765), wk =   0.0004444
        k(  254) = (   0.0000000  -0.5773503   0.2684245), wk =   0.0004444
        k(  255) = (   0.0000000  -0.5773503   0.2890725), wk =   0.0004444
        k(  256) = (   0.0000000  -0.5773503  -0.3097206), wk =   0.0002222
        k(  257) = (   0.0333333   0.0577350   0.0000000), wk =   0.0004444
        k(  258) = (   0.0333333   0.0577350   0.0206480), wk =   0.0008889
        k(  259) = (   0.0333333   0.0577350   0.0412961), wk =   0.0008889
        k(  260) = (   0.0333333   0.0577350   0.0619441), wk =   0.0008889
        k(  261) = (   0.0333333   0.0577350   0.0825922), wk =   0.0008889
        k(  262) = (   0.0333333   0.0577350   0.1032402), wk =   0.0008889
        k(  263) = (   0.0333333   0.0577350   0.1238882), wk =   0.0008889
        k(  264) = (   0.0333333   0.0577350   0.1445363), wk =   0.0008889
        k(  265) = (   0.0333333   0.0577350   0.1651843), wk =   0.0008889
        k(  266) = (   0.0333333   0.0577350   0.1858323), wk =   0.0008889
        k(  267) = (   0.0333333   0.0577350   0.2064804), wk =   0.0008889
        k(  268) = (   0.0333333   0.0577350   0.2271284), wk =   0.0008889
        k(  269) = (   0.0333333   0.0577350   0.2477765), wk =   0.0008889
        k(  270) = (   0.0333333   0.0577350   0.2684245), wk =   0.0008889
        k(  271) = (   0.0333333   0.0577350   0.2890725), wk =   0.0008889
        k(  272) = (   0.0333333   0.0577350  -0.3097206), wk =   0.0004444
        k(  273) = (   0.0333333   0.0962250   0.0000000), wk =   0.0008889
        k(  274) = (   0.0333333   0.0962250   0.0206480), wk =   0.0017778
        k(  275) = (   0.0333333   0.0962250   0.0412961), wk =   0.0017778
        k(  276) = (   0.0333333   0.0962250   0.0619441), wk =   0.0017778
        k(  277) = (   0.0333333   0.0962250   0.0825922), wk =   0.0017778
        k(  278) = (   0.0333333   0.0962250   0.1032402), wk =   0.0017778
        k(  279) = (   0.0333333   0.0962250   0.1238882), wk =   0.0017778
        k(  280) = (   0.0333333   0.0962250   0.1445363), wk =   0.0017778
        k(  281) = (   0.0333333   0.0962250   0.1651843), wk =   0.0017778
        k(  282) = (   0.0333333   0.0962250   0.1858323), wk =   0.0017778
        k(  283) = (   0.0333333   0.0962250   0.2064804), wk =   0.0017778
        k(  284) = (   0.0333333   0.0962250   0.2271284), wk =   0.0017778
        k(  285) = (   0.0333333   0.0962250   0.2477765), wk =   0.0017778
        k(  286) = (   0.0333333   0.0962250   0.2684245), wk =   0.0017778
        k(  287) = (   0.0333333   0.0962250   0.2890725), wk =   0.0017778
        k(  288) = (   0.0333333   0.0962250  -0.3097206), wk =   0.0008889
        k(  289) = (   0.0333333   0.1347151   0.0000000), wk =   0.0008889
        k(  290) = (   0.0333333   0.1347151   0.0206480), wk =   0.0017778
        k(  291) = (   0.0333333   0.1347151   0.0412961), wk =   0.0017778
        k(  292) = (   0.0333333   0.1347151   0.0619441), wk =   0.0017778
        k(  293) = (   0.0333333   0.1347151   0.0825922), wk =   0.0017778
        k(  294) = (   0.0333333   0.1347151   0.1032402), wk =   0.0017778
        k(  295) = (   0.0333333   0.1347151   0.1238882), wk =   0.0017778
        k(  296) = (   0.0333333   0.1347151   0.1445363), wk =   0.0017778
        k(  297) = (   0.0333333   0.1347151   0.1651843), wk =   0.0017778
        k(  298) = (   0.0333333   0.1347151   0.1858323), wk =   0.0017778
        k(  299) = (   0.0333333   0.1347151   0.2064804), wk =   0.0017778
        k(  300) = (   0.0333333   0.1347151   0.2271284), wk =   0.0017778
        k(  301) = (   0.0333333   0.1347151   0.2477765), wk =   0.0017778
        k(  302) = (   0.0333333   0.1347151   0.2684245), wk =   0.0017778
        k(  303) = (   0.0333333   0.1347151   0.2890725), wk =   0.0017778
        k(  304) = (   0.0333333   0.1347151  -0.3097206), wk =   0.0008889
        k(  305) = (   0.0333333   0.1732051   0.0000000), wk =   0.0008889
        k(  306) = (   0.0333333   0.1732051   0.0206480), wk =   0.0017778
        k(  307) = (   0.0333333   0.1732051   0.0412961), wk =   0.0017778
        k(  308) = (   0.0333333   0.1732051   0.0619441), wk =   0.0017778
        k(  309) = (   0.0333333   0.1732051   0.0825922), wk =   0.0017778
        k(  310) = (   0.0333333   0.1732051   0.1032402), wk =   0.0017778
        k(  311) = (   0.0333333   0.1732051   0.1238882), wk =   0.0017778
        k(  312) = (   0.0333333   0.1732051   0.1445363), wk =   0.0017778
        k(  313) = (   0.0333333   0.1732051   0.1651843), wk =   0.0017778
        k(  314) = (   0.0333333   0.1732051   0.1858323), wk =   0.0017778
        k(  315) = (   0.0333333   0.1732051   0.2064804), wk =   0.0017778
        k(  316) = (   0.0333333   0.1732051   0.2271284), wk =   0.0017778
        k(  317) = (   0.0333333   0.1732051   0.2477765), wk =   0.0017778
        k(  318) = (   0.0333333   0.1732051   0.2684245), wk =   0.0017778
        k(  319) = (   0.0333333   0.1732051   0.2890725), wk =   0.0017778
        k(  320) = (   0.0333333   0.1732051  -0.3097206), wk =   0.0008889
        k(  321) = (   0.0333333   0.2116951   0.0000000), wk =   0.0008889
        k(  322) = (   0.0333333   0.2116951   0.0206480), wk =   0.0017778
        k(  323) = (   0.0333333   0.2116951   0.0412961), wk =   0.0017778
        k(  324) = (   0.0333333   0.2116951   0.0619441), wk =   0.0017778
        k(  325) = (   0.0333333   0.2116951   0.0825922), wk =   0.0017778
        k(  326) = (   0.0333333   0.2116951   0.1032402), wk =   0.0017778
        k(  327) = (   0.0333333   0.2116951   0.1238882), wk =   0.0017778
        k(  328) = (   0.0333333   0.2116951   0.1445363), wk =   0.0017778
        k(  329) = (   0.0333333   0.2116951   0.1651843), wk =   0.0017778
        k(  330) = (   0.0333333   0.2116951   0.1858323), wk =   0.0017778
        k(  331) = (   0.0333333   0.2116951   0.2064804), wk =   0.0017778
        k(  332) = (   0.0333333   0.2116951   0.2271284), wk =   0.0017778
        k(  333) = (   0.0333333   0.2116951   0.2477765), wk =   0.0017778
        k(  334) = (   0.0333333   0.2116951   0.2684245), wk =   0.0017778
        k(  335) = (   0.0333333   0.2116951   0.2890725), wk =   0.0017778
        k(  336) = (   0.0333333   0.2116951  -0.3097206), wk =   0.0008889
        k(  337) = (   0.0333333   0.2501851   0.0000000), wk =   0.0008889
        k(  338) = (   0.0333333   0.2501851   0.0206480), wk =   0.0017778
        k(  339) = (   0.0333333   0.2501851   0.0412961), wk =   0.0017778
        k(  340) = (   0.0333333   0.2501851   0.0619441), wk =   0.0017778
        k(  341) = (   0.0333333   0.2501851   0.0825922), wk =   0.0017778
        k(  342) = (   0.0333333   0.2501851   0.1032402), wk =   0.0017778
        k(  343) = (   0.0333333   0.2501851   0.1238882), wk =   0.0017778
        k(  344) = (   0.0333333   0.2501851   0.1445363), wk =   0.0017778
        k(  345) = (   0.0333333   0.2501851   0.1651843), wk =   0.0017778
        k(  346) = (   0.0333333   0.2501851   0.1858323), wk =   0.0017778
        k(  347) = (   0.0333333   0.2501851   0.2064804), wk =   0.0017778
        k(  348) = (   0.0333333   0.2501851   0.2271284), wk =   0.0017778
        k(  349) = (   0.0333333   0.2501851   0.2477765), wk =   0.0017778
        k(  350) = (   0.0333333   0.2501851   0.2684245), wk =   0.0017778
        k(  351) = (   0.0333333   0.2501851   0.2890725), wk =   0.0017778
        k(  352) = (   0.0333333   0.2501851  -0.3097206), wk =   0.0008889
        k(  353) = (   0.0333333   0.2886751   0.0000000), wk =   0.0008889
        k(  354) = (   0.0333333   0.2886751   0.0206480), wk =   0.0017778
        k(  355) = (   0.0333333   0.2886751   0.0412961), wk =   0.0017778
        k(  356) = (   0.0333333   0.2886751   0.0619441), wk =   0.0017778
        k(  357) = (   0.0333333   0.2886751   0.0825922), wk =   0.0017778
        k(  358) = (   0.0333333   0.2886751   0.1032402), wk =   0.0017778
        k(  359) = (   0.0333333   0.2886751   0.1238882), wk =   0.0017778
        k(  360) = (   0.0333333   0.2886751   0.1445363), wk =   0.0017778
        k(  361) = (   0.0333333   0.2886751   0.1651843), wk =   0.0017778
        k(  362) = (   0.0333333   0.2886751   0.1858323), wk =   0.0017778
        k(  363) = (   0.0333333   0.2886751   0.2064804), wk =   0.0017778
        k(  364) = (   0.0333333   0.2886751   0.2271284), wk =   0.0017778
        k(  365) = (   0.0333333   0.2886751   0.2477765), wk =   0.0017778
        k(  366) = (   0.0333333   0.2886751   0.2684245), wk =   0.0017778
        k(  367) = (   0.0333333   0.2886751   0.2890725), wk =   0.0017778
        k(  368) = (   0.0333333   0.2886751  -0.3097206), wk =   0.0008889
        k(  369) = (   0.0333333   0.3271652   0.0000000), wk =   0.0008889
        k(  370) = (   0.0333333   0.3271652   0.0206480), wk =   0.0017778
        k(  371) = (   0.0333333   0.3271652   0.0412961), wk =   0.0017778
        k(  372) = (   0.0333333   0.3271652   0.0619441), wk =   0.0017778
        k(  373) = (   0.0333333   0.3271652   0.0825922), wk =   0.0017778
        k(  374) = (   0.0333333   0.3271652   0.1032402), wk =   0.0017778
        k(  375) = (   0.0333333   0.3271652   0.1238882), wk =   0.0017778
        k(  376) = (   0.0333333   0.3271652   0.1445363), wk =   0.0017778
        k(  377) = (   0.0333333   0.3271652   0.1651843), wk =   0.0017778
        k(  378) = (   0.0333333   0.3271652   0.1858323), wk =   0.0017778
        k(  379) = (   0.0333333   0.3271652   0.2064804), wk =   0.0017778
        k(  380) = (   0.0333333   0.3271652   0.2271284), wk =   0.0017778
        k(  381) = (   0.0333333   0.3271652   0.2477765), wk =   0.0017778
        k(  382) = (   0.0333333   0.3271652   0.2684245), wk =   0.0017778
        k(  383) = (   0.0333333   0.3271652   0.2890725), wk =   0.0017778
        k(  384) = (   0.0333333   0.3271652  -0.3097206), wk =   0.0008889
        k(  385) = (   0.0333333   0.3656552   0.0000000), wk =   0.0008889
        k(  386) = (   0.0333333   0.3656552   0.0206480), wk =   0.0017778
        k(  387) = (   0.0333333   0.3656552   0.0412961), wk =   0.0017778
        k(  388) = (   0.0333333   0.3656552   0.0619441), wk =   0.0017778
        k(  389) = (   0.0333333   0.3656552   0.0825922), wk =   0.0017778
        k(  390) = (   0.0333333   0.3656552   0.1032402), wk =   0.0017778
        k(  391) = (   0.0333333   0.3656552   0.1238882), wk =   0.0017778
        k(  392) = (   0.0333333   0.3656552   0.1445363), wk =   0.0017778
        k(  393) = (   0.0333333   0.3656552   0.1651843), wk =   0.0017778
        k(  394) = (   0.0333333   0.3656552   0.1858323), wk =   0.0017778
        k(  395) = (   0.0333333   0.3656552   0.2064804), wk =   0.0017778
        k(  396) = (   0.0333333   0.3656552   0.2271284), wk =   0.0017778
        k(  397) = (   0.0333333   0.3656552   0.2477765), wk =   0.0017778
        k(  398) = (   0.0333333   0.3656552   0.2684245), wk =   0.0017778
        k(  399) = (   0.0333333   0.3656552   0.2890725), wk =   0.0017778
        k(  400) = (   0.0333333   0.3656552  -0.3097206), wk =   0.0008889
        k(  401) = (   0.0333333   0.4041452   0.0000000), wk =   0.0008889
        k(  402) = (   0.0333333   0.4041452   0.0206480), wk =   0.0017778
        k(  403) = (   0.0333333   0.4041452   0.0412961), wk =   0.0017778
        k(  404) = (   0.0333333   0.4041452   0.0619441), wk =   0.0017778
        k(  405) = (   0.0333333   0.4041452   0.0825922), wk =   0.0017778
        k(  406) = (   0.0333333   0.4041452   0.1032402), wk =   0.0017778
        k(  407) = (   0.0333333   0.4041452   0.1238882), wk =   0.0017778
        k(  408) = (   0.0333333   0.4041452   0.1445363), wk =   0.0017778
        k(  409) = (   0.0333333   0.4041452   0.1651843), wk =   0.0017778
        k(  410) = (   0.0333333   0.4041452   0.1858323), wk =   0.0017778
        k(  411) = (   0.0333333   0.4041452   0.2064804), wk =   0.0017778
        k(  412) = (   0.0333333   0.4041452   0.2271284), wk =   0.0017778
        k(  413) = (   0.0333333   0.4041452   0.2477765), wk =   0.0017778
        k(  414) = (   0.0333333   0.4041452   0.2684245), wk =   0.0017778
        k(  415) = (   0.0333333   0.4041452   0.2890725), wk =   0.0017778
        k(  416) = (   0.0333333   0.4041452  -0.3097206), wk =   0.0008889
        k(  417) = (   0.0333333   0.4426352   0.0000000), wk =   0.0008889
        k(  418) = (   0.0333333   0.4426352   0.0206480), wk =   0.0017778
        k(  419) = (   0.0333333   0.4426352   0.0412961), wk =   0.0017778
        k(  420) = (   0.0333333   0.4426352   0.0619441), wk =   0.0017778
        k(  421) = (   0.0333333   0.4426352   0.0825922), wk =   0.0017778
        k(  422) = (   0.0333333   0.4426352   0.1032402), wk =   0.0017778
        k(  423) = (   0.0333333   0.4426352   0.1238882), wk =   0.0017778
        k(  424) = (   0.0333333   0.4426352   0.1445363), wk =   0.0017778
        k(  425) = (   0.0333333   0.4426352   0.1651843), wk =   0.0017778
        k(  426) = (   0.0333333   0.4426352   0.1858323), wk =   0.0017778
        k(  427) = (   0.0333333   0.4426352   0.2064804), wk =   0.0017778
        k(  428) = (   0.0333333   0.4426352   0.2271284), wk =   0.0017778
        k(  429) = (   0.0333333   0.4426352   0.2477765), wk =   0.0017778
        k(  430) = (   0.0333333   0.4426352   0.2684245), wk =   0.0017778
        k(  431) = (   0.0333333   0.4426352   0.2890725), wk =   0.0017778
        k(  432) = (   0.0333333   0.4426352  -0.3097206), wk =   0.0008889
        k(  433) = (   0.0333333   0.4811252   0.0000000), wk =   0.0008889
        k(  434) = (   0.0333333   0.4811252   0.0206480), wk =   0.0017778
        k(  435) = (   0.0333333   0.4811252   0.0412961), wk =   0.0017778
        k(  436) = (   0.0333333   0.4811252   0.0619441), wk =   0.0017778
        k(  437) = (   0.0333333   0.4811252   0.0825922), wk =   0.0017778
        k(  438) = (   0.0333333   0.4811252   0.1032402), wk =   0.0017778
        k(  439) = (   0.0333333   0.4811252   0.1238882), wk =   0.0017778
        k(  440) = (   0.0333333   0.4811252   0.1445363), wk =   0.0017778
        k(  441) = (   0.0333333   0.4811252   0.1651843), wk =   0.0017778
        k(  442) = (   0.0333333   0.4811252   0.1858323), wk =   0.0017778
        k(  443) = (   0.0333333   0.4811252   0.2064804), wk =   0.0017778
        k(  444) = (   0.0333333   0.4811252   0.2271284), wk =   0.0017778
        k(  445) = (   0.0333333   0.4811252   0.2477765), wk =   0.0017778
        k(  446) = (   0.0333333   0.4811252   0.2684245), wk =   0.0017778
        k(  447) = (   0.0333333   0.4811252   0.2890725), wk =   0.0017778
        k(  448) = (   0.0333333   0.4811252  -0.3097206), wk =   0.0008889
        k(  449) = (   0.0333333   0.5196152   0.0000000), wk =   0.0008889
        k(  450) = (   0.0333333   0.5196152   0.0206480), wk =   0.0017778
        k(  451) = (   0.0333333   0.5196152   0.0412961), wk =   0.0017778
        k(  452) = (   0.0333333   0.5196152   0.0619441), wk =   0.0017778
        k(  453) = (   0.0333333   0.5196152   0.0825922), wk =   0.0017778
        k(  454) = (   0.0333333   0.5196152   0.1032402), wk =   0.0017778
        k(  455) = (   0.0333333   0.5196152   0.1238882), wk =   0.0017778
        k(  456) = (   0.0333333   0.5196152   0.1445363), wk =   0.0017778
        k(  457) = (   0.0333333   0.5196152   0.1651843), wk =   0.0017778
        k(  458) = (   0.0333333   0.5196152   0.1858323), wk =   0.0017778
        k(  459) = (   0.0333333   0.5196152   0.2064804), wk =   0.0017778
        k(  460) = (   0.0333333   0.5196152   0.2271284), wk =   0.0017778
        k(  461) = (   0.0333333   0.5196152   0.2477765), wk =   0.0017778
        k(  462) = (   0.0333333   0.5196152   0.2684245), wk =   0.0017778
        k(  463) = (   0.0333333   0.5196152   0.2890725), wk =   0.0017778
        k(  464) = (   0.0333333   0.5196152  -0.3097206), wk =   0.0008889
        k(  465) = (   0.0333333   0.5581053   0.0000000), wk =   0.0008889
        k(  466) = (   0.0333333   0.5581053   0.0206480), wk =   0.0017778
        k(  467) = (   0.0333333   0.5581053   0.0412961), wk =   0.0017778
        k(  468) = (   0.0333333   0.5581053   0.0619441), wk =   0.0017778
        k(  469) = (   0.0333333   0.5581053   0.0825922), wk =   0.0017778
        k(  470) = (   0.0333333   0.5581053   0.1032402), wk =   0.0017778
        k(  471) = (   0.0333333   0.5581053   0.1238882), wk =   0.0017778
        k(  472) = (   0.0333333   0.5581053   0.1445363), wk =   0.0017778
        k(  473) = (   0.0333333   0.5581053   0.1651843), wk =   0.0017778
        k(  474) = (   0.0333333   0.5581053   0.1858323), wk =   0.0017778
        k(  475) = (   0.0333333   0.5581053   0.2064804), wk =   0.0017778
        k(  476) = (   0.0333333   0.5581053   0.2271284), wk =   0.0017778
        k(  477) = (   0.0333333   0.5581053   0.2477765), wk =   0.0017778
        k(  478) = (   0.0333333   0.5581053   0.2684245), wk =   0.0017778
        k(  479) = (   0.0333333   0.5581053   0.2890725), wk =   0.0017778
        k(  480) = (   0.0333333   0.5581053  -0.3097206), wk =   0.0008889
        k(  481) = (   0.0666667   0.1154701   0.0000000), wk =   0.0004444
        k(  482) = (   0.0666667   0.1154701   0.0206480), wk =   0.0008889
        k(  483) = (   0.0666667   0.1154701   0.0412961), wk =   0.0008889
        k(  484) = (   0.0666667   0.1154701   0.0619441), wk =   0.0008889
        k(  485) = (   0.0666667   0.1154701   0.0825922), wk =   0.0008889
        k(  486) = (   0.0666667   0.1154701   0.1032402), wk =   0.0008889
        k(  487) = (   0.0666667   0.1154701   0.1238882), wk =   0.0008889
        k(  488) = (   0.0666667   0.1154701   0.1445363), wk =   0.0008889
        k(  489) = (   0.0666667   0.1154701   0.1651843), wk =   0.0008889
        k(  490) = (   0.0666667   0.1154701   0.1858323), wk =   0.0008889
        k(  491) = (   0.0666667   0.1154701   0.2064804), wk =   0.0008889
        k(  492) = (   0.0666667   0.1154701   0.2271284), wk =   0.0008889
        k(  493) = (   0.0666667   0.1154701   0.2477765), wk =   0.0008889
        k(  494) = (   0.0666667   0.1154701   0.2684245), wk =   0.0008889
        k(  495) = (   0.0666667   0.1154701   0.2890725), wk =   0.0008889
        k(  496) = (   0.0666667   0.1154701  -0.3097206), wk =   0.0004444
        k(  497) = (   0.0666667   0.1539601   0.0000000), wk =   0.0008889
        k(  498) = (   0.0666667   0.1539601   0.0206480), wk =   0.0017778
        k(  499) = (   0.0666667   0.1539601   0.0412961), wk =   0.0017778
        k(  500) = (   0.0666667   0.1539601   0.0619441), wk =   0.0017778
        k(  501) = (   0.0666667   0.1539601   0.0825922), wk =   0.0017778
        k(  502) = (   0.0666667   0.1539601   0.1032402), wk =   0.0017778
        k(  503) = (   0.0666667   0.1539601   0.1238882), wk =   0.0017778
        k(  504) = (   0.0666667   0.1539601   0.1445363), wk =   0.0017778
        k(  505) = (   0.0666667   0.1539601   0.1651843), wk =   0.0017778
        k(  506) = (   0.0666667   0.1539601   0.1858323), wk =   0.0017778
        k(  507) = (   0.0666667   0.1539601   0.2064804), wk =   0.0017778
        k(  508) = (   0.0666667   0.1539601   0.2271284), wk =   0.0017778
        k(  509) = (   0.0666667   0.1539601   0.2477765), wk =   0.0017778
        k(  510) = (   0.0666667   0.1539601   0.2684245), wk =   0.0017778
        k(  511) = (   0.0666667   0.1539601   0.2890725), wk =   0.0017778
        k(  512) = (   0.0666667   0.1539601  -0.3097206), wk =   0.0008889
        k(  513) = (   0.0666667   0.1924501   0.0000000), wk =   0.0008889
        k(  514) = (   0.0666667   0.1924501   0.0206480), wk =   0.0017778
        k(  515) = (   0.0666667   0.1924501   0.0412961), wk =   0.0017778
        k(  516) = (   0.0666667   0.1924501   0.0619441), wk =   0.0017778
        k(  517) = (   0.0666667   0.1924501   0.0825922), wk =   0.0017778
        k(  518) = (   0.0666667   0.1924501   0.1032402), wk =   0.0017778
        k(  519) = (   0.0666667   0.1924501   0.1238882), wk =   0.0017778
        k(  520) = (   0.0666667   0.1924501   0.1445363), wk =   0.0017778
        k(  521) = (   0.0666667   0.1924501   0.1651843), wk =   0.0017778
        k(  522) = (   0.0666667   0.1924501   0.1858323), wk =   0.0017778
        k(  523) = (   0.0666667   0.1924501   0.2064804), wk =   0.0017778
        k(  524) = (   0.0666667   0.1924501   0.2271284), wk =   0.0017778
        k(  525) = (   0.0666667   0.1924501   0.2477765), wk =   0.0017778
        k(  526) = (   0.0666667   0.1924501   0.2684245), wk =   0.0017778
        k(  527) = (   0.0666667   0.1924501   0.2890725), wk =   0.0017778
        k(  528) = (   0.0666667   0.1924501  -0.3097206), wk =   0.0008889
        k(  529) = (   0.0666667   0.2309401   0.0000000), wk =   0.0008889
        k(  530) = (   0.0666667   0.2309401   0.0206480), wk =   0.0017778
        k(  531) = (   0.0666667   0.2309401   0.0412961), wk =   0.0017778
        k(  532) = (   0.0666667   0.2309401   0.0619441), wk =   0.0017778
        k(  533) = (   0.0666667   0.2309401   0.0825922), wk =   0.0017778
        k(  534) = (   0.0666667   0.2309401   0.1032402), wk =   0.0017778
        k(  535) = (   0.0666667   0.2309401   0.1238882), wk =   0.0017778
        k(  536) = (   0.0666667   0.2309401   0.1445363), wk =   0.0017778
        k(  537) = (   0.0666667   0.2309401   0.1651843), wk =   0.0017778
        k(  538) = (   0.0666667   0.2309401   0.1858323), wk =   0.0017778
        k(  539) = (   0.0666667   0.2309401   0.2064804), wk =   0.0017778
        k(  540) = (   0.0666667   0.2309401   0.2271284), wk =   0.0017778
        k(  541) = (   0.0666667   0.2309401   0.2477765), wk =   0.0017778
        k(  542) = (   0.0666667   0.2309401   0.2684245), wk =   0.0017778
        k(  543) = (   0.0666667   0.2309401   0.2890725), wk =   0.0017778
        k(  544) = (   0.0666667   0.2309401  -0.3097206), wk =   0.0008889
        k(  545) = (   0.0666667   0.2694301   0.0000000), wk =   0.0008889
        k(  546) = (   0.0666667   0.2694301   0.0206480), wk =   0.0017778
        k(  547) = (   0.0666667   0.2694301   0.0412961), wk =   0.0017778
        k(  548) = (   0.0666667   0.2694301   0.0619441), wk =   0.0017778
        k(  549) = (   0.0666667   0.2694301   0.0825922), wk =   0.0017778
        k(  550) = (   0.0666667   0.2694301   0.1032402), wk =   0.0017778
        k(  551) = (   0.0666667   0.2694301   0.1238882), wk =   0.0017778
        k(  552) = (   0.0666667   0.2694301   0.1445363), wk =   0.0017778
        k(  553) = (   0.0666667   0.2694301   0.1651843), wk =   0.0017778
        k(  554) = (   0.0666667   0.2694301   0.1858323), wk =   0.0017778
        k(  555) = (   0.0666667   0.2694301   0.2064804), wk =   0.0017778
        k(  556) = (   0.0666667   0.2694301   0.2271284), wk =   0.0017778
        k(  557) = (   0.0666667   0.2694301   0.2477765), wk =   0.0017778
        k(  558) = (   0.0666667   0.2694301   0.2684245), wk =   0.0017778
        k(  559) = (   0.0666667   0.2694301   0.2890725), wk =   0.0017778
        k(  560) = (   0.0666667   0.2694301  -0.3097206), wk =   0.0008889
        k(  561) = (   0.0666667   0.3079201   0.0000000), wk =   0.0008889
        k(  562) = (   0.0666667   0.3079201   0.0206480), wk =   0.0017778
        k(  563) = (   0.0666667   0.3079201   0.0412961), wk =   0.0017778
        k(  564) = (   0.0666667   0.3079201   0.0619441), wk =   0.0017778
        k(  565) = (   0.0666667   0.3079201   0.0825922), wk =   0.0017778
        k(  566) = (   0.0666667   0.3079201   0.1032402), wk =   0.0017778
        k(  567) = (   0.0666667   0.3079201   0.1238882), wk =   0.0017778
        k(  568) = (   0.0666667   0.3079201   0.1445363), wk =   0.0017778
        k(  569) = (   0.0666667   0.3079201   0.1651843), wk =   0.0017778
        k(  570) = (   0.0666667   0.3079201   0.1858323), wk =   0.0017778
        k(  571) = (   0.0666667   0.3079201   0.2064804), wk =   0.0017778
        k(  572) = (   0.0666667   0.3079201   0.2271284), wk =   0.0017778
        k(  573) = (   0.0666667   0.3079201   0.2477765), wk =   0.0017778
        k(  574) = (   0.0666667   0.3079201   0.2684245), wk =   0.0017778
        k(  575) = (   0.0666667   0.3079201   0.2890725), wk =   0.0017778
        k(  576) = (   0.0666667   0.3079201  -0.3097206), wk =   0.0008889
        k(  577) = (   0.0666667   0.3464102   0.0000000), wk =   0.0008889
        k(  578) = (   0.0666667   0.3464102   0.0206480), wk =   0.0017778
        k(  579) = (   0.0666667   0.3464102   0.0412961), wk =   0.0017778
        k(  580) = (   0.0666667   0.3464102   0.0619441), wk =   0.0017778
        k(  581) = (   0.0666667   0.3464102   0.0825922), wk =   0.0017778
        k(  582) = (   0.0666667   0.3464102   0.1032402), wk =   0.0017778
        k(  583) = (   0.0666667   0.3464102   0.1238882), wk =   0.0017778
        k(  584) = (   0.0666667   0.3464102   0.1445363), wk =   0.0017778
        k(  585) = (   0.0666667   0.3464102   0.1651843), wk =   0.0017778
        k(  586) = (   0.0666667   0.3464102   0.1858323), wk =   0.0017778
        k(  587) = (   0.0666667   0.3464102   0.2064804), wk =   0.0017778
        k(  588) = (   0.0666667   0.3464102   0.2271284), wk =   0.0017778
        k(  589) = (   0.0666667   0.3464102   0.2477765), wk =   0.0017778
        k(  590) = (   0.0666667   0.3464102   0.2684245), wk =   0.0017778
        k(  591) = (   0.0666667   0.3464102   0.2890725), wk =   0.0017778
        k(  592) = (   0.0666667   0.3464102  -0.3097206), wk =   0.0008889
        k(  593) = (   0.0666667   0.3849002   0.0000000), wk =   0.0008889
        k(  594) = (   0.0666667   0.3849002   0.0206480), wk =   0.0017778
        k(  595) = (   0.0666667   0.3849002   0.0412961), wk =   0.0017778
        k(  596) = (   0.0666667   0.3849002   0.0619441), wk =   0.0017778
        k(  597) = (   0.0666667   0.3849002   0.0825922), wk =   0.0017778
        k(  598) = (   0.0666667   0.3849002   0.1032402), wk =   0.0017778
        k(  599) = (   0.0666667   0.3849002   0.1238882), wk =   0.0017778
        k(  600) = (   0.0666667   0.3849002   0.1445363), wk =   0.0017778
        k(  601) = (   0.0666667   0.3849002   0.1651843), wk =   0.0017778
        k(  602) = (   0.0666667   0.3849002   0.1858323), wk =   0.0017778
        k(  603) = (   0.0666667   0.3849002   0.2064804), wk =   0.0017778
        k(  604) = (   0.0666667   0.3849002   0.2271284), wk =   0.0017778
        k(  605) = (   0.0666667   0.3849002   0.2477765), wk =   0.0017778
        k(  606) = (   0.0666667   0.3849002   0.2684245), wk =   0.0017778
        k(  607) = (   0.0666667   0.3849002   0.2890725), wk =   0.0017778
        k(  608) = (   0.0666667   0.3849002  -0.3097206), wk =   0.0008889
        k(  609) = (   0.0666667   0.4233902   0.0000000), wk =   0.0008889
        k(  610) = (   0.0666667   0.4233902   0.0206480), wk =   0.0017778
        k(  611) = (   0.0666667   0.4233902   0.0412961), wk =   0.0017778
        k(  612) = (   0.0666667   0.4233902   0.0619441), wk =   0.0017778
        k(  613) = (   0.0666667   0.4233902   0.0825922), wk =   0.0017778
        k(  614) = (   0.0666667   0.4233902   0.1032402), wk =   0.0017778
        k(  615) = (   0.0666667   0.4233902   0.1238882), wk =   0.0017778
        k(  616) = (   0.0666667   0.4233902   0.1445363), wk =   0.0017778
        k(  617) = (   0.0666667   0.4233902   0.1651843), wk =   0.0017778
        k(  618) = (   0.0666667   0.4233902   0.1858323), wk =   0.0017778
        k(  619) = (   0.0666667   0.4233902   0.2064804), wk =   0.0017778
        k(  620) = (   0.0666667   0.4233902   0.2271284), wk =   0.0017778
        k(  621) = (   0.0666667   0.4233902   0.2477765), wk =   0.0017778
        k(  622) = (   0.0666667   0.4233902   0.2684245), wk =   0.0017778
        k(  623) = (   0.0666667   0.4233902   0.2890725), wk =   0.0017778
        k(  624) = (   0.0666667   0.4233902  -0.3097206), wk =   0.0008889
        k(  625) = (   0.0666667   0.4618802   0.0000000), wk =   0.0008889
        k(  626) = (   0.0666667   0.4618802   0.0206480), wk =   0.0017778
        k(  627) = (   0.0666667   0.4618802   0.0412961), wk =   0.0017778
        k(  628) = (   0.0666667   0.4618802   0.0619441), wk =   0.0017778
        k(  629) = (   0.0666667   0.4618802   0.0825922), wk =   0.0017778
        k(  630) = (   0.0666667   0.4618802   0.1032402), wk =   0.0017778
        k(  631) = (   0.0666667   0.4618802   0.1238882), wk =   0.0017778
        k(  632) = (   0.0666667   0.4618802   0.1445363), wk =   0.0017778
        k(  633) = (   0.0666667   0.4618802   0.1651843), wk =   0.0017778
        k(  634) = (   0.0666667   0.4618802   0.1858323), wk =   0.0017778
        k(  635) = (   0.0666667   0.4618802   0.2064804), wk =   0.0017778
        k(  636) = (   0.0666667   0.4618802   0.2271284), wk =   0.0017778
        k(  637) = (   0.0666667   0.4618802   0.2477765), wk =   0.0017778
        k(  638) = (   0.0666667   0.4618802   0.2684245), wk =   0.0017778
        k(  639) = (   0.0666667   0.4618802   0.2890725), wk =   0.0017778
        k(  640) = (   0.0666667   0.4618802  -0.3097206), wk =   0.0008889
        k(  641) = (   0.0666667   0.5003702   0.0000000), wk =   0.0008889
        k(  642) = (   0.0666667   0.5003702   0.0206480), wk =   0.0017778
        k(  643) = (   0.0666667   0.5003702   0.0412961), wk =   0.0017778
        k(  644) = (   0.0666667   0.5003702   0.0619441), wk =   0.0017778
        k(  645) = (   0.0666667   0.5003702   0.0825922), wk =   0.0017778
        k(  646) = (   0.0666667   0.5003702   0.1032402), wk =   0.0017778
        k(  647) = (   0.0666667   0.5003702   0.1238882), wk =   0.0017778
        k(  648) = (   0.0666667   0.5003702   0.1445363), wk =   0.0017778
        k(  649) = (   0.0666667   0.5003702   0.1651843), wk =   0.0017778
        k(  650) = (   0.0666667   0.5003702   0.1858323), wk =   0.0017778
        k(  651) = (   0.0666667   0.5003702   0.2064804), wk =   0.0017778
        k(  652) = (   0.0666667   0.5003702   0.2271284), wk =   0.0017778
        k(  653) = (   0.0666667   0.5003702   0.2477765), wk =   0.0017778
        k(  654) = (   0.0666667   0.5003702   0.2684245), wk =   0.0017778
        k(  655) = (   0.0666667   0.5003702   0.2890725), wk =   0.0017778
        k(  656) = (   0.0666667   0.5003702  -0.3097206), wk =   0.0008889
        k(  657) = (   0.0666667   0.5388603   0.0000000), wk =   0.0008889
        k(  658) = (   0.0666667   0.5388603   0.0206480), wk =   0.0017778
        k(  659) = (   0.0666667   0.5388603   0.0412961), wk =   0.0017778
        k(  660) = (   0.0666667   0.5388603   0.0619441), wk =   0.0017778
        k(  661) = (   0.0666667   0.5388603   0.0825922), wk =   0.0017778
        k(  662) = (   0.0666667   0.5388603   0.1032402), wk =   0.0017778
        k(  663) = (   0.0666667   0.5388603   0.1238882), wk =   0.0017778
        k(  664) = (   0.0666667   0.5388603   0.1445363), wk =   0.0017778
        k(  665) = (   0.0666667   0.5388603   0.1651843), wk =   0.0017778
        k(  666) = (   0.0666667   0.5388603   0.1858323), wk =   0.0017778
        k(  667) = (   0.0666667   0.5388603   0.2064804), wk =   0.0017778
        k(  668) = (   0.0666667   0.5388603   0.2271284), wk =   0.0017778
        k(  669) = (   0.0666667   0.5388603   0.2477765), wk =   0.0017778
        k(  670) = (   0.0666667   0.5388603   0.2684245), wk =   0.0017778
        k(  671) = (   0.0666667   0.5388603   0.2890725), wk =   0.0017778
        k(  672) = (   0.0666667   0.5388603  -0.3097206), wk =   0.0008889
        k(  673) = (   0.0666667   0.5773503   0.0000000), wk =   0.0004444
        k(  674) = (   0.0666667   0.5773503   0.0206480), wk =   0.0008889
        k(  675) = (   0.0666667   0.5773503   0.0412961), wk =   0.0008889
        k(  676) = (   0.0666667   0.5773503   0.0619441), wk =   0.0008889
        k(  677) = (   0.0666667   0.5773503   0.0825922), wk =   0.0008889
        k(  678) = (   0.0666667   0.5773503   0.1032402), wk =   0.0008889
        k(  679) = (   0.0666667   0.5773503   0.1238882), wk =   0.0008889
        k(  680) = (   0.0666667   0.5773503   0.1445363), wk =   0.0008889
        k(  681) = (   0.0666667   0.5773503   0.1651843), wk =   0.0008889
        k(  682) = (   0.0666667   0.5773503   0.1858323), wk =   0.0008889
        k(  683) = (   0.0666667   0.5773503   0.2064804), wk =   0.0008889
        k(  684) = (   0.0666667   0.5773503   0.2271284), wk =   0.0008889
        k(  685) = (   0.0666667   0.5773503   0.2477765), wk =   0.0008889
        k(  686) = (   0.0666667   0.5773503   0.2684245), wk =   0.0008889
        k(  687) = (   0.0666667   0.5773503   0.2890725), wk =   0.0008889
        k(  688) = (   0.0666667   0.5773503  -0.3097206), wk =   0.0004444
        k(  689) = (   0.1000000   0.1732051   0.0000000), wk =   0.0004444
        k(  690) = (   0.1000000   0.1732051   0.0206480), wk =   0.0008889
        k(  691) = (   0.1000000   0.1732051   0.0412961), wk =   0.0008889
        k(  692) = (   0.1000000   0.1732051   0.0619441), wk =   0.0008889
        k(  693) = (   0.1000000   0.1732051   0.0825922), wk =   0.0008889
        k(  694) = (   0.1000000   0.1732051   0.1032402), wk =   0.0008889
        k(  695) = (   0.1000000   0.1732051   0.1238882), wk =   0.0008889
        k(  696) = (   0.1000000   0.1732051   0.1445363), wk =   0.0008889
        k(  697) = (   0.1000000   0.1732051   0.1651843), wk =   0.0008889
        k(  698) = (   0.1000000   0.1732051   0.1858323), wk =   0.0008889
        k(  699) = (   0.1000000   0.1732051   0.2064804), wk =   0.0008889
        k(  700) = (   0.1000000   0.1732051   0.2271284), wk =   0.0008889
        k(  701) = (   0.1000000   0.1732051   0.2477765), wk =   0.0008889
        k(  702) = (   0.1000000   0.1732051   0.2684245), wk =   0.0008889
        k(  703) = (   0.1000000   0.1732051   0.2890725), wk =   0.0008889
        k(  704) = (   0.1000000   0.1732051  -0.3097206), wk =   0.0004444
        k(  705) = (   0.1000000   0.2116951   0.0000000), wk =   0.0008889
        k(  706) = (   0.1000000   0.2116951   0.0206480), wk =   0.0017778
        k(  707) = (   0.1000000   0.2116951   0.0412961), wk =   0.0017778
        k(  708) = (   0.1000000   0.2116951   0.0619441), wk =   0.0017778
        k(  709) = (   0.1000000   0.2116951   0.0825922), wk =   0.0017778
        k(  710) = (   0.1000000   0.2116951   0.1032402), wk =   0.0017778
        k(  711) = (   0.1000000   0.2116951   0.1238882), wk =   0.0017778
        k(  712) = (   0.1000000   0.2116951   0.1445363), wk =   0.0017778
        k(  713) = (   0.1000000   0.2116951   0.1651843), wk =   0.0017778
        k(  714) = (   0.1000000   0.2116951   0.1858323), wk =   0.0017778
        k(  715) = (   0.1000000   0.2116951   0.2064804), wk =   0.0017778
        k(  716) = (   0.1000000   0.2116951   0.2271284), wk =   0.0017778
        k(  717) = (   0.1000000   0.2116951   0.2477765), wk =   0.0017778
        k(  718) = (   0.1000000   0.2116951   0.2684245), wk =   0.0017778
        k(  719) = (   0.1000000   0.2116951   0.2890725), wk =   0.0017778
        k(  720) = (   0.1000000   0.2116951  -0.3097206), wk =   0.0008889
        k(  721) = (   0.1000000   0.2501851   0.0000000), wk =   0.0008889
        k(  722) = (   0.1000000   0.2501851   0.0206480), wk =   0.0017778
        k(  723) = (   0.1000000   0.2501851   0.0412961), wk =   0.0017778
        k(  724) = (   0.1000000   0.2501851   0.0619441), wk =   0.0017778
        k(  725) = (   0.1000000   0.2501851   0.0825922), wk =   0.0017778
        k(  726) = (   0.1000000   0.2501851   0.1032402), wk =   0.0017778
        k(  727) = (   0.1000000   0.2501851   0.1238882), wk =   0.0017778
        k(  728) = (   0.1000000   0.2501851   0.1445363), wk =   0.0017778
        k(  729) = (   0.1000000   0.2501851   0.1651843), wk =   0.0017778
        k(  730) = (   0.1000000   0.2501851   0.1858323), wk =   0.0017778
        k(  731) = (   0.1000000   0.2501851   0.2064804), wk =   0.0017778
        k(  732) = (   0.1000000   0.2501851   0.2271284), wk =   0.0017778
        k(  733) = (   0.1000000   0.2501851   0.2477765), wk =   0.0017778
        k(  734) = (   0.1000000   0.2501851   0.2684245), wk =   0.0017778
        k(  735) = (   0.1000000   0.2501851   0.2890725), wk =   0.0017778
        k(  736) = (   0.1000000   0.2501851  -0.3097206), wk =   0.0008889
        k(  737) = (   0.1000000   0.2886751   0.0000000), wk =   0.0008889
        k(  738) = (   0.1000000   0.2886751   0.0206480), wk =   0.0017778
        k(  739) = (   0.1000000   0.2886751   0.0412961), wk =   0.0017778
        k(  740) = (   0.1000000   0.2886751   0.0619441), wk =   0.0017778
        k(  741) = (   0.1000000   0.2886751   0.0825922), wk =   0.0017778
        k(  742) = (   0.1000000   0.2886751   0.1032402), wk =   0.0017778
        k(  743) = (   0.1000000   0.2886751   0.1238882), wk =   0.0017778
        k(  744) = (   0.1000000   0.2886751   0.1445363), wk =   0.0017778
        k(  745) = (   0.1000000   0.2886751   0.1651843), wk =   0.0017778
        k(  746) = (   0.1000000   0.2886751   0.1858323), wk =   0.0017778
        k(  747) = (   0.1000000   0.2886751   0.2064804), wk =   0.0017778
        k(  748) = (   0.1000000   0.2886751   0.2271284), wk =   0.0017778
        k(  749) = (   0.1000000   0.2886751   0.2477765), wk =   0.0017778
        k(  750) = (   0.1000000   0.2886751   0.2684245), wk =   0.0017778
        k(  751) = (   0.1000000   0.2886751   0.2890725), wk =   0.0017778
        k(  752) = (   0.1000000   0.2886751  -0.3097206), wk =   0.0008889
        k(  753) = (   0.1000000   0.3271652   0.0000000), wk =   0.0008889
        k(  754) = (   0.1000000   0.3271652   0.0206480), wk =   0.0017778
        k(  755) = (   0.1000000   0.3271652   0.0412961), wk =   0.0017778
        k(  756) = (   0.1000000   0.3271652   0.0619441), wk =   0.0017778
        k(  757) = (   0.1000000   0.3271652   0.0825922), wk =   0.0017778
        k(  758) = (   0.1000000   0.3271652   0.1032402), wk =   0.0017778
        k(  759) = (   0.1000000   0.3271652   0.1238882), wk =   0.0017778
        k(  760) = (   0.1000000   0.3271652   0.1445363), wk =   0.0017778
        k(  761) = (   0.1000000   0.3271652   0.1651843), wk =   0.0017778
        k(  762) = (   0.1000000   0.3271652   0.1858323), wk =   0.0017778
        k(  763) = (   0.1000000   0.3271652   0.2064804), wk =   0.0017778
        k(  764) = (   0.1000000   0.3271652   0.2271284), wk =   0.0017778
        k(  765) = (   0.1000000   0.3271652   0.2477765), wk =   0.0017778
        k(  766) = (   0.1000000   0.3271652   0.2684245), wk =   0.0017778
        k(  767) = (   0.1000000   0.3271652   0.2890725), wk =   0.0017778
        k(  768) = (   0.1000000   0.3271652  -0.3097206), wk =   0.0008889
        k(  769) = (   0.1000000   0.3656552   0.0000000), wk =   0.0008889
        k(  770) = (   0.1000000   0.3656552   0.0206480), wk =   0.0017778
        k(  771) = (   0.1000000   0.3656552   0.0412961), wk =   0.0017778
        k(  772) = (   0.1000000   0.3656552   0.0619441), wk =   0.0017778
        k(  773) = (   0.1000000   0.3656552   0.0825922), wk =   0.0017778
        k(  774) = (   0.1000000   0.3656552   0.1032402), wk =   0.0017778
        k(  775) = (   0.1000000   0.3656552   0.1238882), wk =   0.0017778
        k(  776) = (   0.1000000   0.3656552   0.1445363), wk =   0.0017778
        k(  777) = (   0.1000000   0.3656552   0.1651843), wk =   0.0017778
        k(  778) = (   0.1000000   0.3656552   0.1858323), wk =   0.0017778
        k(  779) = (   0.1000000   0.3656552   0.2064804), wk =   0.0017778
        k(  780) = (   0.1000000   0.3656552   0.2271284), wk =   0.0017778
        k(  781) = (   0.1000000   0.3656552   0.2477765), wk =   0.0017778
        k(  782) = (   0.1000000   0.3656552   0.2684245), wk =   0.0017778
        k(  783) = (   0.1000000   0.3656552   0.2890725), wk =   0.0017778
        k(  784) = (   0.1000000   0.3656552  -0.3097206), wk =   0.0008889
        k(  785) = (   0.1000000   0.4041452   0.0000000), wk =   0.0008889
        k(  786) = (   0.1000000   0.4041452   0.0206480), wk =   0.0017778
        k(  787) = (   0.1000000   0.4041452   0.0412961), wk =   0.0017778
        k(  788) = (   0.1000000   0.4041452   0.0619441), wk =   0.0017778
        k(  789) = (   0.1000000   0.4041452   0.0825922), wk =   0.0017778
        k(  790) = (   0.1000000   0.4041452   0.1032402), wk =   0.0017778
        k(  791) = (   0.1000000   0.4041452   0.1238882), wk =   0.0017778
        k(  792) = (   0.1000000   0.4041452   0.1445363), wk =   0.0017778
        k(  793) = (   0.1000000   0.4041452   0.1651843), wk =   0.0017778
        k(  794) = (   0.1000000   0.4041452   0.1858323), wk =   0.0017778
        k(  795) = (   0.1000000   0.4041452   0.2064804), wk =   0.0017778
        k(  796) = (   0.1000000   0.4041452   0.2271284), wk =   0.0017778
        k(  797) = (   0.1000000   0.4041452   0.2477765), wk =   0.0017778
        k(  798) = (   0.1000000   0.4041452   0.2684245), wk =   0.0017778
        k(  799) = (   0.1000000   0.4041452   0.2890725), wk =   0.0017778
        k(  800) = (   0.1000000   0.4041452  -0.3097206), wk =   0.0008889
        k(  801) = (   0.1000000   0.4426352   0.0000000), wk =   0.0008889
        k(  802) = (   0.1000000   0.4426352   0.0206480), wk =   0.0017778
        k(  803) = (   0.1000000   0.4426352   0.0412961), wk =   0.0017778
        k(  804) = (   0.1000000   0.4426352   0.0619441), wk =   0.0017778
        k(  805) = (   0.1000000   0.4426352   0.0825922), wk =   0.0017778
        k(  806) = (   0.1000000   0.4426352   0.1032402), wk =   0.0017778
        k(  807) = (   0.1000000   0.4426352   0.1238882), wk =   0.0017778
        k(  808) = (   0.1000000   0.4426352   0.1445363), wk =   0.0017778
        k(  809) = (   0.1000000   0.4426352   0.1651843), wk =   0.0017778
        k(  810) = (   0.1000000   0.4426352   0.1858323), wk =   0.0017778
        k(  811) = (   0.1000000   0.4426352   0.2064804), wk =   0.0017778
        k(  812) = (   0.1000000   0.4426352   0.2271284), wk =   0.0017778
        k(  813) = (   0.1000000   0.4426352   0.2477765), wk =   0.0017778
        k(  814) = (   0.1000000   0.4426352   0.2684245), wk =   0.0017778
        k(  815) = (   0.1000000   0.4426352   0.2890725), wk =   0.0017778
        k(  816) = (   0.1000000   0.4426352  -0.3097206), wk =   0.0008889
        k(  817) = (   0.1000000   0.4811252   0.0000000), wk =   0.0008889
        k(  818) = (   0.1000000   0.4811252   0.0206480), wk =   0.0017778
        k(  819) = (   0.1000000   0.4811252   0.0412961), wk =   0.0017778
        k(  820) = (   0.1000000   0.4811252   0.0619441), wk =   0.0017778
        k(  821) = (   0.1000000   0.4811252   0.0825922), wk =   0.0017778
        k(  822) = (   0.1000000   0.4811252   0.1032402), wk =   0.0017778
        k(  823) = (   0.1000000   0.4811252   0.1238882), wk =   0.0017778
        k(  824) = (   0.1000000   0.4811252   0.1445363), wk =   0.0017778
        k(  825) = (   0.1000000   0.4811252   0.1651843), wk =   0.0017778
        k(  826) = (   0.1000000   0.4811252   0.1858323), wk =   0.0017778
        k(  827) = (   0.1000000   0.4811252   0.2064804), wk =   0.0017778
        k(  828) = (   0.1000000   0.4811252   0.2271284), wk =   0.0017778
        k(  829) = (   0.1000000   0.4811252   0.2477765), wk =   0.0017778
        k(  830) = (   0.1000000   0.4811252   0.2684245), wk =   0.0017778
        k(  831) = (   0.1000000   0.4811252   0.2890725), wk =   0.0017778
        k(  832) = (   0.1000000   0.4811252  -0.3097206), wk =   0.0008889
        k(  833) = (   0.1000000   0.5196152   0.0000000), wk =   0.0008889
        k(  834) = (   0.1000000   0.5196152   0.0206480), wk =   0.0017778
        k(  835) = (   0.1000000   0.5196152   0.0412961), wk =   0.0017778
        k(  836) = (   0.1000000   0.5196152   0.0619441), wk =   0.0017778
        k(  837) = (   0.1000000   0.5196152   0.0825922), wk =   0.0017778
        k(  838) = (   0.1000000   0.5196152   0.1032402), wk =   0.0017778
        k(  839) = (   0.1000000   0.5196152   0.1238882), wk =   0.0017778
        k(  840) = (   0.1000000   0.5196152   0.1445363), wk =   0.0017778
        k(  841) = (   0.1000000   0.5196152   0.1651843), wk =   0.0017778
        k(  842) = (   0.1000000   0.5196152   0.1858323), wk =   0.0017778
        k(  843) = (   0.1000000   0.5196152   0.2064804), wk =   0.0017778
        k(  844) = (   0.1000000   0.5196152   0.2271284), wk =   0.0017778
        k(  845) = (   0.1000000   0.5196152   0.2477765), wk =   0.0017778
        k(  846) = (   0.1000000   0.5196152   0.2684245), wk =   0.0017778
        k(  847) = (   0.1000000   0.5196152   0.2890725), wk =   0.0017778
        k(  848) = (   0.1000000   0.5196152  -0.3097206), wk =   0.0008889
        k(  849) = (   0.1000000   0.5581053   0.0000000), wk =   0.0008889
        k(  850) = (   0.1000000   0.5581053   0.0206480), wk =   0.0017778
        k(  851) = (   0.1000000   0.5581053   0.0412961), wk =   0.0017778
        k(  852) = (   0.1000000   0.5581053   0.0619441), wk =   0.0017778
        k(  853) = (   0.1000000   0.5581053   0.0825922), wk =   0.0017778
        k(  854) = (   0.1000000   0.5581053   0.1032402), wk =   0.0017778
        k(  855) = (   0.1000000   0.5581053   0.1238882), wk =   0.0017778
        k(  856) = (   0.1000000   0.5581053   0.1445363), wk =   0.0017778
        k(  857) = (   0.1000000   0.5581053   0.1651843), wk =   0.0017778
        k(  858) = (   0.1000000   0.5581053   0.1858323), wk =   0.0017778
        k(  859) = (   0.1000000   0.5581053   0.2064804), wk =   0.0017778
        k(  860) = (   0.1000000   0.5581053   0.2271284), wk =   0.0017778
        k(  861) = (   0.1000000   0.5581053   0.2477765), wk =   0.0017778
        k(  862) = (   0.1000000   0.5581053   0.2684245), wk =   0.0017778
        k(  863) = (   0.1000000   0.5581053   0.2890725), wk =   0.0017778
        k(  864) = (   0.1000000   0.5581053  -0.3097206), wk =   0.0008889
        k(  865) = (   0.1333333   0.2309401   0.0000000), wk =   0.0004444
        k(  866) = (   0.1333333   0.2309401   0.0206480), wk =   0.0008889
        k(  867) = (   0.1333333   0.2309401   0.0412961), wk =   0.0008889
        k(  868) = (   0.1333333   0.2309401   0.0619441), wk =   0.0008889
        k(  869) = (   0.1333333   0.2309401   0.0825922), wk =   0.0008889
        k(  870) = (   0.1333333   0.2309401   0.1032402), wk =   0.0008889
        k(  871) = (   0.1333333   0.2309401   0.1238882), wk =   0.0008889
        k(  872) = (   0.1333333   0.2309401   0.1445363), wk =   0.0008889
        k(  873) = (   0.1333333   0.2309401   0.1651843), wk =   0.0008889
        k(  874) = (   0.1333333   0.2309401   0.1858323), wk =   0.0008889
        k(  875) = (   0.1333333   0.2309401   0.2064804), wk =   0.0008889
        k(  876) = (   0.1333333   0.2309401   0.2271284), wk =   0.0008889
        k(  877) = (   0.1333333   0.2309401   0.2477765), wk =   0.0008889
        k(  878) = (   0.1333333   0.2309401   0.2684245), wk =   0.0008889
        k(  879) = (   0.1333333   0.2309401   0.2890725), wk =   0.0008889
        k(  880) = (   0.1333333   0.2309401  -0.3097206), wk =   0.0004444
        k(  881) = (   0.1333333   0.2694301   0.0000000), wk =   0.0008889
        k(  882) = (   0.1333333   0.2694301   0.0206480), wk =   0.0017778
        k(  883) = (   0.1333333   0.2694301   0.0412961), wk =   0.0017778
        k(  884) = (   0.1333333   0.2694301   0.0619441), wk =   0.0017778
        k(  885) = (   0.1333333   0.2694301   0.0825922), wk =   0.0017778
        k(  886) = (   0.1333333   0.2694301   0.1032402), wk =   0.0017778
        k(  887) = (   0.1333333   0.2694301   0.1238882), wk =   0.0017778
        k(  888) = (   0.1333333   0.2694301   0.1445363), wk =   0.0017778
        k(  889) = (   0.1333333   0.2694301   0.1651843), wk =   0.0017778
        k(  890) = (   0.1333333   0.2694301   0.1858323), wk =   0.0017778
        k(  891) = (   0.1333333   0.2694301   0.2064804), wk =   0.0017778
        k(  892) = (   0.1333333   0.2694301   0.2271284), wk =   0.0017778
        k(  893) = (   0.1333333   0.2694301   0.2477765), wk =   0.0017778
        k(  894) = (   0.1333333   0.2694301   0.2684245), wk =   0.0017778
        k(  895) = (   0.1333333   0.2694301   0.2890725), wk =   0.0017778
        k(  896) = (   0.1333333   0.2694301  -0.3097206), wk =   0.0008889
        k(  897) = (   0.1333333   0.3079201   0.0000000), wk =   0.0008889
        k(  898) = (   0.1333333   0.3079201   0.0206480), wk =   0.0017778
        k(  899) = (   0.1333333   0.3079201   0.0412961), wk =   0.0017778
[...]
     0.0000   0.0000   0.0000   0.0000   0.0000   0.0000   0.0000   0.0000
     0.0000   0.0000   0.0000   0.0000   0.0000   0.0000   0.0000   0.0000

          k = 0.3333 0.5774 0.1858 (  3291 PWs)   bands (ev):

   -10.2542 -10.2542   1.2887   1.3578   1.3578   1.6763   1.9944   1.9944
     2.2927   2.3556   2.7117   2.7117   3.1979   3.1979   3.6222   4.7300
     5.3619   5.3619  14.4065  14.4065  14.5850  14.8095  16.0644  16.0644
    20.6882  21.6813  21.6813  24.5340  26.5448  26.5448  29.7740  30.5433
    32.1430  32.1430  34.0186  34.0186  35.6826  36.1340  36.1340  36.4224
    41.0674  41.3706  41.3706  43.0367  43.0367  45.2203  45.2914  45.2914
    45.3759  46.3124  46.3124  47.0497  48.2432  48.2432  48.3071  50.5663
    50.5663  51.6708  53.0378  53.4336  53.7473  53.7473  54.8834  54.8834
    56.0701  56.0701  58.4010  60.2157  60.2157  61.0013  62.9668  62.9668

     occupation numbers 
     1.0000   1.0000   1.0000   1.0000   1.0000   1.0000   1.0000   1.0000
     1.0000   1.0000   1.0000   1.0000   1.0000   1.0000   1.0000   1.0000
     1.0000   1.0000   0.0000   0.0000   0.0000   0.0000   0.0000   0.0000
     0.0000   0.0000   0.0000   0.0000   0.0000   0.0000   0.0000   0.0000
     0.0000   0.0000   0.0000   0.0000   0.0000   0.0000   0.0000   0.0000
     0.0000   0.0000   0.0000   0.0000   0.0000   0.0000   0.0000   0.0000
     0.0000   0.0000   0.0000   0.0000   0.0000   0.0000   0.0000   0.0000
     0.0000   0.0000   0.0000   0.0000   0.0000   0.0000   0.0000   0.0000
     0.0000   0.0000   0.0000   0.0000   0.0000   0.0000   0.0000   0.0000

          k = 0.3333 0.5774 0.2065 (  3285 PWs)   bands (ev):

   -10.2533 -10.2533   1.3099   1.3262   1.3262   1.6352   1.9841   1.9841
     2.2982   2.3513   2.7387   2.7387   3.1827   3.1827   3.7113   4.6488
     5.4227   5.4227  14.4395  14.4395  14.6106  14.7996  15.9006  15.9006
    20.9041  21.8742  21.8742  24.1286  26.3769  26.3769  29.8237  30.4541
    32.1744  32.1744  33.9143  33.9143  35.9830  36.5706  36.5706  36.9328
    40.7580  41.3664  41.3664  42.6662  42.6662  44.7724  45.2403  45.2403
    45.2878  46.2692  46.2692  46.7554  48.2048  48.2048  48.5343  50.6643
    50.6643  51.4041  53.3459  53.6808  53.6808  54.0786  54.9762  54.9762
    56.1740  56.1740  57.9474  60.2567  60.2567  61.0329  62.5629  62.8889

     occupation numbers 
     1.0000   1.0000   1.0000   1.0000   1.0000   1.0000   1.0000   1.0000
     1.0000   1.0000   1.0000   1.0000   1.0000   1.0000   1.0000   1.0000
     1.0000   1.0000   0.0000   0.0000   0.0000   0.0000   0.0000   0.0000
     0.0000   0.0000   0.0000   0.0000   0.0000   0.0000   0.0000   0.0000
     0.0000   0.0000   0.0000   0.0000   0.0000   0.0000   0.0000   0.0000
     0.0000   0.0000   0.0000   0.0000   0.0000   0.0000   0.0000   0.0000
     0.0000   0.0000   0.0000   0.0000   0.0000   0.0000   0.0000   0.0000
     0.0000   0.0000   0.0000   0.0000   0.0000   0.0000   0.0000   0.0000
     0.0000   0.0000   0.0000   0.0000   0.0000   0.0000   0.0000   0.0000

          k = 0.3333 0.5774 0.2271 (  3285 PWs)   bands (ev):

   -10.2525 -10.2525   1.2987   1.2987   1.3333   1.5950   1.9761   1.9761
     2.3036   2.3466   2.7620   2.7620   3.1690   3.1690   3.8035   4.5628
     5.4763   5.4763  14.4749  14.4749  14.6359  14.7881  15.7537  15.7537
    21.1416  22.0472  22.0472  23.7339  26.2247  26.2247  29.8722  30.3696
    32.2109  32.2109  33.8082  33.8082  36.2939  37.0234  37.0234  37.3786
    40.5380  41.3074  41.3074  42.2989  42.2989  44.1238  45.2359  45.2359
    45.3672  46.2242  46.2242  46.5124  48.1844  48.1844  48.7768  50.7621
    50.7621  51.1040  53.5996  53.5996  53.7066  54.7223  54.9509  54.9509
    56.4023  56.4023  57.5153  60.2119  60.2119  60.7202  62.3228  62.8422

     occupation numbers 
     1.0000   1.0000   1.0000   1.0000   1.0000   1.0000   1.0000   1.0000
     1.0000   1.0000   1.0000   1.0000   1.0000   1.0000   1.0000   1.0000
     1.0000   1.0000   0.0000   0.0000   0.0000   0.0000   0.0000   0.0000
     0.0000   0.0000   0.0000   0.0000   0.0000   0.0000   0.0000   0.0000
     0.0000   0.0000   0.0000   0.0000   0.0000   0.0000   0.0000   0.0000
     0.0000   0.0000   0.0000   0.0000   0.0000   0.0000   0.0000   0.0000
     0.0000   0.0000   0.0000   0.0000   0.0000   0.0000   0.0000   0.0000
     0.0000   0.0000   0.0000   0.0000   0.0000   0.0000   0.0000   0.0000
     0.0000   0.0000   0.0000   0.0000   0.0000   0.0000   0.0000   0.0000

          k = 0.3333 0.5774 0.2478 (  3300 PWs)   bands (ev):

   -10.2519 -10.2519   1.2763   1.2763   1.3589   1.5560   1.9701   1.9701
     2.3092   2.3417   2.7810   2.7810   3.1573   3.1573   3.8981   4.4730
     5.5204   5.5204  14.5103  14.5103  14.6603  14.7750  15.6286  15.6286
    21.4002  22.1932  22.1932  23.3517  26.0952  26.0952  29.9214  30.2904
    32.2482  32.2482  33.7117  33.7117  36.6105  37.4729  37.4729  37.6904
    40.4758  41.1435  41.1435  42.0198  42.0198  43.4561  45.2577  45.2577
    45.4588  46.1785  46.1785  46.3043  48.1774  48.1774  49.0336  50.7940
    50.8496  50.8496  53.5281  53.5281  54.0939  54.8578  54.8578  55.3194
    56.6956  56.6956  57.1506  60.0757  60.0757  60.1211  62.3519  62.8424

     occupation numbers 
     1.0000   1.0000   1.0000   1.0000   1.0000   1.0000   1.0000   1.0000
     1.0000   1.0000   1.0000   1.0000   1.0000   1.0000   1.0000   1.0000
     1.0000   1.0000   0.0000   0.0000   0.0000   0.0000   0.0000   0.0000
     0.0000   0.0000   0.0000   0.0000   0.0000   0.0000   0.0000   0.0000
     0.0000   0.0000   0.0000   0.0000   0.0000   0.0000   0.0000   0.0000
     0.0000   0.0000   0.0000   0.0000   0.0000   0.0000   0.0000   0.0000
     0.0000   0.0000   0.0000   0.0000   0.0000   0.0000   0.0000   0.0000
     0.0000   0.0000   0.0000   0.0000   0.0000   0.0000   0.0000   0.0000
     0.0000   0.0000   0.0000   0.0000   0.0000   0.0000   0.0000   0.0000

          k = 0.3333 0.5774 0.2684 (  3300 PWs)   bands (ev):

   -10.2514 -10.2514   1.2597   1.2597   1.3867   1.5185   1.9660   1.9660
     2.3147   2.3365   2.7952   2.7952   3.1483   3.1483   3.9943   4.3801
     5.5532   5.5532  14.5421  14.5421  14.6834  14.7602  15.5313  15.5313
    21.6793  22.3048  22.3048  22.9837  25.9954  25.9954  29.9726  30.2166
    32.2812  32.2812  33.6341  33.6341  36.9267  37.8013  37.8897  37.8897
    40.6371  40.8690  40.8690  41.8755  41.8755  42.7891  45.2885  45.2885
    45.5632  46.1214  46.1368  46.1368  48.1783  48.1783  49.3033  50.4834
    50.9181  50.9181  53.4779  53.4779  54.4958  54.7532  54.7532  55.7011
    56.9852  56.9852  57.0223  59.4191  59.8893  59.8893  62.4769  62.8684

     occupation numbers 
     1.0000   1.0000   1.0000   1.0000   1.0000   1.0000   1.0000   1.0000
     1.0000   1.0000   1.0000   1.0000   1.0000   1.0000   1.0000   1.0000
     1.0000   1.0000   0.0000   0.0000   0.0000   0.0000   0.0000   0.0000
     0.0000   0.0000   0.0000   0.0000   0.0000   0.0000   0.0000   0.0000
     0.0000   0.0000   0.0000   0.0000   0.0000   0.0000   0.0000   0.0000
     0.0000   0.0000   0.0000   0.0000   0.0000   0.0000   0.0000   0.0000
     0.0000   0.0000   0.0000   0.0000   0.0000   0.0000   0.0000   0.0000
     0.0000   0.0000   0.0000   0.0000   0.0000   0.0000   0.0000   0.0000
     0.0000   0.0000   0.0000   0.0000   0.0000   0.0000   0.0000   0.0000

          k = 0.3333 0.5774 0.2891 (  3294 PWs)   bands (ev):

   -10.2511 -10.2511   1.2496   1.2496   1.4166   1.4826   1.9635   1.9635
     2.3203   2.3312   2.8040   2.8040   3.1426   3.1426   4.0914   4.2850
     5.5735   5.5735  14.5649  14.5649  14.7051  14.7436  15.4684  15.4684
    21.9781  22.3752  22.3752  22.6313  25.9323  25.9323  30.0269  30.1484
    32.3042  32.3042  33.5834  33.5834  37.2317  37.7173  38.2154  38.2154
    40.5957  40.5957  41.0142  41.8194  41.8194  42.1414  45.3142  45.3142
    45.6807  45.9584  46.1067  46.1067  48.1815  48.1815  49.5847  50.1766
    50.9613  50.9613  53.4505  53.4505  54.6749  54.6749  54.9023  55.6259
    57.2060  57.2060  57.3715  58.6968  59.7234  59.7234  62.6257  62.9210

     occupation numbers 
     1.0000   1.0000   1.0000   1.0000   1.0000   1.0000   1.0000   1.0000
     1.0000   1.0000   1.0000   1.0000   1.0000   1.0000   1.0000   1.0000
     1.0000   1.0000   0.0000   0.0000   0.0000   0.0000   0.0000   0.0000
     0.0000   0.0000   0.0000   0.0000   0.0000   0.0000   0.0000   0.0000
     0.0000   0.0000   0.0000   0.0000   0.0000   0.0000   0.0000   0.0000
     0.0000   0.0000   0.0000   0.0000   0.0000   0.0000   0.0000   0.0000
     0.0000   0.0000   0.0000   0.0000   0.0000   0.0000   0.0000   0.0000
     0.0000   0.0000   0.0000   0.0000   0.0000   0.0000   0.0000   0.0000
     0.0000   0.0000   0.0000   0.0000   0.0000   0.0000   0.0000   0.0000

          k = 0.3333 0.5774-0.3097 (  3276 PWs)   bands (ev):

   -10.2510 -10.2510   1.2462   1.2462   1.4486   1.4486   1.9627   1.9627
     2.3258   2.3258   2.8070   2.8070   3.1407   3.1407   4.1886   4.1886
     5.5804   5.5804  14.5734  14.5734  14.7252  14.7252  15.4466  15.4466
    22.2958  22.2958  22.3994  22.3994  25.9106  25.9106  30.0853  30.0853
    32.3125  32.3125  33.5658  33.5658  37.5070  37.5070  38.3473  38.3473
    40.4765  40.4765  41.5369  41.5369  41.8052  41.8052  45.3241  45.3241
    45.8120  45.8120  46.0956  46.0956  48.1831  48.1831  49.8764  49.8764
    50.9761  50.9761  53.4422  53.4422  54.6460  54.6460  55.2962  55.2962
    57.2910  57.2910  57.9943  57.9943  59.6553  59.6553  62.7761  62.7762

     occupation numbers 
     1.0000   1.0000   1.0000   1.0000   1.0000   1.0000   1.0000   1.0000
     1.0000   1.0000   1.0000   1.0000   1.0000   1.0000   1.0000   1.0000
     1.0000   1.0000   0.0000   0.0000   0.0000   0.0000   0.0000   0.0000
     0.0000   0.0000   0.0000   0.0000   0.0000   0.0000   0.0000   0.0000
     0.0000   0.0000   0.0000   0.0000   0.0000   0.0000   0.0000   0.0000
     0.0000   0.0000   0.0000   0.0000   0.0000   0.0000   0.0000   0.0000
     0.0000   0.0000   0.0000   0.0000   0.0000   0.0000   0.0000   0.0000
     0.0000   0.0000   0.0000   0.0000   0.0000   0.0000   0.0000   0.0000
     0.0000   0.0000   0.0000   0.0000   0.0000   0.0000   0.0000   0.0000

     highest occupied, lowest unoccupied level (ev):     6.7699    7.5096

!    total energy              =    -361.64695172 Ry
     estimated scf accuracy    <          5.9E-11 Ry

     The total energy is the sum of the following terms:
     one-electron contribution =    -155.40730721 Ry
     hartree contribution      =     118.59345165 Ry
     xc contribution           =    -109.52714749 Ry
     ewald contribution        =    -215.30594867 Ry

     convergence has been achieved in  14 iterations

     Forces acting on atoms (cartesian axes, Ry/au):

     atom    1 type  1   force =     0.00000000    0.00000000    0.00000993
     atom    2 type  1   force =     0.00000000   -0.00000000    0.00000993
     atom    3 type  2   force =     0.00000000    0.00000000   -0.00000993
     atom    4 type  2   force =     0.00000000    0.00000000   -0.00000993
     The non-local contrib.  to forces
     atom    1 type  1   force =     0.00000000    0.00000000   -0.00480977
     atom    2 type  1   force =     0.00000000    0.00000000   -0.00480977
     atom    3 type  2   force =    -0.00000000    0.00000000    0.00540609
     atom    4 type  2   force =     0.00000000    0.00000000    0.00540609
     The ionic contribution  to forces
     atom    1 type  1   force =    -0.00000000    0.00000000    0.06174506
     atom    2 type  1   force =     0.00000000   -0.00000000    0.06174506
     atom    3 type  2   force =    -0.00000000    0.00000000   -0.06174506
     atom    4 type  2   force =     0.00000000   -0.00000000   -0.06174506
     The local contribution  to forces
     atom    1 type  1   force =    -0.00000002    0.00000001   -0.05738880
     atom    2 type  1   force =     0.00000006   -0.00000004   -0.05738880
     atom    3 type  2   force =    -0.00000001    0.00000000    0.05639809
     atom    4 type  2   force =     0.00000002   -0.00000001    0.05639808
     The core correction contribution to forces
     atom    1 type  1   force =    -0.00000000    0.00000000    0.00046296
     atom    2 type  1   force =     0.00000001   -0.00000000    0.00046296
     atom    3 type  2   force =     0.00000000   -0.00000000   -0.00006181
     atom    4 type  2   force =    -0.00000000    0.00000000   -0.00006181
     The Hubbard contrib.    to forces
     atom    1 type  1   force =     0.00000000    0.00000000    0.00000000
     atom    2 type  1   force =     0.00000000    0.00000000    0.00000000
     atom    3 type  2   force =     0.00000000    0.00000000    0.00000000
     atom    4 type  2   force =     0.00000000    0.00000000    0.00000000
     The SCF correction term to forces
     atom    1 type  1   force =     0.00000000   -0.00000000    0.00000678
     atom    2 type  1   force =    -0.00000000    0.00000000    0.00000678
     atom    3 type  2   force =     0.00000000   -0.00000000   -0.00000092
     atom    4 type  2   force =    -0.00000000    0.00000000   -0.00000092

     Total force =     0.000020     Total SCF correction =     0.000010
     SCF correction compared to forces is large: reduce conv_thr to get better values


     Computing stress (Cartesian axis) and pressure

          total   stress  (Ry/bohr**3)                   (kbar)     P=        0.44
   0.00000300   0.00000000  -0.00000000            0.44        0.00       -0.00
   0.00000000   0.00000300  -0.00000000            0.00        0.44       -0.00
  -0.00000000  -0.00000000   0.00000301           -0.00       -0.00        0.44

     kinetic stress (kbar)  23923.42      0.00     -0.00
                                0.00  23923.42      0.00
                               -0.00      0.00  23945.29

     local   stress (kbar)   3377.07     -0.00     -0.00
                               -0.00   3377.07      0.00
                               -0.00      0.00   1478.93

     nonloc. stress (kbar)  -3117.58      0.00      0.00
                                0.00  -3117.58      0.00
                                0.00      0.00  -3123.35

     hartree stress (kbar)  17201.34      0.00      0.00
                                0.00  17201.34      0.00
                                0.00      0.00  18093.06

     exc-cor stress (kbar)  13371.52      0.00      0.00
                                0.00  13371.52     -0.00
                                0.00     -0.00  13371.37

     corecor stress (kbar) -22656.68     -0.00     -0.00
                               -0.00 -22656.68      0.00
                               -0.00      0.00 -22656.34

     ewald   stress (kbar) -32098.64      0.00      0.00
                                0.00 -32098.64     -0.00
                                0.00     -0.00 -31108.52

     hubbard stress (kbar)      0.00      0.00      0.00
                                0.00      0.00      0.00
                                0.00      0.00      0.00

     DFT-D   stress (kbar)      0.00      0.00      0.00
                                0.00      0.00      0.00
                                0.00      0.00      0.00

     XDM     stress (kbar)      0.00      0.00      0.00
                                0.00      0.00      0.00
                                0.00      0.00      0.00

     dft-nl  stress (kbar)      0.00      0.00      0.00
                                0.00      0.00      0.00
                                0.00      0.00      0.00

     TS-vdW  stress (kbar)      0.00      0.00      0.00
                                0.00      0.00      0.00
                                0.00      0.00      0.00

     MDB     stress (kbar)      0.00      0.00      0.00
                                0.00      0.00      0.00
                                0.00      0.00      0.00

     3D-RISM stress (kbar)      0.00      0.00      0.00
                                0.00      0.00      0.00
                                0.00      0.00      0.00


     Writing all to output data dir ./ZnO_PBE_bulk.save/

     init_run     :   1823.31s CPU  15029.70s WALL (       1 calls)
     electrons    :  98340.05s CPU 319625.04s WALL (       1 calls)
     forces       :    793.01s CPU   1930.63s WALL (       1 calls)
     stress       :    234.64s CPU    562.85s WALL (       1 calls)

     Called by init_run:
     wfcinit      :   1818.19s CPU  14981.95s WALL (       1 calls)
     wfcinit:atom :      0.09s CPU      0.08s WALL (     364 calls)
     wfcinit:wfcr :   1817.47s CPU  14981.24s WALL (     364 calls)
     potinit      :      0.79s CPU      7.41s WALL (       1 calls)
     hinit0       :      1.57s CPU     15.39s WALL (       1 calls)

     Called by electrons:
     c_bands      :  86781.32s CPU 285079.72s WALL (      14 calls)
     sum_band     :  11452.03s CPU  34211.76s WALL (      14 calls)
     v_of_rho     :      5.94s CPU     22.40s WALL (      15 calls)
     v_h          :      1.39s CPU      6.27s WALL (      15 calls)
     v_xc         :      5.59s CPU     20.00s WALL (      17 calls)
     newd         :     22.49s CPU     61.77s WALL (      15 calls)
     mix_rho      :     70.20s CPU    227.80s WALL (      14 calls)

     Called by c_bands:
     init_us_2    :      2.51s CPU      4.15s WALL (   11284 calls)
     init_us_2:cp :      2.46s CPU      4.09s WALL (   11284 calls)
     cegterg      :  75565.40s CPU 249286.88s WALL (    5096 calls)

     Called by sum_band:
     sum_band:wei :      1.30s CPU      4.32s WALL (      14 calls)
     sum_band:loo :  11314.88s CPU  33756.68s WALL (      14 calls)
     sum_band:buf :      0.53s CPU      1.38s WALL (    5096 calls)
     sum_band:ini :      0.86s CPU      1.52s WALL (    5096 calls)
     sum_band:cal :   2664.21s CPU   5468.46s WALL (    5096 calls)
     sum_band:bec :      0.37s CPU      0.54s WALL (    5096 calls)
     addusdens    :      3.55s CPU      8.44s WALL (      14 calls)
                                        0.00s GPU  (      14 calls)
     addusd:skk   :      0.00s CPU      0.00s WALL (      28 calls)
                                        0.00s GPU  (      28 calls)

     Called by *egterg:
     cdiaghg      :   6069.45s CPU  17703.84s WALL (   18216 calls)
     cegterg:over :  11112.17s CPU  29139.17s WALL (   13120 calls)
     cegterg:upda :    358.86s CPU   1591.64s WALL (   13120 calls)
     cegterg:last :    424.87s CPU   1850.78s WALL (    9130 calls)
     h_psi        :  48109.70s CPU 187539.96s WALL (   18580 calls)
     s_psi        :    174.78s CPU    808.13s WALL (   18580 calls)
     g_psi        :      1.96s CPU      1.12s WALL (   13120 calls)

     Called by h_psi:
     h_psi:calbec :   8067.49s CPU  20162.81s WALL (   18580 calls)
     vloc_psi     :  39650.58s CPU 165472.33s WALL (   18580 calls)
     add_vuspsi   :    390.25s CPU   1902.18s WALL (   18580 calls)

     General routines
     calbec       :  11733.94s CPU  28040.24s WALL (   25496 calls)
     fft          :      4.66s CPU     18.82s WALL (     218 calls)
     ffts         :      8.30s CPU     29.15s WALL (     432 calls)
     fftw         :  48257.17s CPU 193703.34s WALL ( 2072264 calls)
     interpolate  :      1.05s CPU      5.45s WALL (      15 calls)

     Parallel routines

     PWSCF        :   1d 6h47m CPU   4d 5h 3m WALL


   This run was terminated on:  23:48:18  25May2025            

=------------------------------------------------------------------------------=
   JOB DONE.
=------------------------------------------------------------------------------=
Note: The following floating-point exceptions are signalling: IEEE_INVALID_FLAG
Note: The following floating-point exceptions are signalling: IEEE_INVALID_FLAG
Note: The following floating-point exceptions are signalling: IEEE_INVALID_FLAG
Note: The following floating-point exceptions are signalling: IEEE_INVALID_FLAG
