
     Program PWSCF v.7.2 starts on 23Aug2025 at 16:28:31 

     This program is part of the open-source Quantum ESPRESSO suite
     for quantum simulation of materials; please cite
         "P. Giannozzi et al., J. Phys.:Condens. Matter 21 395502 (2009);
         "P. Giannozzi et al., J. Phys.:Condens. Matter 29 465901 (2017);
         "P. Giannozzi et al., J. Chem. Phys. 152 154105 (2020);
          URL http://www.quantum-espresso.org", 
     in publications or presentations arising from this work. More details at
     http://www.quantum-espresso.org/quote

     Parallel version (MPI), running on    32 processors

     MPI processes distributed on     1 nodes
     121803 MiB available memory on the printing compute node when the environment starts

     Reading input from /home/jvc/QEspresso7.2/ZnO_database/scripts/cell221.in/ZnO-3.07-1.45-221.in
Warning: card &CELL ignored
Warning: card / ignored
Warning: card &FCP ignored
Warning: card / ignored
Warning: card &RISM ignored
Warning: card / ignored

     Current dimensions of program PWSCF are:
     Max number of different atomic species (ntypx) = 10
     Max number of k-points (npk) =  40000
     Max angular momentum in pseudopotentials (lmaxx) =  4
     file Zn.upf: wavefunction(s)  3D renormalized
     Found identity + (  0.0000 -0.5000  0.0000) symmetry
     This is a supercell, fractional translations are disabled
     Message from routine setup:
     using ibrav=0 with symmetry is DISCOURAGED, use correct ibrav instead

     K-points division:     npool     =       8
     band groups division:  nbgrp     =       4
     Subspace diagonalization in iterative solution of the eigenvalue problem:
     a serial algorithm will be used


     G-vector sticks info
     --------------------
     sticks:   dense  smooth     PW     G-vecs:    dense   smooth      PW
     Sum        3697    1867    535               133277    47083    7275

     Using Slab Decomposition



     bravais-lattice index     =            0
     lattice parameter (alat)  =      11.6162  a.u.
     unit-cell volume          =     986.1442 (a.u.)^3
     number of atoms/cell      =           16
     number of atomic types    =            2
     number of electrons       =       144.00
     number of Kohn-Sham states=           72
     kinetic-energy cutoff     =      50.0000  Ry
     charge density cutoff     =     400.0000  Ry
     scf convergence threshold =      1.0E-08
     mixing beta               =       0.3000
     number of iterations used =            8  plain     mixing
     Exchange-correlation= PBE
                           (   1   4   3   4   0   0   0)

     celldm(1)=  11.616245  celldm(2)=   0.000000  celldm(3)=   0.000000
     celldm(4)=   0.000000  celldm(5)=   0.000000  celldm(6)=   0.000000

     crystal axes: (cart. coord. in units of alat)
               a(1) = (   1.000000   0.000000   0.000000 )  
               a(2) = (  -0.500000   0.866025   0.000000 )  
               a(3) = (   0.000000   0.000000   0.726461 )  

     reciprocal axes: (cart. coord. in units 2 pi/alat)
               b(1) = (  1.000000  0.577350 -0.000000 )  
               b(2) = (  0.000000  1.154701  0.000000 )  
               b(3) = (  0.000000 -0.000000  1.376536 )  


     PseudoPot. # 1 for Zn read from file:
     /home/jvc/QEspresso7.2/ZnO_database/pseudos/Zn.upf
     MD5 check sum: 7f56cabf9682ed8c977c2f7d0c5985c5
     Pseudo is Ultrasoft + core correction, Zval = 12.0
     Generated using &quot;atomic&quot; code by A. Dal Corso  v.6.2.2
     Using radial grid of 1201 points,  6 beta functions with: 
                l(1) =   0
                l(2) =   0
                l(3) =   1
                l(4) =   1
                l(5) =   2
                l(6) =   2
     Q(r) pseudized with 0 coefficients 


     PseudoPot. # 2 for O  read from file:
     /home/jvc/QEspresso7.2/ZnO_database/pseudos/O.upf
     MD5 check sum: 91400c9766925bcf19f520983a725ff0
     Pseudo is Ultrasoft + core correction, Zval =  6.0
     Generated using &quot;atomic&quot; code by A. Dal Corso  v.6.3MaX
     Using radial grid of 1095 points,  4 beta functions with: 
                l(1) =   0
                l(2) =   0
                l(3) =   1
                l(4) =   1
     Q(r) pseudized with 0 coefficients 


     atomic species   valence    mass     pseudopotential
        Zn            12.00    65.38000     Zn( 1.00)
        O              6.00    15.99900     O ( 1.00)

      6 Sym. Ops. (no inversion) found


                                    s                        frac. trans.

      isym =  1     identity                                     

 cryst.   s( 1) = (     1          0          0      )
                  (     0          1          0      )
                  (     0          0          1      )

 cart.    s( 1) = (  1.0000000  0.0000000  0.0000000 )
                  (  0.0000000  1.0000000  0.0000000 )
                  (  0.0000000  0.0000000  1.0000000 )


      isym =  2     120 deg rotation - cryst. axis [0,0,1]       

 cryst.   s( 2) = (     0          1          0      )
                  (    -1         -1          0      )
                  (     0          0          1      )

 cart.    s( 2) = ( -0.5000000 -0.8660254  0.0000000 )
                  (  0.8660254 -0.5000000  0.0000000 )
                  (  0.0000000  0.0000000  1.0000000 )


      isym =  3     120 deg rotation - cryst. axis [0,0,-1]      

 cryst.   s( 3) = (    -1         -1          0      )
                  (     1          0          0      )
                  (     0          0          1      )

 cart.    s( 3) = ( -0.5000000  0.8660254  0.0000000 )
                  ( -0.8660254 -0.5000000  0.0000000 )
                  (  0.0000000  0.0000000  1.0000000 )


      isym =  4     inv. 180 deg rotation - cart. axis [1,0,0]   

 cryst.   s( 4) = (    -1          0          0      )
                  (     1          1          0      )
                  (     0          0          1      )

 cart.    s( 4) = ( -1.0000000  0.0000000  0.0000000 )
                  (  0.0000000  1.0000000  0.0000000 )
                  (  0.0000000  0.0000000  1.0000000 )


      isym =  5     inv. 180 deg rotation - cryst. axis [0,1,0]  

 cryst.   s( 5) = (     1          1          0      )
                  (     0         -1          0      )
                  (     0          0          1      )

 cart.    s( 5) = (  0.5000000  0.8660254  0.0000000 )
                  (  0.8660254 -0.5000000  0.0000000 )
                  (  0.0000000  0.0000000  1.0000000 )


      isym =  6     inv. 180 deg rotation - cryst. axis [1,1,0]  

 cryst.   s( 6) = (     0         -1          0      )
                  (    -1          0          0      )
                  (     0          0          1      )

 cart.    s( 6) = (  0.5000000 -0.8660254  0.0000000 )
                  ( -0.8660254 -0.5000000  0.0000000 )
                  (  0.0000000  0.0000000  1.0000000 )


   Cartesian axes

     site n.     atom                  positions (alat units)
         1           Zn  tau(   1) = (   0.2500000   0.1443376   0.3636909  )
         2           Zn  tau(   2) = (  -0.0000000   0.2886751   0.0004603  )
         3           O   tau(   3) = (   0.2500000   0.1443376   0.6390508  )
         4           O   tau(   4) = (  -0.0000000   0.2886751   0.2758202  )
         5           Zn  tau(   5) = (  -0.0000000   0.5773503   0.3636909  )
         6           Zn  tau(   6) = (  -0.2500000   0.7216878   0.0004603  )
         7           O   tau(   7) = (  -0.0000000   0.5773503   0.6390508  )
         8           O   tau(   8) = (  -0.2500000   0.7216878   0.2758202  )
         9           Zn  tau(   9) = (   0.7500000   0.1443376   0.3636909  )
        10           Zn  tau(  10) = (   0.5000000   0.2886751   0.0004603  )
        11           O   tau(  11) = (   0.7500000   0.1443376   0.6390508  )
        12           O   tau(  12) = (   0.5000000   0.2886751   0.2758202  )
        13           Zn  tau(  13) = (   0.5000000   0.5773503   0.3636909  )
        14           Zn  tau(  14) = (   0.2500000   0.7216878   0.0004603  )
        15           O   tau(  15) = (   0.5000000   0.5773503   0.6390508  )
        16           O   tau(  16) = (   0.2500000   0.7216878   0.2758202  )

   Crystallographic axes

     site n.     atom                  positions (cryst. coord.)
         1           Zn  tau(   1) = (  0.3333333  0.1666667  0.5006336  )
         2           Zn  tau(   2) = (  0.1666667  0.3333333  0.0006336  )
         3           O   tau(   3) = (  0.3333333  0.1666667  0.8796764  )
         4           O   tau(   4) = (  0.1666667  0.3333333  0.3796764  )
         5           Zn  tau(   5) = (  0.3333333  0.6666667  0.5006336  )
         6           Zn  tau(   6) = (  0.1666667  0.8333333  0.0006336  )
         7           O   tau(   7) = (  0.3333333  0.6666667  0.8796764  )
         8           O   tau(   8) = (  0.1666667  0.8333333  0.3796764  )
         9           Zn  tau(   9) = (  0.8333333  0.1666667  0.5006336  )
        10           Zn  tau(  10) = (  0.6666667  0.3333333  0.0006336  )
        11           O   tau(  11) = (  0.8333333  0.1666667  0.8796764  )
        12           O   tau(  12) = (  0.6666667  0.3333333  0.3796764  )
        13           Zn  tau(  13) = (  0.8333333  0.6666667  0.5006336  )
        14           Zn  tau(  14) = (  0.6666667  0.8333333  0.0006336  )
        15           O   tau(  15) = (  0.8333333  0.6666667  0.8796764  )
        16           O   tau(  16) = (  0.6666667  0.8333333  0.3796764  )

     number of k points=    34
                       cart. coord. in units 2pi/alat
        k(    1) = (   0.0000000   0.0000000   0.0000000), wk =   0.0092593
        k(    2) = (   0.0000000   0.0000000   0.2294226), wk =   0.0185185
        k(    3) = (   0.0000000   0.0000000   0.4588453), wk =   0.0185185
        k(    4) = (   0.0000000   0.0000000  -0.6882679), wk =   0.0092593
        k(    5) = (   0.0000000   0.1924501   0.0000000), wk =   0.0555556
        k(    6) = (   0.0000000   0.1924501   0.2294226), wk =   0.0555556
        k(    7) = (   0.0000000   0.1924501   0.4588453), wk =   0.0555556
        k(    8) = (   0.0000000   0.1924501  -0.6882679), wk =   0.0555556
        k(    9) = (   0.0000000   0.3849002   0.0000000), wk =   0.0555556
        k(   10) = (   0.0000000   0.3849002   0.2294226), wk =   0.0555556
        k(   11) = (   0.0000000   0.3849002   0.4588453), wk =   0.0555556
        k(   12) = (   0.0000000   0.3849002  -0.6882679), wk =   0.0555556
        k(   13) = (   0.0000000  -0.5773503   0.0000000), wk =   0.0277778
        k(   14) = (   0.0000000  -0.5773503   0.2294226), wk =   0.0555556
        k(   15) = (   0.0000000  -0.5773503   0.4588453), wk =   0.0555556
        k(   16) = (   0.0000000  -0.5773503  -0.6882679), wk =   0.0277778
        k(   17) = (   0.1666667   0.2886751   0.0000000), wk =   0.0555556
        k(   18) = (   0.1666667   0.2886751   0.2294226), wk =   0.1111111
        k(   19) = (   0.1666667   0.2886751   0.4588453), wk =   0.1111111
        k(   20) = (   0.1666667   0.2886751  -0.6882679), wk =   0.0555556
        k(   21) = (   0.1666667   0.4811252   0.0000000), wk =   0.1111111
        k(   22) = (   0.1666667   0.4811252   0.2294226), wk =   0.1111111
        k(   23) = (   0.1666667   0.4811252   0.4588453), wk =   0.1111111
        k(   24) = (   0.1666667   0.4811252  -0.6882679), wk =   0.1111111
        k(   25) = (   0.3333333   0.5773503   0.0000000), wk =   0.0185185
        k(   26) = (   0.3333333   0.5773503   0.2294226), wk =   0.0370370
        k(   27) = (   0.3333333   0.5773503   0.4588453), wk =   0.0370370
        k(   28) = (   0.3333333   0.5773503  -0.6882679), wk =   0.0185185
        k(   29) = (   0.0000000  -0.1924501   0.2294226), wk =   0.0555556
        k(   30) = (   0.0000000  -0.1924501   0.4588453), wk =   0.0555556
        k(   31) = (   0.0000000  -0.3849002   0.2294226), wk =   0.0555556
        k(   32) = (   0.0000000  -0.3849002   0.4588453), wk =   0.0555556
        k(   33) = (  -0.1666667  -0.4811252   0.2294226), wk =   0.1111111
        k(   34) = (  -0.1666667  -0.4811252   0.4588453), wk =   0.1111111

                       cryst. coord.
        k(    1) = (   0.0000000   0.0000000   0.0000000), wk =   0.0092593
        k(    2) = (   0.0000000   0.0000000   0.1666667), wk =   0.0185185
        k(    3) = (   0.0000000   0.0000000   0.3333333), wk =   0.0185185
        k(    4) = (   0.0000000   0.0000000  -0.5000000), wk =   0.0092593
        k(    5) = (   0.0000000   0.1666667   0.0000000), wk =   0.0555556
        k(    6) = (   0.0000000   0.1666667   0.1666667), wk =   0.0555556
        k(    7) = (   0.0000000   0.1666667   0.3333333), wk =   0.0555556
        k(    8) = (   0.0000000   0.1666667  -0.5000000), wk =   0.0555556
        k(    9) = (   0.0000000   0.3333333   0.0000000), wk =   0.0555556
        k(   10) = (   0.0000000   0.3333333   0.1666667), wk =   0.0555556
        k(   11) = (   0.0000000   0.3333333   0.3333333), wk =   0.0555556
        k(   12) = (   0.0000000   0.3333333  -0.5000000), wk =   0.0555556
        k(   13) = (   0.0000000  -0.5000000   0.0000000), wk =   0.0277778
        k(   14) = (   0.0000000  -0.5000000   0.1666667), wk =   0.0555556
        k(   15) = (   0.0000000  -0.5000000   0.3333333), wk =   0.0555556
        k(   16) = (   0.0000000  -0.5000000  -0.5000000), wk =   0.0277778
        k(   17) = (   0.1666667   0.1666667   0.0000000), wk =   0.0555556
        k(   18) = (   0.1666667   0.1666667   0.1666667), wk =   0.1111111
        k(   19) = (   0.1666667   0.1666667   0.3333333), wk =   0.1111111
        k(   20) = (   0.1666667   0.1666667  -0.5000000), wk =   0.0555556
        k(   21) = (   0.1666667   0.3333333   0.0000000), wk =   0.1111111
        k(   22) = (   0.1666667   0.3333333   0.1666667), wk =   0.1111111
        k(   23) = (   0.1666667   0.3333333   0.3333333), wk =   0.1111111
        k(   24) = (   0.1666667   0.3333333  -0.5000000), wk =   0.1111111
        k(   25) = (   0.3333333   0.3333333   0.0000000), wk =   0.0185185
        k(   26) = (   0.3333333   0.3333333   0.1666667), wk =   0.0370370
        k(   27) = (   0.3333333   0.3333333   0.3333333), wk =   0.0370370
        k(   28) = (   0.3333333   0.3333333  -0.5000000), wk =   0.0185185
        k(   29) = (   0.0000000  -0.1666667   0.1666667), wk =   0.0555556
        k(   30) = (   0.0000000  -0.1666667   0.3333333), wk =   0.0555556
        k(   31) = (   0.0000000  -0.3333333   0.1666667), wk =   0.0555556
        k(   32) = (   0.0000000  -0.3333333   0.3333333), wk =   0.0555556
        k(   33) = (  -0.1666667  -0.3333333   0.1666667), wk =   0.1111111
        k(   34) = (  -0.1666667  -0.3333333   0.3333333), wk =   0.1111111

     Dense  grid:   133277 G-vectors     FFT dimensions: (  75,  75,  54)

     Smooth grid:    47083 G-vectors     FFT dimensions: (  54,  54,  40)

     Dynamical RAM for                 wfc:       6.47 MB

     Dynamical RAM for     wfc (w. buffer):      38.81 MB

     Dynamical RAM for           str. fact:       4.07 MB

     Dynamical RAM for           local pot:       0.00 MB

     Dynamical RAM for          nlocal pot:      18.69 MB

     Dynamical RAM for                qrad:       3.21 MB

     Dynamical RAM for          rho,v,vnew:      13.05 MB

     Dynamical RAM for               rhoin:       4.35 MB

     Dynamical RAM for            rho*nmix:      32.54 MB

     Dynamical RAM for           G-vectors:       7.99 MB

     Dynamical RAM for          h,s,v(r/c):       0.95 MB

     Dynamical RAM for          <psi|beta>:       0.23 MB

     Dynamical RAM for                 psi:      12.94 MB

     Dynamical RAM for                hpsi:      12.94 MB

     Dynamical RAM for                spsi:      12.94 MB

     Dynamical RAM for      wfcinit/wfcrot:      18.94 MB

     Dynamical RAM for           addusdens:      51.09 MB

     Dynamical RAM for          addusforce:      53.92 MB

     Estimated static dynamical RAM per process >     107.86 MB

     Estimated max dynamical RAM per process >     194.32 MB

     Estimated total dynamical RAM >       5.18 GB

     Check: negative core charge=   -0.000001

     Initial potential from superposition of free atoms

     starting charge     143.9702, renormalised to     144.0000
     Starting wfcs are  104 randomized atomic wfcs

     total cpu time spent up to now is        6.8 secs

     Self-consistent Calculation

     iteration #  1     ecut=    50.00 Ry     beta= 0.30
     Davidson diagonalization with overlap

---- Real-time Memory Report at c_bands before calling an iterative solver
           152 MiB given to the printing process from OS
             0 MiB allocation reported by mallinfo(arena+hblkhd)
        118101 MiB available memory on the node where the printing process lives
------------------
     ethr =  1.00E-02,  avg # of iterations =  2.2

     total cpu time spent up to now is       12.9 secs

     total energy              =   -1445.17285165 Ry
     estimated scf accuracy    <       2.80811826 Ry

     iteration #  2     ecut=    50.00 Ry     beta= 0.30
     Davidson diagonalization with overlap

---- Real-time Memory Report at c_bands before calling an iterative solver
           207 MiB given to the printing process from OS
             0 MiB allocation reported by mallinfo(arena+hblkhd)
        116500 MiB available memory on the node where the printing process lives
------------------
     ethr =  1.95E-03,  avg # of iterations =  2.3

     total cpu time spent up to now is       19.7 secs

     total energy              =   -1445.33413828 Ry
     estimated scf accuracy    <       0.56583869 Ry

     iteration #  3     ecut=    50.00 Ry     beta= 0.30
     Davidson diagonalization with overlap

---- Real-time Memory Report at c_bands before calling an iterative solver
           208 MiB given to the printing process from OS
             0 MiB allocation reported by mallinfo(arena+hblkhd)
        116614 MiB available memory on the node where the printing process lives
------------------
     ethr =  3.93E-04,  avg # of iterations =  7.2

     total cpu time spent up to now is       32.3 secs

     total energy              =   -1445.67492406 Ry
     estimated scf accuracy    <       0.33132792 Ry

     iteration #  4     ecut=    50.00 Ry     beta= 0.30
     Davidson diagonalization with overlap

---- Real-time Memory Report at c_bands before calling an iterative solver
           210 MiB given to the printing process from OS
             0 MiB allocation reported by mallinfo(arena+hblkhd)
        116628 MiB available memory on the node where the printing process lives
------------------
     ethr =  2.30E-04,  avg # of iterations =  2.0

     total cpu time spent up to now is       38.2 secs

     total energy              =   -1445.67839812 Ry
     estimated scf accuracy    <       0.08603079 Ry

     iteration #  5     ecut=    50.00 Ry     beta= 0.30
     Davidson diagonalization with overlap

---- Real-time Memory Report at c_bands before calling an iterative solver
           211 MiB given to the printing process from OS
             0 MiB allocation reported by mallinfo(arena+hblkhd)
        116597 MiB available memory on the node where the printing process lives
------------------
     ethr =  5.97E-05,  avg # of iterations = 10.0

     total cpu time spent up to now is       55.7 secs

     total energy              =   -1445.88687187 Ry
     estimated scf accuracy    <       1.62116834 Ry

     iteration #  6     ecut=    50.00 Ry     beta= 0.30
     Davidson diagonalization with overlap

---- Real-time Memory Report at c_bands before calling an iterative solver
           213 MiB given to the printing process from OS
             0 MiB allocation reported by mallinfo(arena+hblkhd)
        116714 MiB available memory on the node where the printing process lives
------------------
     ethr =  5.97E-05,  avg # of iterations =  5.6

     total cpu time spent up to now is       64.9 secs

     total energy              =   -1445.57552300 Ry
     estimated scf accuracy    <       0.79065018 Ry

     iteration #  7     ecut=    50.00 Ry     beta= 0.30
     Davidson diagonalization with overlap

---- Real-time Memory Report at c_bands before calling an iterative solver
           214 MiB given to the printing process from OS
             0 MiB allocation reported by mallinfo(arena+hblkhd)
        116593 MiB available memory on the node where the printing process lives
------------------
     ethr =  5.97E-05,  avg # of iterations =  7.2

     total cpu time spent up to now is       78.6 secs

     total energy              =   -1445.70982488 Ry
     estimated scf accuracy    <       0.00700211 Ry

     iteration #  8     ecut=    50.00 Ry     beta= 0.30
     Davidson diagonalization with overlap

---- Real-time Memory Report at c_bands before calling an iterative solver
           216 MiB given to the printing process from OS
             0 MiB allocation reported by mallinfo(arena+hblkhd)
        116654 MiB available memory on the node where the printing process lives
------------------
     ethr =  4.86E-06,  avg # of iterations =  8.6

     total cpu time spent up to now is       92.5 secs

     total energy              =   -1445.71515749 Ry
     estimated scf accuracy    <       0.00988834 Ry

     iteration #  9     ecut=    50.00 Ry     beta= 0.30
     Davidson diagonalization with overlap

---- Real-time Memory Report at c_bands before calling an iterative solver
           217 MiB given to the printing process from OS
             0 MiB allocation reported by mallinfo(arena+hblkhd)
        116686 MiB available memory on the node where the printing process lives
------------------
     ethr =  4.86E-06,  avg # of iterations =  2.0

     total cpu time spent up to now is       98.3 secs

     total energy              =   -1445.71333325 Ry
     estimated scf accuracy    <       0.00403868 Ry

     iteration # 10     ecut=    50.00 Ry     beta= 0.30
     Davidson diagonalization with overlap

---- Real-time Memory Report at c_bands before calling an iterative solver
           219 MiB given to the printing process from OS
             0 MiB allocation reported by mallinfo(arena+hblkhd)
        116542 MiB available memory on the node where the printing process lives
------------------
     ethr =  2.80E-06,  avg # of iterations =  5.9

     total cpu time spent up to now is      108.9 secs

     total energy              =   -1445.71556422 Ry
     estimated scf accuracy    <       0.00056060 Ry

     iteration # 11     ecut=    50.00 Ry     beta= 0.30
     Davidson diagonalization with overlap

---- Real-time Memory Report at c_bands before calling an iterative solver
           219 MiB given to the printing process from OS
             0 MiB allocation reported by mallinfo(arena+hblkhd)
        116557 MiB available memory on the node where the printing process lives
------------------
     ethr =  3.89E-07,  avg # of iterations =  4.4

     total cpu time spent up to now is      116.9 secs

     total energy              =   -1445.71560115 Ry
     estimated scf accuracy    <       0.00063064 Ry

     iteration # 12     ecut=    50.00 Ry     beta= 0.30
     Davidson diagonalization with overlap

---- Real-time Memory Report at c_bands before calling an iterative solver
           219 MiB given to the printing process from OS
             0 MiB allocation reported by mallinfo(arena+hblkhd)
        116554 MiB available memory on the node where the printing process lives
------------------
     ethr =  3.89E-07,  avg # of iterations =  1.1

     total cpu time spent up to now is      122.2 secs

     total energy              =   -1445.71544954 Ry
     estimated scf accuracy    <       0.00049932 Ry

     iteration # 13     ecut=    50.00 Ry     beta= 0.30
     Davidson diagonalization with overlap

---- Real-time Memory Report at c_bands before calling an iterative solver
           219 MiB given to the printing process from OS
             0 MiB allocation reported by mallinfo(arena+hblkhd)
        116440 MiB available memory on the node where the printing process lives
------------------
     ethr =  3.47E-07,  avg # of iterations =  1.6

     total cpu time spent up to now is      127.8 secs

     total energy              =   -1445.71540133 Ry
     estimated scf accuracy    <       0.00017702 Ry

     iteration # 14     ecut=    50.00 Ry     beta= 0.30
     Davidson diagonalization with overlap

---- Real-time Memory Report at c_bands before calling an iterative solver
           219 MiB given to the printing process from OS
             0 MiB allocation reported by mallinfo(arena+hblkhd)
        116597 MiB available memory on the node where the printing process lives
------------------
     ethr =  1.23E-07,  avg # of iterations =  4.0

     total cpu time spent up to now is      136.3 secs

     total energy              =   -1445.71547327 Ry
     estimated scf accuracy    <       0.00000017 Ry

     iteration # 15     ecut=    50.00 Ry     beta= 0.30
     Davidson diagonalization with overlap

---- Real-time Memory Report at c_bands before calling an iterative solver
           219 MiB given to the printing process from OS
             0 MiB allocation reported by mallinfo(arena+hblkhd)
        116581 MiB available memory on the node where the printing process lives
------------------
     c_bands:  1 eigenvalues not converged
     c_bands:  1 eigenvalues not converged
     c_bands:  1 eigenvalues not converged
     c_bands:  2 eigenvalues not converged
     ethr =  1.17E-10,  avg # of iterations = 16.7

     total cpu time spent up to now is      165.4 secs

     total energy              =   -1445.71548310 Ry
     estimated scf accuracy    <       0.00003781 Ry

     iteration # 16     ecut=    50.00 Ry     beta= 0.30
     Davidson diagonalization with overlap

---- Real-time Memory Report at c_bands before calling an iterative solver
           219 MiB given to the printing process from OS
             0 MiB allocation reported by mallinfo(arena+hblkhd)
        116725 MiB available memory on the node where the printing process lives
------------------
     ethr =  1.17E-10,  avg # of iterations =  9.9

     total cpu time spent up to now is      182.2 secs

     total energy              =   -1445.71547747 Ry
     estimated scf accuracy    <       0.00001699 Ry

     iteration # 17     ecut=    50.00 Ry     beta= 0.30
     Davidson diagonalization with overlap

---- Real-time Memory Report at c_bands before calling an iterative solver
           219 MiB given to the printing process from OS
             0 MiB allocation reported by mallinfo(arena+hblkhd)
        116636 MiB available memory on the node where the printing process lives
------------------
     ethr =  1.17E-10,  avg # of iterations = 11.9

     total cpu time spent up to now is      202.2 secs

     total energy              =   -1445.71547897 Ry
     estimated scf accuracy    <       0.00000106 Ry

     iteration # 18     ecut=    50.00 Ry     beta= 0.30
     Davidson diagonalization with overlap

---- Real-time Memory Report at c_bands before calling an iterative solver
           219 MiB given to the printing process from OS
             0 MiB allocation reported by mallinfo(arena+hblkhd)
        116597 MiB available memory on the node where the printing process lives
------------------
     ethr =  1.17E-10,  avg # of iterations =  4.8

     total cpu time spent up to now is      211.1 secs

     total energy              =   -1445.71547882 Ry
     estimated scf accuracy    <       0.00000026 Ry

     iteration # 19     ecut=    50.00 Ry     beta= 0.30
     Davidson diagonalization with overlap

---- Real-time Memory Report at c_bands before calling an iterative solver
           219 MiB given to the printing process from OS
             0 MiB allocation reported by mallinfo(arena+hblkhd)
        116564 MiB available memory on the node where the printing process lives
------------------
     ethr =  1.17E-10,  avg # of iterations =  9.3

     total cpu time spent up to now is      226.2 secs

     total energy              =   -1445.71547890 Ry
     estimated scf accuracy    <       0.00000069 Ry

     iteration # 20     ecut=    50.00 Ry     beta= 0.30
     Davidson diagonalization with overlap

---- Real-time Memory Report at c_bands before calling an iterative solver
           219 MiB given to the printing process from OS
             0 MiB allocation reported by mallinfo(arena+hblkhd)
        116568 MiB available memory on the node where the printing process lives
------------------
     ethr =  1.17E-10,  avg # of iterations =  5.2

     total cpu time spent up to now is      236.4 secs

     total energy              =   -1445.71547894 Ry
     estimated scf accuracy    <       0.00000005 Ry

     iteration # 21     ecut=    50.00 Ry     beta= 0.30
     Davidson diagonalization with overlap

---- Real-time Memory Report at c_bands before calling an iterative solver
           219 MiB given to the printing process from OS
             0 MiB allocation reported by mallinfo(arena+hblkhd)
        116621 MiB available memory on the node where the printing process lives
------------------
     ethr =  3.53E-11,  avg # of iterations =  7.1

     total cpu time spent up to now is      248.8 secs

     total energy              =   -1445.71547898 Ry
     estimated scf accuracy    <       0.00000004 Ry

     iteration # 22     ecut=    50.00 Ry     beta= 0.30
     Davidson diagonalization with overlap

---- Real-time Memory Report at c_bands before calling an iterative solver
           219 MiB given to the printing process from OS
             0 MiB allocation reported by mallinfo(arena+hblkhd)
        116591 MiB available memory on the node where the printing process lives
------------------
     ethr =  2.45E-11,  avg # of iterations =  1.7

     total cpu time spent up to now is      254.5 secs

     total energy              =   -1445.71547897 Ry
     estimated scf accuracy    <       0.00000001 Ry

     iteration # 23     ecut=    50.00 Ry     beta= 0.30
     Davidson diagonalization with overlap

---- Real-time Memory Report at c_bands before calling an iterative solver
           219 MiB given to the printing process from OS
             0 MiB allocation reported by mallinfo(arena+hblkhd)
        116745 MiB available memory on the node where the printing process lives
------------------
     ethr =  9.05E-12,  avg # of iterations =  5.4

     total cpu time spent up to now is      264.1 secs

     End of self-consistent calculation

          k = 0.0000 0.0000 0.0000 (  5893 PWs)   bands (ev):

    -8.7925  -7.7247  -7.7247  -7.7247  -7.3448  -7.2745  -7.2745  -7.2745
     3.9059   3.9059   3.9059   3.9944   3.9944   3.9944   4.1405   4.5046
     4.5046   4.5463   4.7881   4.7881   4.7881   4.8700   4.8700   4.9400
     4.9400   4.9400   5.4354   5.4354   5.4354   5.7200   5.7200   5.7200
     6.4898   6.4898   6.5857   6.5857   6.5857   6.8485   6.8485   6.8485
     6.9761   6.9761   7.0898   7.0898   7.0898   7.1437   7.1437   7.1437
     7.3508   7.5386   7.5386   7.5386   7.7817   7.7817   7.7817   8.2228
     8.2228   8.2228   8.4188   8.4188   8.4188  10.3315  10.3315  10.3570
    10.3570  10.3570  10.7762  10.7762  10.7762  11.8097  11.8097  11.8787

     occupation numbers 
     1.0000   1.0000   1.0000   1.0000   1.0000   1.0000   1.0000   1.0000
     1.0000   1.0000   1.0000   1.0000   1.0000   1.0000   1.0000   1.0000
     1.0000   1.0000   1.0000   1.0000   1.0000   1.0000   1.0000   1.0000
     1.0000   1.0000   1.0000   1.0000   1.0000   1.0000   1.0000   1.0000
     1.0000   1.0000   1.0000   1.0000   1.0000   1.0000   1.0000   1.0000
     1.0000   1.0000   1.0000   1.0000   1.0000   1.0000   1.0000   1.0000
     1.0000   1.0000   1.0000   1.0000   1.0000   1.0000   1.0000   1.0000
     1.0000   1.0000   1.0000   1.0000   1.0000   1.0000   1.0000   1.0000
     1.0000   1.0000   1.0000   1.0000   1.0000   1.0000   1.0000   1.0000

          k = 0.0000 0.0000 0.2294 (  5863 PWs)   bands (ev):

    -8.7000  -7.6832  -7.6832  -7.6832  -7.4447  -7.2913  -7.2913  -7.2913
     3.7786   3.7786   3.7786   3.8121   3.8121   3.8121   3.9746   4.4079
     4.5065   4.5065   4.8188   4.8188   4.8246   4.8246   4.8246   4.8903
     4.8903   4.8903   5.3132   5.3132   5.3132   5.6131   5.6131   5.6131
     6.5462   6.5462   6.7097   6.7097   6.7097   6.8560   6.8560   6.8560
     6.9743   6.9743   7.0340   7.0341   7.0341   7.1482   7.1482   7.1482
     7.5783   7.5783   7.5783   7.6997   7.6997   7.6997   7.8114   8.4753
     8.4753   8.4753   8.8728   8.8728   8.8728  10.4312  10.4312  10.5383
    10.5383  10.5383  10.6372  10.6372  10.6372  11.4059  11.7158  11.7158

     occupation numbers 
     1.0000   1.0000   1.0000   1.0000   1.0000   1.0000   1.0000   1.0000
     1.0000   1.0000   1.0000   1.0000   1.0000   1.0000   1.0000   1.0000
     1.0000   1.0000   1.0000   1.0000   1.0000   1.0000   1.0000   1.0000
     1.0000   1.0000   1.0000   1.0000   1.0000   1.0000   1.0000   1.0000
     1.0000   1.0000   1.0000   1.0000   1.0000   1.0000   1.0000   1.0000
     1.0000   1.0000   1.0000   1.0000   1.0000   1.0000   1.0000   1.0000
     1.0000   1.0000   1.0000   1.0000   1.0000   1.0000   1.0000   1.0000
     1.0000   1.0000   1.0000   1.0000   1.0000   1.0000   1.0000   1.0000
     1.0000   1.0000   1.0000   1.0000   1.0000   1.0000   1.0000   1.0000

          k = 0.0000 0.0000 0.4588 (  5911 PWs)   bands (ev):

    -8.4434  -7.7170  -7.5766  -7.5766  -7.5766  -7.3481  -7.3481  -7.3481
     3.4909   3.4909   3.4909   3.5141   3.5141   3.5141   3.7790   4.0959
     4.5271   4.5271   4.7032   4.7032   4.8751   4.8751   4.8751   4.9362
     4.9362   4.9362   5.1027   5.1027   5.1027   5.3724   5.3724   5.3724
     6.6838   6.6838   6.8767   6.8767   6.8767   6.8998   6.8998   6.8998
     6.9378   6.9378   6.9585   6.9585   6.9585   7.1215   7.1215   7.1215
     7.6392   7.6392   7.6392   7.6599   7.6599   7.6599   8.7970   9.0377
     9.0377   9.0377   9.7563   9.7563   9.7563  10.2462  10.2462  10.2462
    10.6720  10.7068  10.7068  10.7639  10.7639  10.7639  11.4532  11.4532

     occupation numbers 
     1.0000   1.0000   1.0000   1.0000   1.0000   1.0000   1.0000   1.0000
     1.0000   1.0000   1.0000   1.0000   1.0000   1.0000   1.0000   1.0000
     1.0000   1.0000   1.0000   1.0000   1.0000   1.0000   1.0000   1.0000
     1.0000   1.0000   1.0000   1.0000   1.0000   1.0000   1.0000   1.0000
     1.0000   1.0000   1.0000   1.0000   1.0000   1.0000   1.0000   1.0000
     1.0000   1.0000   1.0000   1.0000   1.0000   1.0000   1.0000   1.0000
     1.0000   1.0000   1.0000   1.0000   1.0000   1.0000   1.0000   1.0000
     1.0000   1.0000   1.0000   1.0000   1.0000   1.0000   1.0000   1.0000
     1.0000   1.0000   1.0000   1.0000   1.0000   1.0000   1.0000   1.0000

          k = 0.0000 0.0000-0.6883 (  5862 PWs)   bands (ev):

    -8.0843  -8.0843  -7.4499  -7.4499  -7.4499  -7.4498  -7.4498  -7.4498
     3.3656   3.3656   3.3656   3.3656   3.3656   3.3656   3.8273   3.8273
     4.5927   4.5927   4.5927   4.5927   4.9483   4.9483   4.9483   4.9483
     4.9483   4.9483   5.1250   5.1250   5.1250   5.1250   5.1250   5.1250
     6.8348   6.8348   6.8348   6.8348   6.9095   6.9095   6.9095   6.9095
     6.9095   6.9095   7.0392   7.0392   7.0392   7.0392   7.0392   7.0392
     7.6616   7.6616   7.6616   7.6616   7.6616   7.6616   9.6768   9.6768
     9.6768   9.6768   9.6768   9.6768   9.8147   9.8147  10.5161  10.5161
    10.5161  10.5161  10.5161  10.5161  11.0837  11.0837  11.0837  11.0837

     occupation numbers 
     1.0000   1.0000   1.0000   1.0000   1.0000   1.0000   1.0000   1.0000
     1.0000   1.0000   1.0000   1.0000   1.0000   1.0000   1.0000   1.0000
     1.0000   1.0000   1.0000   1.0000   1.0000   1.0000   1.0000   1.0000
     1.0000   1.0000   1.0000   1.0000   1.0000   1.0000   1.0000   1.0000
     1.0000   1.0000   1.0000   1.0000   1.0000   1.0000   1.0000   1.0000
     1.0000   1.0000   1.0000   1.0000   1.0000   1.0000   1.0000   1.0000
     1.0000   1.0000   1.0000   1.0000   1.0000   1.0000   1.0000   1.0000
     1.0000   1.0000   1.0000   1.0000   1.0000   1.0000   1.0000   1.0000
     1.0000   1.0000   1.0000   1.0000   1.0000   1.0000   1.0000   1.0000

          k = 0.0000 0.1925 0.0000 (  5885 PWs)   bands (ev):

    -8.7361  -7.8318  -7.7302  -7.7302  -7.3292  -7.2708  -7.2708  -7.2483
     3.8253   3.9167   3.9167   4.1139   4.1139   4.1460   4.1931   4.3857
     4.5309   4.6264   4.7459   4.7459   4.7788   4.8638   4.9086   4.9094
     4.9221   4.9221   5.4466   5.4654   5.4654   5.6328   5.7236   5.7236
     6.4622   6.4880   6.5586   6.5688   6.5688   6.7613   6.7613   6.7816
     6.9645   6.9871   6.9875   7.0847   7.0909   7.0909   7.1285   7.1285
     7.3098   7.3790   7.3790   7.3792   7.9497   7.9497   8.0763   8.0763
     8.1867   8.4039   8.5903   8.5958   8.5958  10.0680  10.2003  10.3144
    10.3144  10.5114  10.6816  10.6816  10.8582  11.3884  11.7525  11.8222

     occupation numbers 
     1.0000   1.0000   1.0000   1.0000   1.0000   1.0000   1.0000   1.0000
     1.0000   1.0000   1.0000   1.0000   1.0000   1.0000   1.0000   1.0000
     1.0000   1.0000   1.0000   1.0000   1.0000   1.0000   1.0000   1.0000
     1.0000   1.0000   1.0000   1.0000   1.0000   1.0000   1.0000   1.0000
     1.0000   1.0000   1.0000   1.0000   1.0000   1.0000   1.0000   1.0000
     1.0000   1.0000   1.0000   1.0000   1.0000   1.0000   1.0000   1.0000
     1.0000   1.0000   1.0000   1.0000   1.0000   1.0000   1.0000   1.0000
     1.0000   1.0000   1.0000   1.0000   1.0000   1.0000   1.0000   1.0000
     1.0000   1.0000   1.0000   1.0000   1.0000   1.0000   1.0000   1.0000

          k = 0.0000 0.1925 0.2294 (  5885 PWs)   bands (ev):

    -8.6455  -7.7827  -7.6881  -7.6881  -7.4253  -7.2883  -7.2883  -7.2750
     3.7152   3.7938   3.7938   3.9188   3.9188   3.9333   4.0037   4.3021
     4.5339   4.5722   4.7695   4.7695   4.8117   4.8199   4.8575   4.8616
     4.8762   4.8762   5.2977   5.3383   5.3383   5.5357   5.6014   5.6014
     6.5241   6.5438   6.6252   6.6547   6.6547   6.7951   6.8120   6.8120
     6.9825   6.9826   7.0392   7.0453   7.0453   7.1583   7.1724   7.1724
     7.3648   7.4343   7.4343   7.8284   7.9351   7.9351   8.2021   8.3012
     8.3012   8.6317   8.8559   8.9690   8.9690  10.1717  10.3065  10.4320
    10.4320  10.6049  10.6049  10.6851  10.7215  11.0918  11.6545  11.7321

     occupation numbers 
     1.0000   1.0000   1.0000   1.0000   1.0000   1.0000   1.0000   1.0000
     1.0000   1.0000   1.0000   1.0000   1.0000   1.0000   1.0000   1.0000
     1.0000   1.0000   1.0000   1.0000   1.0000   1.0000   1.0000   1.0000
     1.0000   1.0000   1.0000   1.0000   1.0000   1.0000   1.0000   1.0000
     1.0000   1.0000   1.0000   1.0000   1.0000   1.0000   1.0000   1.0000
     1.0000   1.0000   1.0000   1.0000   1.0000   1.0000   1.0000   1.0000
     1.0000   1.0000   1.0000   1.0000   1.0000   1.0000   1.0000   1.0000
     1.0000   1.0000   1.0000   1.0000   1.0000   1.0000   1.0000   1.0000
     1.0000   1.0000   1.0000   1.0000   1.0000   1.0000   1.0000   1.0000

          k = 0.0000 0.1925 0.4588 (  5887 PWs)   bands (ev):

    -8.3944  -7.6880  -7.6543  -7.5801  -7.5801  -7.3584  -7.3470  -7.3470
     3.4855   3.5351   3.5351   3.5682   3.5787   3.5787   3.7734   4.0377
     4.5501   4.5574   4.7107   4.7397   4.8345   4.8345   4.8427   4.8548
     4.8548   4.9138   5.0707   5.1580   5.1580   5.3154   5.3607   5.3607
     6.6731   6.6806   6.7845   6.7845   6.7977   6.8345   6.8524   6.8524
     6.9403   6.9479   6.9619   7.0289   7.0289   7.1121   7.1608   7.1608
     7.5812   7.5812   7.6548   7.8458   7.8458   8.0873   8.8123   8.8771
     8.8771   9.1620   9.6816   9.7921   9.7921  10.0989  10.0989  10.3376
    10.4521  10.5474  10.5980  10.7717  10.7717  10.8501  11.3804  11.3938

     occupation numbers 
     1.0000   1.0000   1.0000   1.0000   1.0000   1.0000   1.0000   1.0000
     1.0000   1.0000   1.0000   1.0000   1.0000   1.0000   1.0000   1.0000
     1.0000   1.0000   1.0000   1.0000   1.0000   1.0000   1.0000   1.0000
     1.0000   1.0000   1.0000   1.0000   1.0000   1.0000   1.0000   1.0000
     1.0000   1.0000   1.0000   1.0000   1.0000   1.0000   1.0000   1.0000
     1.0000   1.0000   1.0000   1.0000   1.0000   1.0000   1.0000   1.0000
     1.0000   1.0000   1.0000   1.0000   1.0000   1.0000   1.0000   1.0000
     1.0000   1.0000   1.0000   1.0000   1.0000   1.0000   1.0000   1.0000
     1.0000   1.0000   1.0000   1.0000   1.0000   1.0000   1.0000   1.0000

          k = 0.0000 0.1925-0.6883 (  5854 PWs)   bands (ev):

    -8.0443  -8.0443  -7.4950  -7.4950  -7.4511  -7.4511  -7.4511  -7.4511
     3.3899   3.3899   3.4173   3.4173   3.4173   3.4173   3.7941   3.7941
     4.6046   4.6046   4.6260   4.6261   4.8727   4.8727   4.8727   4.8727
     4.9128   4.9128   5.0873   5.0873   5.1587   5.1587   5.1587   5.1587
     6.8326   6.8326   6.8359   6.8359   6.8471   6.8471   6.8471   6.8471
     6.8922   6.8922   6.9744   6.9744   7.0893   7.0893   7.0893   7.0893
     7.7313   7.7313   7.7313   7.7313   7.9010   7.9010   9.5180   9.5180
     9.5180   9.5180   9.7806   9.7806   9.7858   9.7858  10.5060  10.5060
    10.5373  10.5373  10.5373  10.5373  10.9149  10.9149  10.9939  10.9939

     occupation numbers 
     1.0000   1.0000   1.0000   1.0000   1.0000   1.0000   1.0000   1.0000
     1.0000   1.0000   1.0000   1.0000   1.0000   1.0000   1.0000   1.0000
     1.0000   1.0000   1.0000   1.0000   1.0000   1.0000   1.0000   1.0000
     1.0000   1.0000   1.0000   1.0000   1.0000   1.0000   1.0000   1.0000
     1.0000   1.0000   1.0000   1.0000   1.0000   1.0000   1.0000   1.0000
     1.0000   1.0000   1.0000   1.0000   1.0000   1.0000   1.0000   1.0000
     1.0000   1.0000   1.0000   1.0000   1.0000   1.0000   1.0000   1.0000
     1.0000   1.0000   1.0000   1.0000   1.0000   1.0000   1.0000   1.0000
     1.0000   1.0000   1.0000   1.0000   1.0000   1.0000   1.0000   1.0000

          k = 0.0000 0.3849 0.0000 (  5888 PWs)   bands (ev):

    -8.5760  -8.0697  -7.7408  -7.7408  -7.2899  -7.2637  -7.2637  -7.2279
     3.8347   4.0141   4.0141   4.1580   4.2788   4.2788   4.3198   4.3574
     4.6000   4.6935   4.6966   4.6966   4.7455   4.8277   4.8950   4.8950
     4.9101   5.0252   5.3828   5.4287   5.5335   5.5335   5.7102   5.7102
     6.3610   6.3879   6.4976   6.4976   6.4982   6.5348   6.5348   6.6536
     6.8001   6.9213   7.0141   7.0557   7.0557   7.0685   7.0912   7.0912
     7.3818   7.3818   7.4729   7.6161   7.7219   7.7219   8.1674   8.3619
     8.3619   8.7209   8.7209   8.8359   9.3164   9.4063   9.8458  10.2485
    10.2485  10.4751  10.4751  10.7357  10.8731  11.0712  11.5867  11.6135

     occupation numbers 
     1.0000   1.0000   1.0000   1.0000   1.0000   1.0000   1.0000   1.0000
     1.0000   1.0000   1.0000   1.0000   1.0000   1.0000   1.0000   1.0000
     1.0000   1.0000   1.0000   1.0000   1.0000   1.0000   1.0000   1.0000
     1.0000   1.0000   1.0000   1.0000   1.0000   1.0000   1.0000   1.0000
     1.0000   1.0000   1.0000   1.0000   1.0000   1.0000   1.0000   1.0000
     1.0000   1.0000   1.0000   1.0000   1.0000   1.0000   1.0000   1.0000
     1.0000   1.0000   1.0000   1.0000   1.0000   1.0000   1.0000   1.0000
     1.0000   1.0000   1.0000   1.0000   1.0000   1.0000   1.0000   1.0000
     1.0000   1.0000   1.0000   1.0000   1.0000   1.0000   1.0000   1.0000

          k = 0.0000 0.3849 0.2294 (  5887 PWs)   bands (ev):

    -8.4909  -8.0066  -7.6977  -7.6977  -7.3747  -7.2826  -7.2826  -7.2747
     3.7436   3.8982   3.8982   4.0270   4.0592   4.0833   4.0833   4.1508
     4.6065   4.6535   4.6727   4.6727   4.7695   4.7928   4.8449   4.8449
     4.8621   4.9692   5.2012   5.3503   5.3790   5.3790   5.5566   5.5566
     6.4622   6.4695   6.5065   6.5065   6.5503   6.6823   6.7678   6.7678
     7.0003   7.0019   7.0363   7.0397   7.0588   7.0588   7.2063   7.2063
     7.3938   7.3938   7.7406   7.8826   7.9390   7.9390   8.3306   8.3306
     8.4301   9.0213   9.0233   9.0233   9.2151   9.5212   9.9693  10.2177
    10.2177  10.5225  10.5485  10.5485  10.9413  11.0119  11.4786  11.6106

     occupation numbers 
     1.0000   1.0000   1.0000   1.0000   1.0000   1.0000   1.0000   1.0000
     1.0000   1.0000   1.0000   1.0000   1.0000   1.0000   1.0000   1.0000
     1.0000   1.0000   1.0000   1.0000   1.0000   1.0000   1.0000   1.0000
     1.0000   1.0000   1.0000   1.0000   1.0000   1.0000   1.0000   1.0000
     1.0000   1.0000   1.0000   1.0000   1.0000   1.0000   1.0000   1.0000
     1.0000   1.0000   1.0000   1.0000   1.0000   1.0000   1.0000   1.0000
     1.0000   1.0000   1.0000   1.0000   1.0000   1.0000   1.0000   1.0000
     1.0000   1.0000   1.0000   1.0000   1.0000   1.0000   1.0000   1.0000
     1.0000   1.0000   1.0000   1.0000   1.0000   1.0000   1.0000   1.0000

          k = 0.0000 0.3849 0.4588 (  5878 PWs)   bands (ev):

    -8.2565  -7.8374  -7.6095  -7.5869  -7.5869  -7.4115  -7.3449  -7.3449
     3.5440   3.6503   3.6503   3.6523   3.7095   3.7095   3.7441   3.8943
     4.6095   4.6391   4.6887   4.6887   4.7501   4.7682   4.7814   4.7814
     4.8429   4.8473   4.9744   5.1713   5.2152   5.2152   5.3354   5.3354
     6.6498   6.6562   6.6562   6.6775   6.6799   6.7587   6.8166   6.8166
     6.9454   6.9582   6.9753   7.0604   7.0719   7.0719   7.2389   7.2389
     7.6267   7.6267   8.0896   8.0896   8.1031   8.5805   8.5805   8.6956
     8.8267   9.4842   9.5632   9.6727   9.6727   9.8627   9.9456   9.9456
    10.1523  10.3032  10.5771  10.7764  10.7764  11.0233  11.1762  11.2936

     occupation numbers 
     1.0000   1.0000   1.0000   1.0000   1.0000   1.0000   1.0000   1.0000
     1.0000   1.0000   1.0000   1.0000   1.0000   1.0000   1.0000   1.0000
     1.0000   1.0000   1.0000   1.0000   1.0000   1.0000   1.0000   1.0000
     1.0000   1.0000   1.0000   1.0000   1.0000   1.0000   1.0000   1.0000
     1.0000   1.0000   1.0000   1.0000   1.0000   1.0000   1.0000   1.0000
     1.0000   1.0000   1.0000   1.0000   1.0000   1.0000   1.0000   1.0000
     1.0000   1.0000   1.0000   1.0000   1.0000   1.0000   1.0000   1.0000
     1.0000   1.0000   1.0000   1.0000   1.0000   1.0000   1.0000   1.0000
     1.0000   1.0000   1.0000   1.0000   1.0000   1.0000   1.0000   1.0000

          k = 0.0000 0.3849-0.6883 (  5886 PWs)   bands (ev):

    -7.9332  -7.9332  -7.6164  -7.6164  -7.4537  -7.4537  -7.4537  -7.4537
     3.4632   3.4632   3.5339   3.5339   3.5339   3.5339   3.7009   3.7009
     4.6477   4.6477   4.7188   4.7188   4.7363   4.7363   4.7363   4.7363
     4.8261   4.8261   4.9854   4.9854   5.1978   5.1978   5.1978   5.1978
     6.7712   6.7712   6.7712   6.7712   6.8298   6.8298   6.8411   6.8411
     6.8590   6.8590   6.8980   6.8980   7.1435   7.1435   7.1435   7.1435
     7.8997   7.8997   7.8997   7.8997   8.4422   8.4422   9.1891   9.1891
     9.1891   9.1891   9.5932   9.5932  10.0528  10.0528  10.4823  10.4823
    10.5652  10.5652  10.5652  10.5652  10.6076  10.6076  10.7478  10.7478

     occupation numbers 
     1.0000   1.0000   1.0000   1.0000   1.0000   1.0000   1.0000   1.0000
     1.0000   1.0000   1.0000   1.0000   1.0000   1.0000   1.0000   1.0000
     1.0000   1.0000   1.0000   1.0000   1.0000   1.0000   1.0000   1.0000
     1.0000   1.0000   1.0000   1.0000   1.0000   1.0000   1.0000   1.0000
     1.0000   1.0000   1.0000   1.0000   1.0000   1.0000   1.0000   1.0000
     1.0000   1.0000   1.0000   1.0000   1.0000   1.0000   1.0000   1.0000
     1.0000   1.0000   1.0000   1.0000   1.0000   1.0000   1.0000   1.0000
     1.0000   1.0000   1.0000   1.0000   1.0000   1.0000   1.0000   1.0000
     1.0000   1.0000   1.0000   1.0000   1.0000   1.0000   1.0000   1.0000

          k = 0.0000-0.5774 0.0000 (  5908 PWs)   bands (ev):

    -8.3390  -8.3390  -7.7460  -7.7460  -7.2603  -7.2603  -7.2472  -7.2472
     3.9643   3.9643   4.1217   4.1217   4.2576   4.2576   4.4130   4.4130
     4.6821   4.6821   4.7373   4.7373   4.7655   4.7655   4.8659   4.8659
     5.1299   5.1299   5.2060   5.2060   5.6291   5.6291   5.6299   5.6299
     6.3076   6.3076   6.3307   6.3307   6.5141   6.5141   6.5493   6.5493
     6.8514   6.8514   7.0274   7.0274   7.0438   7.0438   7.0910   7.0910
     7.4934   7.4934   7.5393   7.5393   7.6153   7.6153   8.6111   8.6111
     8.6408   8.6408   8.6466   8.6466   9.3564   9.3564  10.0503  10.0503
    10.2751  10.2751  10.3157  10.3157  11.2783  11.2783  11.3403  11.3403

     occupation numbers 
     1.0000   1.0000   1.0000   1.0000   1.0000   1.0000   1.0000   1.0000
     1.0000   1.0000   1.0000   1.0000   1.0000   1.0000   1.0000   1.0000
     1.0000   1.0000   1.0000   1.0000   1.0000   1.0000   1.0000   1.0000
     1.0000   1.0000   1.0000   1.0000   1.0000   1.0000   1.0000   1.0000
     1.0000   1.0000   1.0000   1.0000   1.0000   1.0000   1.0000   1.0000
     1.0000   1.0000   1.0000   1.0000   1.0000   1.0000   1.0000   1.0000
     1.0000   1.0000   1.0000   1.0000   1.0000   1.0000   1.0000   1.0000
     1.0000   1.0000   1.0000   1.0000   1.0000   1.0000   1.0000   1.0000
     1.0000   1.0000   1.0000   1.0000   1.0000   1.0000   1.0000   1.0000

          k = 0.0000-0.5774 0.2294 (  5894 PWs)   bands (ev):

    -8.2632  -8.2632  -7.7025  -7.7025  -7.3148  -7.3148  -7.2799  -7.2799
     3.8759   3.8759   3.9936   3.9936   4.1223   4.1223   4.1263   4.1263
     4.6638   4.6638   4.6960   4.6960   4.7187   4.7187   4.8112   4.8112
     5.0130   5.0130   5.1423   5.1423   5.3949   5.3949   5.5166   5.5166
     6.4213   6.4213   6.4274   6.4274   6.5924   6.5924   6.7542   6.7542
     7.0145   7.0145   7.0222   7.0222   7.0624   7.0624   7.2053   7.2053
     7.4471   7.4471   7.7844   7.7844   7.9438   7.9438   8.5211   8.5211
     8.7878   8.7878   8.9725   8.9725   9.5063   9.5063   9.8743   9.8743
    10.1177  10.1177  10.5205  10.5205  11.2204  11.2204  11.3533  11.3533

     occupation numbers 
     1.0000   1.0000   1.0000   1.0000   1.0000   1.0000   1.0000   1.0000
     1.0000   1.0000   1.0000   1.0000   1.0000   1.0000   1.0000   1.0000
     1.0000   1.0000   1.0000   1.0000   1.0000   1.0000   1.0000   1.0000
     1.0000   1.0000   1.0000   1.0000   1.0000   1.0000   1.0000   1.0000
     1.0000   1.0000   1.0000   1.0000   1.0000   1.0000   1.0000   1.0000
     1.0000   1.0000   1.0000   1.0000   1.0000   1.0000   1.0000   1.0000
     1.0000   1.0000   1.0000   1.0000   1.0000   1.0000   1.0000   1.0000
     1.0000   1.0000   1.0000   1.0000   1.0000   1.0000   1.0000   1.0000
     1.0000   1.0000   1.0000   1.0000   1.0000   1.0000   1.0000   1.0000

          k = 0.0000-0.5774 0.4588 (  5896 PWs)   bands (ev):

    -8.0566  -8.0566  -7.5903  -7.5903  -7.5058  -7.5058  -7.3439  -7.3439
     3.6600   3.6600   3.7296   3.7296   3.7499   3.7499   3.7734   3.7734
     4.6191   4.6191   4.6853   4.6853   4.7301   4.7301   4.7470   4.7470
     4.8470   4.8470   4.9969   4.9969   5.2336   5.2336   5.3229   5.3229
     6.6051   6.6051   6.6382   6.6382   6.7020   6.7020   6.8029   6.8029
     6.9513   6.9513   7.0143   7.0143   7.0830   7.0830   7.2739   7.2739
     7.6967   7.6967   8.1620   8.1620   8.4770   8.4770   8.6412   8.6412
     9.2721   9.2721   9.4938   9.4938   9.6714   9.6714   9.8998   9.8998
     9.9513   9.9513  10.7766  10.7766  10.8850  10.8850  11.1799  11.1799

     occupation numbers 
     1.0000   1.0000   1.0000   1.0000   1.0000   1.0000   1.0000   1.0000
     1.0000   1.0000   1.0000   1.0000   1.0000   1.0000   1.0000   1.0000
     1.0000   1.0000   1.0000   1.0000   1.0000   1.0000   1.0000   1.0000
     1.0000   1.0000   1.0000   1.0000   1.0000   1.0000   1.0000   1.0000
     1.0000   1.0000   1.0000   1.0000   1.0000   1.0000   1.0000   1.0000
     1.0000   1.0000   1.0000   1.0000   1.0000   1.0000   1.0000   1.0000
     1.0000   1.0000   1.0000   1.0000   1.0000   1.0000   1.0000   1.0000
     1.0000   1.0000   1.0000   1.0000   1.0000   1.0000   1.0000   1.0000
     1.0000   1.0000   1.0000   1.0000   1.0000   1.0000   1.0000   1.0000

          k = 0.0000-0.5774-0.6883 (  5868 PWs)   bands (ev):

    -7.7774  -7.7774  -7.7774  -7.7774  -7.4549  -7.4549  -7.4549  -7.4549
     3.5767   3.5767   3.5767   3.5767   3.6017   3.6017   3.6017   3.6017
     4.6643   4.6643   4.6643   4.6643   4.7269   4.7269   4.7269   4.7269
     4.8497   4.8497   4.8497   4.8497   5.2120   5.2120   5.2120   5.2120
     6.7421   6.7421   6.7421   6.7421   6.8359   6.8359   6.8359   6.8359
     6.8581   6.8581   6.8581   6.8581   7.1636   7.1636   7.1636   7.1636
     8.0135   8.0135   8.0135   8.0135   9.0010   9.0010   9.0010   9.0010
     9.0835   9.0835   9.0835   9.0835  10.4064  10.4064  10.4064  10.4064
    10.4798  10.4798  10.4798  10.4798  10.5751  10.5751  10.5751  10.5751

     occupation numbers 
     1.0000   1.0000   1.0000   1.0000   1.0000   1.0000   1.0000   1.0000
     1.0000   1.0000   1.0000   1.0000   1.0000   1.0000   1.0000   1.0000
     1.0000   1.0000   1.0000   1.0000   1.0000   1.0000   1.0000   1.0000
     1.0000   1.0000   1.0000   1.0000   1.0000   1.0000   1.0000   1.0000
     1.0000   1.0000   1.0000   1.0000   1.0000   1.0000   1.0000   1.0000
     1.0000   1.0000   1.0000   1.0000   1.0000   1.0000   1.0000   1.0000
     1.0000   1.0000   1.0000   1.0000   1.0000   1.0000   1.0000   1.0000
     1.0000   1.0000   1.0000   1.0000   1.0000   1.0000   1.0000   1.0000
     1.0000   1.0000   1.0000   1.0000   1.0000   1.0000   1.0000   1.0000

          k = 0.1667 0.2887 0.0000 (  5865 PWs)   bands (ev):

    -8.6278  -7.9162  -7.9162  -7.6344  -7.3017  -7.3003  -7.2347  -7.2347
     3.8587   3.8587   4.0693   4.2518   4.2623   4.2623   4.2705   4.2714
     4.5908   4.6531   4.6893   4.7309   4.7309   4.8720   4.8908   4.8908
     4.8978   4.9896   5.4543   5.4543   5.5286   5.5599   5.5599   5.8047
     6.4182   6.4538   6.4538   6.4856   6.5235   6.6297   6.6297   6.7129
     6.9318   6.9318   6.9373   7.0060   7.0200   7.0650   7.0798   7.0798
     7.2611   7.4417   7.4504   7.4504   7.8364   7.9139   8.1693   8.1693
     8.4613   8.4613   8.8388   8.9222   8.9222   9.6484   9.9019  10.0197
    10.3788  10.6219  10.6219  10.8400  10.8400  10.9360  11.6229  11.6844

     occupation numbers 
     1.0000   1.0000   1.0000   1.0000   1.0000   1.0000   1.0000   1.0000
     1.0000   1.0000   1.0000   1.0000   1.0000   1.0000   1.0000   1.0000
     1.0000   1.0000   1.0000   1.0000   1.0000   1.0000   1.0000   1.0000
     1.0000   1.0000   1.0000   1.0000   1.0000   1.0000   1.0000   1.0000
     1.0000   1.0000   1.0000   1.0000   1.0000   1.0000   1.0000   1.0000
     1.0000   1.0000   1.0000   1.0000   1.0000   1.0000   1.0000   1.0000
     1.0000   1.0000   1.0000   1.0000   1.0000   1.0000   1.0000   1.0000
     1.0000   1.0000   1.0000   1.0000   1.0000   1.0000   1.0000   1.0000
     1.0000   1.0000   1.0000   1.0000   1.0000   1.0000   1.0000   1.0000

          k = 0.1667 0.2887 0.2294 (  5892 PWs)   bands (ev):

    -8.5409  -7.8617  -7.8617  -7.5997  -7.3903  -7.3089  -7.2689  -7.2689
     3.7584   3.7584   3.9485   4.0304   4.0304   4.0452   4.0605   4.1705
     4.5874   4.6334   4.6480   4.7443   4.7443   4.8369   4.8472   4.8472
     4.8582   4.9346   5.2801   5.2801   5.4083   5.4604   5.4604   5.6321
     6.4888   6.5059   6.5059   6.5433   6.6006   6.7511   6.7511   6.7637
     6.9958   6.9961   7.0446   7.0446   7.0546   7.0784   7.1140   7.1140
     7.5096   7.5096   7.5558   7.8074   7.8648   7.9499   8.3785   8.3785
     8.6528   8.6528   8.9608   8.9608   9.1943   9.7602  10.0151  10.0399
    10.4062  10.6663  10.6663  10.7094  10.8204  10.8204  11.5164  11.6630

     occupation numbers 
     1.0000   1.0000   1.0000   1.0000   1.0000   1.0000   1.0000   1.0000
     1.0000   1.0000   1.0000   1.0000   1.0000   1.0000   1.0000   1.0000
     1.0000   1.0000   1.0000   1.0000   1.0000   1.0000   1.0000   1.0000
     1.0000   1.0000   1.0000   1.0000   1.0000   1.0000   1.0000   1.0000
     1.0000   1.0000   1.0000   1.0000   1.0000   1.0000   1.0000   1.0000
     1.0000   1.0000   1.0000   1.0000   1.0000   1.0000   1.0000   1.0000
     1.0000   1.0000   1.0000   1.0000   1.0000   1.0000   1.0000   1.0000
     1.0000   1.0000   1.0000   1.0000   1.0000   1.0000   1.0000   1.0000
     1.0000   1.0000   1.0000   1.0000   1.0000   1.0000   1.0000   1.0000

          k = 0.1667 0.2887 0.4588 (  5883 PWs)   bands (ev):

    -8.3009  -7.7176  -7.7176  -7.6342  -7.5129  -7.3723  -7.3723  -7.3433
     3.5437   3.5437   3.6380   3.6380   3.6822   3.6950   3.7583   3.9376
     4.5878   4.6108   4.6767   4.7357   4.7789   4.7789   4.8025   4.8113
     4.8311   4.8311   5.0795   5.0795   5.2605   5.2605   5.2627   5.3835
     6.6567   6.6785   6.6840   6.6920   6.6920   6.7795   6.8209   6.8209
     6.9440   6.9667   6.9817   6.9817   7.1062   7.1062   7.1787   7.1992
     7.6505   7.7449   7.8326   7.8326   8.3806   8.3806   8.4302   8.8292
     9.1214   9.1214   9.6445   9.6445   9.6604   9.9546  10.1032  10.1833
    10.2938  10.2938  10.4290  10.6710  10.9244  10.9244  11.2198  11.3305

     occupation numbers 
     1.0000   1.0000   1.0000   1.0000   1.0000   1.0000   1.0000   1.0000
     1.0000   1.0000   1.0000   1.0000   1.0000   1.0000   1.0000   1.0000
     1.0000   1.0000   1.0000   1.0000   1.0000   1.0000   1.0000   1.0000
     1.0000   1.0000   1.0000   1.0000   1.0000   1.0000   1.0000   1.0000
     1.0000   1.0000   1.0000   1.0000   1.0000   1.0000   1.0000   1.0000
     1.0000   1.0000   1.0000   1.0000   1.0000   1.0000   1.0000   1.0000
     1.0000   1.0000   1.0000   1.0000   1.0000   1.0000   1.0000   1.0000
     1.0000   1.0000   1.0000   1.0000   1.0000   1.0000   1.0000   1.0000
     1.0000   1.0000   1.0000   1.0000   1.0000   1.0000   1.0000   1.0000

          k = 0.1667 0.2887-0.6883 (  5876 PWs)   bands (ev):

    -7.9687  -7.9687  -7.5348  -7.5348  -7.5348  -7.5348  -7.4149  -7.4149
     3.4525   3.4525   3.4525   3.4525   3.5407   3.5407   3.7320   3.7320
     4.6237   4.6237   4.6960   4.6960   4.7416   4.7416   4.8210   4.8210
     4.8210   4.8210   5.0818   5.0818   5.0818   5.0818   5.2453   5.2453
     6.7435   6.7435   6.8291   6.8291   6.8402   6.8402   6.8419   6.8419
     6.8419   6.8419   6.9798   6.9798   6.9798   6.9798   7.2518   7.2518
     7.6795   7.6795   8.1426   8.1426   8.1426   8.1426   9.0685   9.0685
     9.6780   9.6780   9.7204   9.7204   9.7204   9.7204  10.5209  10.5209
    10.5209  10.5209  10.5739  10.5739  10.6927  10.6927  10.8060  10.8060

     occupation numbers 
     1.0000   1.0000   1.0000   1.0000   1.0000   1.0000   1.0000   1.0000
     1.0000   1.0000   1.0000   1.0000   1.0000   1.0000   1.0000   1.0000
     1.0000   1.0000   1.0000   1.0000   1.0000   1.0000   1.0000   1.0000
     1.0000   1.0000   1.0000   1.0000   1.0000   1.0000   1.0000   1.0000
     1.0000   1.0000   1.0000   1.0000   1.0000   1.0000   1.0000   1.0000
     1.0000   1.0000   1.0000   1.0000   1.0000   1.0000   1.0000   1.0000
     1.0000   1.0000   1.0000   1.0000   1.0000   1.0000   1.0000   1.0000
     1.0000   1.0000   1.0000   1.0000   1.0000   1.0000   1.0000   1.0000
     1.0000   1.0000   1.0000   1.0000   1.0000   1.0000   1.0000   1.0000

          k = 0.1667 0.4811 0.0000 (  5907 PWs)   bands (ev):

    -8.4290  -8.1745  -7.9640  -7.5711  -7.3263  -7.2608  -7.2305  -7.2288
     3.9142   3.9625   4.0669   4.2272   4.2835   4.3507   4.3528   4.3988
     4.6343   4.6787   4.7121   4.7474   4.7612   4.8233   4.8651   4.8950
     4.9976   5.1417   5.2717   5.3412   5.4398   5.5015   5.6261   5.7851
     6.3080   6.3202   6.3464   6.4241   6.5069   6.5563   6.5597   6.5760
     6.8391   6.8590   6.8831   6.9432   6.9532   7.0327   7.0589   7.0761
     7.1732   7.5655   7.5688   7.6721   7.7696   8.1556   8.1578   8.3375
     8.4087   8.9087   8.9780   9.0337   9.1377   9.4167   9.6466   9.8471
    10.0479  10.3429  10.6719  10.7398  11.0368  11.1008  11.3844  11.4149

     occupation numbers 
     1.0000   1.0000   1.0000   1.0000   1.0000   1.0000   1.0000   1.0000
     1.0000   1.0000   1.0000   1.0000   1.0000   1.0000   1.0000   1.0000
     1.0000   1.0000   1.0000   1.0000   1.0000   1.0000   1.0000   1.0000
     1.0000   1.0000   1.0000   1.0000   1.0000   1.0000   1.0000   1.0000
     1.0000   1.0000   1.0000   1.0000   1.0000   1.0000   1.0000   1.0000
     1.0000   1.0000   1.0000   1.0000   1.0000   1.0000   1.0000   1.0000
     1.0000   1.0000   1.0000   1.0000   1.0000   1.0000   1.0000   1.0000
     1.0000   1.0000   1.0000   1.0000   1.0000   1.0000   1.0000   1.0000
     1.0000   1.0000   1.0000   1.0000   1.0000   1.0000   1.0000   1.0000

          k = 0.1667 0.4811 0.2294 (  5897 PWs)   bands (ev):

    -8.3495  -8.1061  -7.9066  -7.5419  -7.3351  -7.3288  -7.2857  -7.2671
     3.8255   3.8627   3.9774   4.0866   4.0974   4.1018   4.1182   4.2268
     4.5312   4.6622   4.7048   4.7079   4.7169   4.7863   4.8063   4.8437
     4.9286   5.0800   5.1132   5.2390   5.2675   5.4108   5.4827   5.5811
     6.4184   6.4192   6.4384   6.4724   6.5688   6.6469   6.7313   6.7366
     7.0115   7.0132   7.0150   7.0188   7.0308   7.0332   7.0494   7.1119
     7.4280   7.6498   7.7232   7.8922   7.9314   8.0956   8.3566   8.5527
     8.6994   9.0322   9.0749   9.1093   9.3404   9.5027   9.5463   9.7880
    10.1627  10.1872  10.5422  10.8800  10.9611  11.1607  11.2642  11.4660

     occupation numbers 
     1.0000   1.0000   1.0000   1.0000   1.0000   1.0000   1.0000   1.0000
     1.0000   1.0000   1.0000   1.0000   1.0000   1.0000   1.0000   1.0000
     1.0000   1.0000   1.0000   1.0000   1.0000   1.0000   1.0000   1.0000
     1.0000   1.0000   1.0000   1.0000   1.0000   1.0000   1.0000   1.0000
     1.0000   1.0000   1.0000   1.0000   1.0000   1.0000   1.0000   1.0000
     1.0000   1.0000   1.0000   1.0000   1.0000   1.0000   1.0000   1.0000
     1.0000   1.0000   1.0000   1.0000   1.0000   1.0000   1.0000   1.0000
     1.0000   1.0000   1.0000   1.0000   1.0000   1.0000   1.0000   1.0000
     1.0000   1.0000   1.0000   1.0000   1.0000   1.0000   1.0000   1.0000

          k = 0.1667 0.4811 0.4588 (  5887 PWs)   bands (ev):

    -8.1318  -7.9214  -7.7540  -7.5431  -7.4705  -7.4443  -7.3817  -7.3462
     3.6203   3.6424   3.7009   3.7039   3.7167   3.7942   3.8271   3.8550
     4.5195   4.6444   4.6874   4.7038   4.7086   4.7310   4.7389   4.7700
     4.8167   4.9439   4.9469   5.0856   5.1069   5.2297   5.3382   5.3815
     6.5650   6.6319   6.6377   6.6399   6.6931   6.7234   6.7443   6.8128
     6.9509   6.9623   6.9996   7.0034   7.0431   7.1097   7.1948   7.3450
     7.6189   7.8746   8.0182   8.1083   8.3648   8.5974   8.7666   8.9870
     8.9914   9.2875   9.5255   9.5425   9.5620   9.5644   9.7482  10.0332
    10.0853  10.1620  10.5711  10.5961  10.9313  10.9711  11.1032  11.2394

     occupation numbers 
     1.0000   1.0000   1.0000   1.0000   1.0000   1.0000   1.0000   1.0000
     1.0000   1.0000   1.0000   1.0000   1.0000   1.0000   1.0000   1.0000
     1.0000   1.0000   1.0000   1.0000   1.0000   1.0000   1.0000   1.0000
     1.0000   1.0000   1.0000   1.0000   1.0000   1.0000   1.0000   1.0000
     1.0000   1.0000   1.0000   1.0000   1.0000   1.0000   1.0000   1.0000
     1.0000   1.0000   1.0000   1.0000   1.0000   1.0000   1.0000   1.0000
     1.0000   1.0000   1.0000   1.0000   1.0000   1.0000   1.0000   1.0000
     1.0000   1.0000   1.0000   1.0000   1.0000   1.0000   1.0000   1.0000
     1.0000   1.0000   1.0000   1.0000   1.0000   1.0000   1.0000   1.0000

          k = 0.1667 0.4811-0.6883 (  5874 PWs)   bands (ev):

    -7.8352  -7.8352  -7.6764  -7.6764  -7.5584  -7.5584  -7.3947  -7.3947
     3.5271   3.5271   3.5327   3.5327   3.6308   3.6308   3.6810   3.6810
     4.6073   4.6073   4.6685   4.6685   4.7171   4.7171   4.7415   4.7415
     4.8188   4.8188   4.9583   4.9583   5.0895   5.0895   5.3041   5.3041
     6.6530   6.6530   6.8095   6.8095   6.8278   6.8278   6.8337   6.8337
     6.8560   6.8560   6.8970   6.8970   6.9969   6.9969   7.3547   7.3547
     7.7502   7.7502   8.3635   8.3635   8.6871   8.6871   8.7366   8.7366
     9.3198   9.3198   9.5209   9.5209  10.0603  10.0603  10.4413  10.4413
    10.5036  10.5036  10.5427  10.5427  10.5446  10.5446  10.5928  10.5928

     occupation numbers 
     1.0000   1.0000   1.0000   1.0000   1.0000   1.0000   1.0000   1.0000
     1.0000   1.0000   1.0000   1.0000   1.0000   1.0000   1.0000   1.0000
     1.0000   1.0000   1.0000   1.0000   1.0000   1.0000   1.0000   1.0000
     1.0000   1.0000   1.0000   1.0000   1.0000   1.0000   1.0000   1.0000
     1.0000   1.0000   1.0000   1.0000   1.0000   1.0000   1.0000   1.0000
     1.0000   1.0000   1.0000   1.0000   1.0000   1.0000   1.0000   1.0000
     1.0000   1.0000   1.0000   1.0000   1.0000   1.0000   1.0000   1.0000
     1.0000   1.0000   1.0000   1.0000   1.0000   1.0000   1.0000   1.0000
     1.0000   1.0000   1.0000   1.0000   1.0000   1.0000   1.0000   1.0000

          k = 0.3333 0.5774 0.0000 (  5967 PWs)   bands (ev):

    -8.2117  -8.2117  -8.2117  -7.4292  -7.4291  -7.2327  -7.2327  -7.2327
     3.9884   3.9884   3.9884   4.3048   4.3048   4.3048   4.3219   4.5417
     4.5417   4.7638   4.7638   4.7638   4.8066   4.8066   4.8066   4.9435
     5.1900   5.1900   5.1900   5.3140   5.3140   5.3140   5.7014   5.7014
     6.3120   6.3120   6.3120   6.4146   6.5354   6.5354   6.5354   6.6439
     6.6439   6.7456   6.8610   6.8610   6.8610   7.0542   7.0542   7.0542
     7.1687   7.6746   7.6746   7.6746   7.9844   7.9844   8.5380   8.5380
     8.5380   8.7815   8.7815   8.7815   9.4907   9.4907   9.7539   9.7968
     9.7968   9.7968  11.0515  11.0515  11.0515  11.1077  11.1077  11.1077

     occupation numbers 
     1.0000   1.0000   1.0000   1.0000   1.0000   1.0000   1.0000   1.0000
     1.0000   1.0000   1.0000   1.0000   1.0000   1.0000   1.0000   1.0000
     1.0000   1.0000   1.0000   1.0000   1.0000   1.0000   1.0000   1.0000
     1.0000   1.0000   1.0000   1.0000   1.0000   1.0000   1.0000   1.0000
     1.0000   1.0000   1.0000   1.0000   1.0000   1.0000   1.0000   1.0000
     1.0000   1.0000   1.0000   1.0000   1.0000   1.0000   1.0000   1.0000
     1.0000   1.0000   1.0000   1.0000   1.0000   1.0000   1.0000   1.0000
     1.0000   1.0000   1.0000   1.0000   1.0000   1.0000   1.0000   1.0000
     1.0000   1.0000   1.0000   1.0000   1.0000   1.0000   1.0000   1.0000

          k = 0.3333 0.5774 0.2294 (  5898 PWs)   bands (ev):

    -8.1415  -8.1415  -8.1415  -7.4153  -7.4153  -7.2908  -7.2908  -7.2908
     3.9011   3.9011   3.9011   4.0815   4.0815   4.0815   4.3299   4.3299
     4.3434   4.7244   4.7244   4.7244   4.7484   4.7484   4.7484   4.8642
     5.0584   5.0584   5.0584   5.2422   5.2422   5.2422   5.5377   5.5377
     6.4116   6.4116   6.4116   6.4376   6.6354   6.6354   6.6354   6.7245
     6.9276   6.9276   7.0316   7.0316   7.0316   7.0318   7.0318   7.0318
     7.3570   7.9203   7.9203   7.9340   7.9340   7.9340   8.7384   8.7384
     8.7384   8.9307   8.9307   8.9307   9.5694   9.6437   9.6437   9.6437
     9.7756   9.7756  10.9145  10.9145  10.9145  11.2159  11.2159  11.2159

     occupation numbers 
     1.0000   1.0000   1.0000   1.0000   1.0000   1.0000   1.0000   1.0000
     1.0000   1.0000   1.0000   1.0000   1.0000   1.0000   1.0000   1.0000
     1.0000   1.0000   1.0000   1.0000   1.0000   1.0000   1.0000   1.0000
     1.0000   1.0000   1.0000   1.0000   1.0000   1.0000   1.0000   1.0000
     1.0000   1.0000   1.0000   1.0000   1.0000   1.0000   1.0000   1.0000
     1.0000   1.0000   1.0000   1.0000   1.0000   1.0000   1.0000   1.0000
     1.0000   1.0000   1.0000   1.0000   1.0000   1.0000   1.0000   1.0000
     1.0000   1.0000   1.0000   1.0000   1.0000   1.0000   1.0000   1.0000
     1.0000   1.0000   1.0000   1.0000   1.0000   1.0000   1.0000   1.0000

          k = 0.3333 0.5774 0.4588 (  5895 PWs)   bands (ev):

    -7.9516  -7.9516  -7.9516  -7.4570  -7.4570  -7.4570  -7.3873  -7.3873
     3.6940   3.6940   3.6940   3.7013   3.7013   3.7013   3.9432   3.9432
     4.4108   4.6833   4.6833   4.6833   4.6950   4.7105   4.7105   4.7105
     4.9411   4.9411   4.9411   5.0884   5.0884   5.0884   5.3958   5.3958
     6.5001   6.6283   6.6283   6.6283   6.6663   6.7428   6.7428   6.7428
     6.9671   6.9671   6.9671   7.0371   7.0371   7.0371   7.3000   7.3000
     7.7957   7.7957   7.8354   8.4884   8.4884   8.4884   9.0862   9.1373
     9.1373   9.1373   9.4861   9.4861   9.4861   9.5457   9.5457   9.5457
    10.3284  10.3284  10.5423  10.5423  10.5423  11.1368  11.1368  11.1368

     occupation numbers 
     1.0000   1.0000   1.0000   1.0000   1.0000   1.0000   1.0000   1.0000
     1.0000   1.0000   1.0000   1.0000   1.0000   1.0000   1.0000   1.0000
     1.0000   1.0000   1.0000   1.0000   1.0000   1.0000   1.0000   1.0000
     1.0000   1.0000   1.0000   1.0000   1.0000   1.0000   1.0000   1.0000
     1.0000   1.0000   1.0000   1.0000   1.0000   1.0000   1.0000   1.0000
     1.0000   1.0000   1.0000   1.0000   1.0000   1.0000   1.0000   1.0000
     1.0000   1.0000   1.0000   1.0000   1.0000   1.0000   1.0000   1.0000
     1.0000   1.0000   1.0000   1.0000   1.0000   1.0000   1.0000   1.0000
     1.0000   1.0000   1.0000   1.0000   1.0000   1.0000   1.0000   1.0000

          k = 0.3333 0.5774-0.6883 (  5856 PWs)   bands (ev):

    -7.6984  -7.6984  -7.6984  -7.6984  -7.6984  -7.6984  -7.3732  -7.3732
     3.5648   3.5648   3.5648   3.5648   3.5648   3.5648   3.7696   3.7696
     4.5303   4.5303   4.6895   4.6895   4.6895   4.6895   4.6895   4.6895
     4.9567   4.9567   4.9567   4.9567   4.9567   4.9567   5.3543   5.3543
     6.5843   6.5843   6.8248   6.8248   6.8248   6.8248   6.8248   6.8248
     6.9010   6.9010   6.9010   6.9010   6.9010   6.9010   7.4846   7.4846
     7.6974   7.6974   8.4576   8.4576   8.8817   8.8817   8.8817   8.8817
     8.8817   8.8817   9.9883   9.9883   9.9883   9.9883   9.9883   9.9883
    10.5212  10.5212  10.5212  10.5212  10.5212  10.5212  10.6020  10.6020

     occupation numbers 
     1.0000   1.0000   1.0000   1.0000   1.0000   1.0000   1.0000   1.0000
     1.0000   1.0000   1.0000   1.0000   1.0000   1.0000   1.0000   1.0000
     1.0000   1.0000   1.0000   1.0000   1.0000   1.0000   1.0000   1.0000
     1.0000   1.0000   1.0000   1.0000   1.0000   1.0000   1.0000   1.0000
     1.0000   1.0000   1.0000   1.0000   1.0000   1.0000   1.0000   1.0000
     1.0000   1.0000   1.0000   1.0000   1.0000   1.0000   1.0000   1.0000
     1.0000   1.0000   1.0000   1.0000   1.0000   1.0000   1.0000   1.0000
     1.0000   1.0000   1.0000   1.0000   1.0000   1.0000   1.0000   1.0000
     1.0000   1.0000   1.0000   1.0000   1.0000   1.0000   1.0000   1.0000

          k = 0.0000-0.1925 0.2294 (  5885 PWs)   bands (ev):

    -8.6455  -7.7827  -7.6881  -7.6881  -7.4253  -7.2883  -7.2883  -7.2750
     3.7152   3.7938   3.7938   3.9188   3.9188   3.9333   4.0037   4.3021
     4.5339   4.5722   4.7695   4.7695   4.8117   4.8199   4.8575   4.8616
     4.8762   4.8762   5.2977   5.3383   5.3383   5.5357   5.6014   5.6014
     6.5241   6.5438   6.6252   6.6547   6.6547   6.7951   6.8120   6.8120
     6.9825   6.9826   7.0392   7.0453   7.0453   7.1583   7.1724   7.1724
     7.3648   7.4343   7.4343   7.8284   7.9351   7.9351   8.2021   8.3012
     8.3012   8.6317   8.8559   8.9690   8.9690  10.1717  10.3065  10.4320
    10.4320  10.6049  10.6049  10.6851  10.7215  11.0918  11.6545  11.7321

     occupation numbers 
     1.0000   1.0000   1.0000   1.0000   1.0000   1.0000   1.0000   1.0000
     1.0000   1.0000   1.0000   1.0000   1.0000   1.0000   1.0000   1.0000
     1.0000   1.0000   1.0000   1.0000   1.0000   1.0000   1.0000   1.0000
     1.0000   1.0000   1.0000   1.0000   1.0000   1.0000   1.0000   1.0000
     1.0000   1.0000   1.0000   1.0000   1.0000   1.0000   1.0000   1.0000
     1.0000   1.0000   1.0000   1.0000   1.0000   1.0000   1.0000   1.0000
     1.0000   1.0000   1.0000   1.0000   1.0000   1.0000   1.0000   1.0000
     1.0000   1.0000   1.0000   1.0000   1.0000   1.0000   1.0000   1.0000
     1.0000   1.0000   1.0000   1.0000   1.0000   1.0000   1.0000   1.0000

          k = 0.0000-0.1925 0.4588 (  5887 PWs)   bands (ev):

    -8.3944  -7.6880  -7.6543  -7.5801  -7.5801  -7.3584  -7.3470  -7.3470
     3.4855   3.5351   3.5351   3.5682   3.5787   3.5787   3.7734   4.0377
     4.5501   4.5574   4.7107   4.7397   4.8345   4.8345   4.8427   4.8548
     4.8548   4.9138   5.0707   5.1580   5.1580   5.3154   5.3607   5.3607
     6.6731   6.6806   6.7845   6.7845   6.7977   6.8345   6.8524   6.8524
     6.9403   6.9479   6.9619   7.0289   7.0289   7.1121   7.1608   7.1608
     7.5812   7.5812   7.6548   7.8458   7.8458   8.0873   8.8123   8.8771
     8.8771   9.1619   9.6816   9.7921   9.7921  10.0989  10.0989  10.3376
    10.4521  10.5474  10.5980  10.7717  10.7717  10.8501  11.3804  11.3938

     occupation numbers 
     1.0000   1.0000   1.0000   1.0000   1.0000   1.0000   1.0000   1.0000
     1.0000   1.0000   1.0000   1.0000   1.0000   1.0000   1.0000   1.0000
     1.0000   1.0000   1.0000   1.0000   1.0000   1.0000   1.0000   1.0000
     1.0000   1.0000   1.0000   1.0000   1.0000   1.0000   1.0000   1.0000
     1.0000   1.0000   1.0000   1.0000   1.0000   1.0000   1.0000   1.0000
     1.0000   1.0000   1.0000   1.0000   1.0000   1.0000   1.0000   1.0000
     1.0000   1.0000   1.0000   1.0000   1.0000   1.0000   1.0000   1.0000
     1.0000   1.0000   1.0000   1.0000   1.0000   1.0000   1.0000   1.0000
     1.0000   1.0000   1.0000   1.0000   1.0000   1.0000   1.0000   1.0000

          k = 0.0000-0.3849 0.2294 (  5887 PWs)   bands (ev):

    -8.4909  -8.0066  -7.6977  -7.6977  -7.3747  -7.2826  -7.2826  -7.2747
     3.7436   3.8982   3.8982   4.0270   4.0592   4.0833   4.0833   4.1508
     4.6065   4.6535   4.6727   4.6727   4.7695   4.7928   4.8449   4.8449
     4.8621   4.9692   5.2012   5.3503   5.3790   5.3790   5.5566   5.5566
     6.4622   6.4695   6.5065   6.5065   6.5503   6.6823   6.7678   6.7678
     7.0003   7.0019   7.0363   7.0397   7.0588   7.0588   7.2063   7.2063
     7.3938   7.3938   7.7406   7.8826   7.9390   7.9390   8.3306   8.3306
     8.4301   9.0213   9.0233   9.0233   9.2151   9.5212   9.9693  10.2177
    10.2177  10.5225  10.5485  10.5485  10.9413  11.0119  11.4786  11.6106

     occupation numbers 
     1.0000   1.0000   1.0000   1.0000   1.0000   1.0000   1.0000   1.0000
     1.0000   1.0000   1.0000   1.0000   1.0000   1.0000   1.0000   1.0000
     1.0000   1.0000   1.0000   1.0000   1.0000   1.0000   1.0000   1.0000
     1.0000   1.0000   1.0000   1.0000   1.0000   1.0000   1.0000   1.0000
     1.0000   1.0000   1.0000   1.0000   1.0000   1.0000   1.0000   1.0000
     1.0000   1.0000   1.0000   1.0000   1.0000   1.0000   1.0000   1.0000
     1.0000   1.0000   1.0000   1.0000   1.0000   1.0000   1.0000   1.0000
     1.0000   1.0000   1.0000   1.0000   1.0000   1.0000   1.0000   1.0000
     1.0000   1.0000   1.0000   1.0000   1.0000   1.0000   1.0000   1.0000

          k = 0.0000-0.3849 0.4588 (  5878 PWs)   bands (ev):

    -8.2565  -7.8374  -7.6095  -7.5869  -7.5869  -7.4115  -7.3449  -7.3449
     3.5440   3.6503   3.6503   3.6523   3.7095   3.7095   3.7441   3.8943
     4.6095   4.6391   4.6887   4.6887   4.7501   4.7682   4.7814   4.7814
     4.8429   4.8473   4.9744   5.1713   5.2152   5.2152   5.3354   5.3354
     6.6498   6.6562   6.6562   6.6775   6.6799   6.7587   6.8166   6.8166
     6.9454   6.9582   6.9753   7.0604   7.0719   7.0719   7.2389   7.2389
     7.6267   7.6267   8.0896   8.0896   8.1031   8.5805   8.5805   8.6956
     8.8267   9.4842   9.5632   9.6727   9.6727   9.8627   9.9456   9.9456
    10.1523  10.3032  10.5771  10.7764  10.7764  11.0233  11.1762  11.2936

     occupation numbers 
     1.0000   1.0000   1.0000   1.0000   1.0000   1.0000   1.0000   1.0000
     1.0000   1.0000   1.0000   1.0000   1.0000   1.0000   1.0000   1.0000
     1.0000   1.0000   1.0000   1.0000   1.0000   1.0000   1.0000   1.0000
     1.0000   1.0000   1.0000   1.0000   1.0000   1.0000   1.0000   1.0000
     1.0000   1.0000   1.0000   1.0000   1.0000   1.0000   1.0000   1.0000
     1.0000   1.0000   1.0000   1.0000   1.0000   1.0000   1.0000   1.0000
     1.0000   1.0000   1.0000   1.0000   1.0000   1.0000   1.0000   1.0000
     1.0000   1.0000   1.0000   1.0000   1.0000   1.0000   1.0000   1.0000
     1.0000   1.0000   1.0000   1.0000   1.0000   1.0000   1.0000   1.0000

          k =-0.1667-0.4811 0.2294 (  5897 PWs)   bands (ev):

    -8.3495  -8.1061  -7.9066  -7.5419  -7.3351  -7.3288  -7.2857  -7.2671
     3.8255   3.8627   3.9774   4.0866   4.0974   4.1018   4.1182   4.2268
     4.5312   4.6622   4.7048   4.7079   4.7169   4.7863   4.8063   4.8437
     4.9286   5.0800   5.1132   5.2390   5.2675   5.4108   5.4827   5.5811
     6.4184   6.4192   6.4384   6.4724   6.5688   6.6469   6.7313   6.7366
     7.0115   7.0132   7.0150   7.0188   7.0308   7.0332   7.0494   7.1119
     7.4280   7.6498   7.7232   7.8922   7.9314   8.0956   8.3566   8.5527
     8.6994   9.0322   9.0749   9.1093   9.3404   9.5027   9.5463   9.7880
    10.1627  10.1872  10.5422  10.8800  10.9611  11.1607  11.2642  11.4660

     occupation numbers 
     1.0000   1.0000   1.0000   1.0000   1.0000   1.0000   1.0000   1.0000
     1.0000   1.0000   1.0000   1.0000   1.0000   1.0000   1.0000   1.0000
     1.0000   1.0000   1.0000   1.0000   1.0000   1.0000   1.0000   1.0000
     1.0000   1.0000   1.0000   1.0000   1.0000   1.0000   1.0000   1.0000
     1.0000   1.0000   1.0000   1.0000   1.0000   1.0000   1.0000   1.0000
     1.0000   1.0000   1.0000   1.0000   1.0000   1.0000   1.0000   1.0000
     1.0000   1.0000   1.0000   1.0000   1.0000   1.0000   1.0000   1.0000
     1.0000   1.0000   1.0000   1.0000   1.0000   1.0000   1.0000   1.0000
     1.0000   1.0000   1.0000   1.0000   1.0000   1.0000   1.0000   1.0000

          k =-0.1667-0.4811 0.4588 (  5887 PWs)   bands (ev):

    -8.1318  -7.9214  -7.7540  -7.5431  -7.4705  -7.4443  -7.3817  -7.3462
     3.6203   3.6424   3.7009   3.7039   3.7167   3.7942   3.8271   3.8550
     4.5195   4.6444   4.6874   4.7038   4.7086   4.7310   4.7389   4.7700
     4.8167   4.9439   4.9469   5.0856   5.1069   5.2297   5.3382   5.3815
     6.5650   6.6319   6.6377   6.6399   6.6931   6.7234   6.7443   6.8128
     6.9509   6.9623   6.9996   7.0034   7.0431   7.1097   7.1948   7.3450
     7.6189   7.8746   8.0182   8.1083   8.3648   8.5974   8.7666   8.9870
     8.9914   9.2875   9.5255   9.5425   9.5620   9.5644   9.7482  10.0332
    10.0853  10.1620  10.5711  10.5961  10.9313  10.9711  11.1032  11.2394

     occupation numbers 
     1.0000   1.0000   1.0000   1.0000   1.0000   1.0000   1.0000   1.0000
     1.0000   1.0000   1.0000   1.0000   1.0000   1.0000   1.0000   1.0000
     1.0000   1.0000   1.0000   1.0000   1.0000   1.0000   1.0000   1.0000
     1.0000   1.0000   1.0000   1.0000   1.0000   1.0000   1.0000   1.0000
     1.0000   1.0000   1.0000   1.0000   1.0000   1.0000   1.0000   1.0000
     1.0000   1.0000   1.0000   1.0000   1.0000   1.0000   1.0000   1.0000
     1.0000   1.0000   1.0000   1.0000   1.0000   1.0000   1.0000   1.0000
     1.0000   1.0000   1.0000   1.0000   1.0000   1.0000   1.0000   1.0000
     1.0000   1.0000   1.0000   1.0000   1.0000   1.0000   1.0000   1.0000

     highest occupied level (ev):    11.8787

!    total energy              =   -1445.71547898 Ry
     estimated scf accuracy    <          1.7E-09 Ry

     The total energy is the sum of the following terms:
     one-electron contribution =    -485.49826827 Ry
     hartree contribution      =     428.81910351 Ry
     xc contribution           =    -441.12712093 Ry
     ewald contribution        =    -947.90919328 Ry

     convergence has been achieved in  23 iterations

     Forces acting on atoms (cartesian axes, Ry/au):

     atom    1 type  1   force =     0.00000025    0.00000015   -0.14726030
     atom    2 type  1   force =     0.00000000   -0.00000022   -0.14726050
     atom    3 type  2   force =    -0.00000001   -0.00000000    0.14726023
     atom    4 type  2   force =     0.00000000    0.00000010    0.14726056
     atom    5 type  1   force =     0.00000000    0.00000000   -0.14726095
     atom    6 type  1   force =    -0.00000019    0.00000011   -0.14726050
     atom    7 type  2   force =     0.00000000    0.00000000    0.14726049
     atom    8 type  2   force =     0.00000009   -0.00000005    0.14726056
     atom    9 type  1   force =    -0.00000025    0.00000015   -0.14726030
     atom   10 type  1   force =     0.00000000    0.00000000   -0.14726019
     atom   11 type  2   force =     0.00000001   -0.00000000    0.14726023
     atom   12 type  2   force =     0.00000000   -0.00000000    0.14726068
     atom   13 type  1   force =     0.00000000   -0.00000029   -0.14726030
     atom   14 type  1   force =     0.00000019    0.00000011   -0.14726050
     atom   15 type  2   force =     0.00000000    0.00000001    0.14726023
     atom   16 type  2   force =    -0.00000009   -0.00000005    0.14726056
     The non-local contrib.  to forces
     atom    1 type  1   force =    -0.00000002   -0.00000001   -0.36004645
     atom    2 type  1   force =     0.00000000   -0.00000008   -0.36004648
     atom    3 type  2   force =     0.00000013    0.00000007   -0.19914438
     atom    4 type  2   force =    -0.00000000   -0.00000014   -0.19914443
     atom    5 type  1   force =     0.00000000    0.00000000   -0.36004654
     atom    6 type  1   force =    -0.00000007    0.00000004   -0.36004648
     atom    7 type  2   force =     0.00000000    0.00000000   -0.19914414
     atom    8 type  2   force =    -0.00000012    0.00000007   -0.19914443
     atom    9 type  1   force =     0.00000002   -0.00000001   -0.36004645
     atom   10 type  1   force =     0.00000000   -0.00000000   -0.36004652
     atom   11 type  2   force =    -0.00000013    0.00000007   -0.19914438
     atom   12 type  2   force =    -0.00000000    0.00000000   -0.19914466
     atom   13 type  1   force =     0.00000000    0.00000002   -0.36004645
     atom   14 type  1   force =     0.00000007    0.00000004   -0.36004648
     atom   15 type  2   force =     0.00000000   -0.00000014   -0.19914438
     atom   16 type  2   force =     0.00000012    0.00000007   -0.19914443
     The ionic contribution  to forces
     atom    1 type  1   force =     0.00000000    0.00000003   -2.55793342
     atom    2 type  1   force =     0.00000002    0.00000001   -2.55793342
     atom    3 type  2   force =     0.00000000    0.00000001    2.55793342
     atom    4 type  2   force =     0.00000001    0.00000001    2.55793342
     atom    5 type  1   force =     0.00000001   -0.00000002   -2.55793342
     atom    6 type  1   force =     0.00000001    0.00000001   -2.55793341
     atom    7 type  2   force =     0.00000001   -0.00000001    2.55793342
     atom    8 type  2   force =     0.00000000    0.00000000    2.55793341
     atom    9 type  1   force =     0.00000000    0.00000000   -2.55793342
     atom   10 type  1   force =    -0.00000002    0.00000001   -2.55793342
     atom   11 type  2   force =     0.00000000   -0.00000000    2.55793342
     atom   12 type  2   force =    -0.00000001    0.00000001    2.55793342
     atom   13 type  1   force =    -0.00000002   -0.00000002   -2.55793342
     atom   14 type  1   force =     0.00000001   -0.00000002   -2.55793342
     atom   15 type  2   force =    -0.00000002   -0.00000001    2.55793342
     atom   16 type  2   force =     0.00000000   -0.00000001    2.55793342
     The local contribution  to forces
     atom    1 type  1   force =    -0.00000029   -0.00000008    2.73458040
     atom    2 type  1   force =     0.00000008    0.00000058    2.73458014
     atom    3 type  2   force =    -0.00000016   -0.00000007   -2.21245909
     atom    4 type  2   force =     0.00000002    0.00000022   -2.21246017
     atom    5 type  1   force =     0.00000008   -0.00000005    2.73458110
     atom    6 type  1   force =     0.00000054   -0.00000022    2.73458014
     atom    7 type  2   force =     0.00000002   -0.00000001   -2.21245927
     atom    8 type  2   force =     0.00000020   -0.00000009   -2.21246017
     atom    9 type  1   force =     0.00000029   -0.00000008    2.73458040
     atom   10 type  1   force =    -0.00000008    0.00000005    2.73457976
     atom   11 type  2   force =     0.00000016   -0.00000007   -2.21245909
     atom   12 type  2   force =    -0.00000002    0.00000001   -2.21245915
     atom   13 type  1   force =    -0.00000008    0.00000029    2.73458040
     atom   14 type  1   force =    -0.00000038   -0.00000022    2.73458014
     atom   15 type  2   force =    -0.00000002    0.00000017   -2.21245909
     atom   16 type  2   force =    -0.00000016   -0.00000009   -2.21246017
     The core correction contribution to forces
     atom    1 type  1   force =    -0.00000004   -0.00000001    0.03614583
     atom    2 type  1   force =     0.00000001   -0.00000005    0.03614586
     atom    3 type  2   force =    -0.00000001   -0.00000001    0.00093222
     atom    4 type  2   force =    -0.00000000   -0.00000001    0.00093222
     atom    5 type  1   force =     0.00000001   -0.00000001    0.03614579
     atom    6 type  1   force =    -0.00000004    0.00000003    0.03614586
     atom    7 type  2   force =    -0.00000000    0.00000000    0.00093220
     atom    8 type  2   force =    -0.00000001    0.00000000    0.00093222
     atom    9 type  1   force =     0.00000004   -0.00000001    0.03614583
     atom   10 type  1   force =    -0.00000001    0.00000001    0.03614583
     atom   11 type  2   force =     0.00000001   -0.00000001    0.00093222
     atom   12 type  2   force =     0.00000000   -0.00000000    0.00093220
     atom   13 type  1   force =    -0.00000001    0.00000004    0.03614583
     atom   14 type  1   force =     0.00000006    0.00000003    0.03614586
     atom   15 type  2   force =     0.00000000    0.00000001    0.00093222
     atom   16 type  2   force =     0.00000001    0.00000000    0.00093222
     The Hubbard contrib.    to forces
     atom    1 type  1   force =     0.00000000    0.00000000    0.00000000
     atom    2 type  1   force =     0.00000000    0.00000000    0.00000000
     atom    3 type  2   force =     0.00000000    0.00000000    0.00000000
     atom    4 type  2   force =     0.00000000    0.00000000    0.00000000
     atom    5 type  1   force =     0.00000000    0.00000000    0.00000000
     atom    6 type  1   force =     0.00000000    0.00000000    0.00000000
     atom    7 type  2   force =     0.00000000    0.00000000    0.00000000
     atom    8 type  2   force =     0.00000000    0.00000000    0.00000000
     atom    9 type  1   force =     0.00000000    0.00000000    0.00000000
     atom   10 type  1   force =     0.00000000    0.00000000    0.00000000
     atom   11 type  2   force =     0.00000000    0.00000000    0.00000000
     atom   12 type  2   force =     0.00000000    0.00000000    0.00000000
     atom   13 type  1   force =     0.00000000    0.00000000    0.00000000
     atom   14 type  1   force =     0.00000000    0.00000000    0.00000000
     atom   15 type  2   force =     0.00000000    0.00000000    0.00000000
     atom   16 type  2   force =     0.00000000    0.00000000    0.00000000
     The SCF correction term to forces
     atom    1 type  1   force =     0.00000055    0.00000031   -0.00000609
     atom    2 type  1   force =     0.00000000   -0.00000062   -0.00000602
     atom    3 type  2   force =     0.00000002    0.00000001   -0.00000136
     atom    4 type  2   force =     0.00000000    0.00000004    0.00000009
     atom    5 type  1   force =     0.00000000   -0.00000000   -0.00000730
     atom    6 type  1   force =    -0.00000054    0.00000031   -0.00000602
     atom    7 type  2   force =     0.00000000   -0.00000000   -0.00000113
     atom    8 type  2   force =     0.00000004   -0.00000002    0.00000009
     atom    9 type  1   force =    -0.00000055    0.00000031   -0.00000609
     atom   10 type  1   force =    -0.00000000    0.00000000   -0.00000526
     atom   11 type  2   force =    -0.00000002    0.00000001   -0.00000136
     atom   12 type  2   force =    -0.00000000    0.00000000   -0.00000056
     atom   13 type  1   force =    -0.00000000   -0.00000063   -0.00000609
     atom   14 type  1   force =     0.00000054    0.00000031   -0.00000602
     atom   15 type  2   force =    -0.00000000   -0.00000002   -0.00000136
     atom   16 type  2   force =    -0.00000004   -0.00000002    0.00000009

     Total force =     0.589042     Total SCF correction =     0.000018

     init_run     :      6.60s CPU      6.45s WALL (       1 calls)
     electrons    :    315.61s CPU    257.27s WALL (       1 calls)
     forces       :      4.12s CPU      3.12s WALL (       1 calls)

     Called by init_run:
     wfcinit      :      3.06s CPU      2.75s WALL (       1 calls)
     wfcinit:atom :      0.10s CPU      0.12s WALL (       5 calls)
     wfcinit:wfcr :      2.43s CPU      2.10s WALL (       5 calls)
     potinit      :      1.14s CPU      1.21s WALL (       1 calls)
     hinit0       :      2.11s CPU      2.13s WALL (       1 calls)

     Called by electrons:
     c_bands      :    279.40s CPU    224.12s WALL (      23 calls)
     sum_band     :     21.35s CPU     17.52s WALL (      23 calls)
     v_of_rho     :      8.56s CPU      9.24s WALL (      24 calls)
     v_h          :      0.49s CPU      0.59s WALL (      24 calls)
     v_xc         :      8.43s CPU      9.04s WALL (      25 calls)
     newd         :      4.33s CPU      4.64s WALL (      24 calls)
     mix_rho      :      1.36s CPU      1.23s WALL (      23 calls)

     Called by c_bands:
     init_us_2    :      3.53s CPU      3.14s WALL (     240 calls)
     init_us_2:cp :      3.52s CPU      3.14s WALL (     240 calls)
     cegterg      :    246.84s CPU    193.17s WALL (     115 calls)

     Called by sum_band:
     sum_band:wei :      0.03s CPU      0.02s WALL (      23 calls)
     sum_band:loo :     17.72s CPU     14.19s WALL (      23 calls)
     sum_band:buf :      0.57s CPU      0.50s WALL (     115 calls)
     sum_band:ini :      1.77s CPU      1.50s WALL (     115 calls)
     sum_band:cal :      3.42s CPU      1.73s WALL (     115 calls)
     sum_band:bec :      0.02s CPU      0.01s WALL (     115 calls)
     addusdens    :      1.67s CPU      1.42s WALL (      23 calls)
                                        0.00s GPU  (      23 calls)
     addusd:skk   :      0.02s CPU      0.02s WALL (      46 calls)
                                        0.00s GPU  (      46 calls)

     Called by *egterg:
     cdiaghg      :     18.41s CPU     14.16s WALL (     843 calls)
     cegterg:over :     15.10s CPU      8.05s WALL (     728 calls)
     cegterg:upda :     18.21s CPU     14.63s WALL (     728 calls)
     cegterg:last :     49.01s CPU     41.26s WALL (     476 calls)
     h_psi        :    111.95s CPU     87.94s WALL (     848 calls)
     s_psi        :     19.11s CPU      9.86s WALL (     848 calls)
     g_psi        :      2.07s CPU      1.75s WALL (     728 calls)

     Called by h_psi:
     h_psi:calbec :     16.42s CPU      8.47s WALL (     848 calls)
     vloc_psi     :     74.97s CPU     68.32s WALL (     848 calls)
     add_vuspsi   :     20.01s CPU     10.31s WALL (     848 calls)

     General routines
     calbec       :     21.72s CPU     11.13s WALL (     983 calls)
     fft          :      4.60s CPU      4.51s WALL (     321 calls)
     ffts         :      0.52s CPU      0.50s WALL (      47 calls)
     fftw         :     66.00s CPU     59.50s WALL (   19896 calls)
     interpolate  :      0.83s CPU      0.83s WALL (      24 calls)

     Parallel routines

     PWSCF        :   5m26.87s CPU   4m27.40s WALL


   This run was terminated on:  16:32:58  23Aug2025            

=------------------------------------------------------------------------------=
   JOB DONE.
=------------------------------------------------------------------------------=
Note: The following floating-point exceptions are signalling: IEEE_INVALID_FLAG
Note: The following floating-point exceptions are signalling: IEEE_INVALID_FLAG
Note: The following floating-point exceptions are signalling: IEEE_INVALID_FLAG
Note: The following floating-point exceptions are signalling: IEEE_INVALID_FLAG
Note: The following floating-point exceptions are signalling: IEEE_INVALID_FLAG
Note: The following floating-point exceptions are signalling: IEEE_INVALID_FLAG
Note: The following floating-point exceptions are signalling: IEEE_INVALID_FLAG
Note: The following floating-point exceptions are signalling: IEEE_INVALID_FLAG
Note: The following floating-point exceptions are signalling: IEEE_INVALID_FLAG
Note: The following floating-point exceptions are signalling: IEEE_INVALID_FLAG
Note: The following floating-point exceptions are signalling: IEEE_INVALID_FLAG
Note: The following floating-point exceptions are signalling: IEEE_INVALID_FLAG
Note: The following floating-point exceptions are signalling: IEEE_INVALID_FLAG
Note: The following floating-point exceptions are signalling: IEEE_INVALID_FLAG
Note: The following floating-point exceptions are signalling: IEEE_INVALID_FLAG
Note: The following floating-point exceptions are signalling: IEEE_INVALID_FLAG
Note: The following floating-point exceptions are signalling: IEEE_INVALID_FLAG
Note: The following floating-point exceptions are signalling: IEEE_INVALID_FLAG
Note: The following floating-point exceptions are signalling: IEEE_INVALID_FLAG
Note: The following floating-point exceptions are signalling: IEEE_INVALID_FLAG
Note: The following floating-point exceptions are signalling: IEEE_INVALID_FLAG
Note: The following floating-point exceptions are signalling: IEEE_INVALID_FLAG
Note: The following floating-point exceptions are signalling: IEEE_INVALID_FLAG
Note: The following floating-point exceptions are signalling: IEEE_INVALID_FLAG
Note: The following floating-point exceptions are signalling: IEEE_INVALID_FLAG
Note: The following floating-point exceptions are signalling: IEEE_INVALID_FLAG
Note: The following floating-point exceptions are signalling: IEEE_INVALID_FLAG
Note: The following floating-point exceptions are signalling: IEEE_INVALID_FLAG
Note: The following floating-point exceptions are signalling: IEEE_INVALID_FLAG
Note: The following floating-point exceptions are signalling: IEEE_INVALID_FLAG
Note: The following floating-point exceptions are signalling: IEEE_INVALID_FLAG
Note: The following floating-point exceptions are signalling: IEEE_INVALID_FLAG
