
     Program PWSCF v.7.2 starts on 23Aug2025 at 21:28: 8 

     This program is part of the open-source Quantum ESPRESSO suite
     for quantum simulation of materials; please cite
         "P. Giannozzi et al., J. Phys.:Condens. Matter 21 395502 (2009);
         "P. Giannozzi et al., J. Phys.:Condens. Matter 29 465901 (2017);
         "P. Giannozzi et al., J. Chem. Phys. 152 154105 (2020);
          URL http://www.quantum-espresso.org", 
     in publications or presentations arising from this work. More details at
     http://www.quantum-espresso.org/quote

     Parallel version (MPI), running on    32 processors

     MPI processes distributed on     1 nodes
     121728 MiB available memory on the printing compute node when the environment starts

     Reading input from /home/jvc/QEspresso7.2/ZnO_database/scripts/cell221.in/ZnO-3.34-1.65-221.in
Warning: card &CELL ignored
Warning: card / ignored
Warning: card &FCP ignored
Warning: card / ignored
Warning: card &RISM ignored
Warning: card / ignored

     Current dimensions of program PWSCF are:
     Max number of different atomic species (ntypx) = 10
     Max number of k-points (npk) =  40000
     Max angular momentum in pseudopotentials (lmaxx) =  4
     file Zn.upf: wavefunction(s)  3D renormalized
     Found identity + (  0.0000 -0.5000  0.0000) symmetry
     This is a supercell, fractional translations are disabled
     Message from routine setup:
     using ibrav=0 with symmetry is DISCOURAGED, use correct ibrav instead

     K-points division:     npool     =       8
     band groups division:  nbgrp     =       4
     Subspace diagonalization in iterative solution of the eigenvalue problem:
     a serial algorithm will be used


     G-vector sticks info
     --------------------
     sticks:   dense  smooth     PW     G-vecs:    dense   smooth      PW
     Sum        4381    2197    613               192583    68279   10201

     Using Slab Decomposition



     bravais-lattice index     =            0
     lattice parameter (alat)  =      12.6049  a.u.
     unit-cell volume          =    1427.9567 (a.u.)^3
     number of atoms/cell      =           16
     number of atomic types    =            2
     number of electrons       =       144.00
     number of Kohn-Sham states=           72
     kinetic-energy cutoff     =      50.0000  Ry
     charge density cutoff     =     400.0000  Ry
     scf convergence threshold =      1.0E-08
     mixing beta               =       0.3000
     number of iterations used =            8  plain     mixing
     Exchange-correlation= PBE
                           (   1   4   3   4   0   0   0)

     celldm(1)=  12.604862  celldm(2)=   0.000000  celldm(3)=   0.000000
     celldm(4)=   0.000000  celldm(5)=   0.000000  celldm(6)=   0.000000

     crystal axes: (cart. coord. in units of alat)
               a(1) = (   1.000000   0.000000   0.000000 )  
               a(2) = (  -0.500000   0.866025   0.000000 )  
               a(3) = (   0.000000   0.000000   0.823323 )  

     reciprocal axes: (cart. coord. in units 2 pi/alat)
               b(1) = (  1.000000  0.577350 -0.000000 )  
               b(2) = (  0.000000  1.154701  0.000000 )  
               b(3) = (  0.000000 -0.000000  1.214590 )  


     PseudoPot. # 1 for Zn read from file:
     /home/jvc/QEspresso7.2/ZnO_database/pseudos/Zn.upf
     MD5 check sum: 7f56cabf9682ed8c977c2f7d0c5985c5
     Pseudo is Ultrasoft + core correction, Zval = 12.0
     Generated using &quot;atomic&quot; code by A. Dal Corso  v.6.2.2
     Using radial grid of 1201 points,  6 beta functions with: 
                l(1) =   0
                l(2) =   0
                l(3) =   1
                l(4) =   1
                l(5) =   2
                l(6) =   2
     Q(r) pseudized with 0 coefficients 


     PseudoPot. # 2 for O  read from file:
     /home/jvc/QEspresso7.2/ZnO_database/pseudos/O.upf
     MD5 check sum: 91400c9766925bcf19f520983a725ff0
     Pseudo is Ultrasoft + core correction, Zval =  6.0
     Generated using &quot;atomic&quot; code by A. Dal Corso  v.6.3MaX
     Using radial grid of 1095 points,  4 beta functions with: 
                l(1) =   0
                l(2) =   0
                l(3) =   1
                l(4) =   1
     Q(r) pseudized with 0 coefficients 


     atomic species   valence    mass     pseudopotential
        Zn            12.00    65.38000     Zn( 1.00)
        O              6.00    15.99900     O ( 1.00)

      6 Sym. Ops. (no inversion) found


                                    s                        frac. trans.

      isym =  1     identity                                     

 cryst.   s( 1) = (     1          0          0      )
                  (     0          1          0      )
                  (     0          0          1      )

 cart.    s( 1) = (  1.0000000  0.0000000  0.0000000 )
                  (  0.0000000  1.0000000  0.0000000 )
                  (  0.0000000  0.0000000  1.0000000 )


      isym =  2     120 deg rotation - cryst. axis [0,0,1]       

 cryst.   s( 2) = (     0          1          0      )
                  (    -1         -1          0      )
                  (     0          0          1      )

 cart.    s( 2) = ( -0.5000000 -0.8660254  0.0000000 )
                  (  0.8660254 -0.5000000  0.0000000 )
                  (  0.0000000  0.0000000  1.0000000 )


      isym =  3     120 deg rotation - cryst. axis [0,0,-1]      

 cryst.   s( 3) = (    -1         -1          0      )
                  (     1          0          0      )
                  (     0          0          1      )

 cart.    s( 3) = ( -0.5000000  0.8660254  0.0000000 )
                  ( -0.8660254 -0.5000000  0.0000000 )
                  (  0.0000000  0.0000000  1.0000000 )


      isym =  4     inv. 180 deg rotation - cart. axis [1,0,0]   

 cryst.   s( 4) = (    -1          0          0      )
                  (     1          1          0      )
                  (     0          0          1      )

 cart.    s( 4) = ( -1.0000000  0.0000000  0.0000000 )
                  (  0.0000000  1.0000000  0.0000000 )
                  (  0.0000000  0.0000000  1.0000000 )


      isym =  5     inv. 180 deg rotation - cryst. axis [0,1,0]  

 cryst.   s( 5) = (     1          1          0      )
                  (     0         -1          0      )
                  (     0          0          1      )

 cart.    s( 5) = (  0.5000000  0.8660254  0.0000000 )
                  (  0.8660254 -0.5000000  0.0000000 )
                  (  0.0000000  0.0000000  1.0000000 )


      isym =  6     inv. 180 deg rotation - cryst. axis [1,1,0]  

 cryst.   s( 6) = (     0         -1          0      )
                  (    -1          0          0      )
                  (     0          0          1      )

 cart.    s( 6) = (  0.5000000 -0.8660254  0.0000000 )
                  ( -0.8660254 -0.5000000  0.0000000 )
                  (  0.0000000  0.0000000  1.0000000 )


   Cartesian axes

     site n.     atom                  positions (alat units)
         1           Zn  tau(   1) = (   0.2500000   0.1443376   0.4121830  )
         2           Zn  tau(   2) = (  -0.0000000   0.2886751   0.0005216  )
         3           O   tau(   3) = (   0.2500000   0.1443376   0.7242576  )
         4           O   tau(   4) = (  -0.0000000   0.2886751   0.3125962  )
         5           Zn  tau(   5) = (   0.0000000   0.5773503   0.4121830  )
         6           Zn  tau(   6) = (  -0.2500000   0.7216878   0.0005216  )
         7           O   tau(   7) = (   0.0000000   0.5773503   0.7242576  )
         8           O   tau(   8) = (  -0.2500000   0.7216878   0.3125962  )
         9           Zn  tau(   9) = (   0.7500000   0.1443376   0.4121830  )
        10           Zn  tau(  10) = (   0.5000000   0.2886751   0.0005216  )
        11           O   tau(  11) = (   0.7500000   0.1443376   0.7242576  )
        12           O   tau(  12) = (   0.5000000   0.2886751   0.3125962  )
        13           Zn  tau(  13) = (   0.5000000   0.5773503   0.4121830  )
        14           Zn  tau(  14) = (   0.2500000   0.7216878   0.0005216  )
        15           O   tau(  15) = (   0.5000000   0.5773503   0.7242576  )
        16           O   tau(  16) = (   0.2500000   0.7216878   0.3125962  )

   Crystallographic axes

     site n.     atom                  positions (cryst. coord.)
         1           Zn  tau(   1) = (  0.3333333  0.1666667  0.5006336  )
         2           Zn  tau(   2) = (  0.1666667  0.3333333  0.0006336  )
         3           O   tau(   3) = (  0.3333333  0.1666667  0.8796764  )
         4           O   tau(   4) = (  0.1666667  0.3333333  0.3796764  )
         5           Zn  tau(   5) = (  0.3333333  0.6666667  0.5006336  )
         6           Zn  tau(   6) = (  0.1666667  0.8333333  0.0006336  )
         7           O   tau(   7) = (  0.3333333  0.6666667  0.8796764  )
         8           O   tau(   8) = (  0.1666667  0.8333333  0.3796764  )
         9           Zn  tau(   9) = (  0.8333333  0.1666667  0.5006336  )
        10           Zn  tau(  10) = (  0.6666667  0.3333333  0.0006336  )
        11           O   tau(  11) = (  0.8333333  0.1666667  0.8796764  )
        12           O   tau(  12) = (  0.6666667  0.3333333  0.3796764  )
        13           Zn  tau(  13) = (  0.8333333  0.6666667  0.5006336  )
        14           Zn  tau(  14) = (  0.6666667  0.8333333  0.0006336  )
        15           O   tau(  15) = (  0.8333333  0.6666667  0.8796764  )
        16           O   tau(  16) = (  0.6666667  0.8333333  0.3796764  )

     number of k points=    34
                       cart. coord. in units 2pi/alat
        k(    1) = (   0.0000000   0.0000000   0.0000000), wk =   0.0092593
        k(    2) = (   0.0000000   0.0000000   0.2024317), wk =   0.0185185
        k(    3) = (   0.0000000   0.0000000   0.4048635), wk =   0.0185185
        k(    4) = (   0.0000000   0.0000000  -0.6072952), wk =   0.0092593
        k(    5) = (   0.0000000   0.1924501   0.0000000), wk =   0.0555556
        k(    6) = (   0.0000000   0.1924501   0.2024317), wk =   0.0555556
        k(    7) = (   0.0000000   0.1924501   0.4048635), wk =   0.0555556
        k(    8) = (   0.0000000   0.1924501  -0.6072952), wk =   0.0555556
        k(    9) = (   0.0000000   0.3849002   0.0000000), wk =   0.0555556
        k(   10) = (   0.0000000   0.3849002   0.2024317), wk =   0.0555556
        k(   11) = (   0.0000000   0.3849002   0.4048635), wk =   0.0555556
        k(   12) = (   0.0000000   0.3849002  -0.6072952), wk =   0.0555556
        k(   13) = (   0.0000000  -0.5773503   0.0000000), wk =   0.0277778
        k(   14) = (   0.0000000  -0.5773503   0.2024317), wk =   0.0555556
        k(   15) = (   0.0000000  -0.5773503   0.4048635), wk =   0.0555556
        k(   16) = (   0.0000000  -0.5773503  -0.6072952), wk =   0.0277778
        k(   17) = (   0.1666667   0.2886751   0.0000000), wk =   0.0555556
        k(   18) = (   0.1666667   0.2886751   0.2024317), wk =   0.1111111
        k(   19) = (   0.1666667   0.2886751   0.4048635), wk =   0.1111111
        k(   20) = (   0.1666667   0.2886751  -0.6072952), wk =   0.0555556
        k(   21) = (   0.1666667   0.4811252   0.0000000), wk =   0.1111111
        k(   22) = (   0.1666667   0.4811252   0.2024317), wk =   0.1111111
        k(   23) = (   0.1666667   0.4811252   0.4048635), wk =   0.1111111
        k(   24) = (   0.1666667   0.4811252  -0.6072952), wk =   0.1111111
        k(   25) = (   0.3333333   0.5773503   0.0000000), wk =   0.0185185
        k(   26) = (   0.3333333   0.5773503   0.2024317), wk =   0.0370370
        k(   27) = (   0.3333333   0.5773503   0.4048635), wk =   0.0370370
        k(   28) = (   0.3333333   0.5773503  -0.6072952), wk =   0.0185185
        k(   29) = (   0.0000000  -0.1924501   0.2024317), wk =   0.0555556
        k(   30) = (   0.0000000  -0.1924501   0.4048635), wk =   0.0555556
        k(   31) = (   0.0000000  -0.3849002   0.2024317), wk =   0.0555556
        k(   32) = (   0.0000000  -0.3849002   0.4048635), wk =   0.0555556
        k(   33) = (  -0.1666667  -0.4811252   0.2024317), wk =   0.1111111
        k(   34) = (  -0.1666667  -0.4811252   0.4048635), wk =   0.1111111

                       cryst. coord.
        k(    1) = (   0.0000000   0.0000000   0.0000000), wk =   0.0092593
        k(    2) = (   0.0000000   0.0000000   0.1666667), wk =   0.0185185
        k(    3) = (   0.0000000   0.0000000   0.3333333), wk =   0.0185185
        k(    4) = (   0.0000000   0.0000000  -0.5000000), wk =   0.0092593
        k(    5) = (   0.0000000   0.1666667   0.0000000), wk =   0.0555556
        k(    6) = (   0.0000000   0.1666667   0.1666667), wk =   0.0555556
        k(    7) = (   0.0000000   0.1666667   0.3333333), wk =   0.0555556
        k(    8) = (   0.0000000   0.1666667  -0.5000000), wk =   0.0555556
        k(    9) = (   0.0000000   0.3333333   0.0000000), wk =   0.0555556
        k(   10) = (   0.0000000   0.3333333   0.1666667), wk =   0.0555556
        k(   11) = (   0.0000000   0.3333333   0.3333333), wk =   0.0555556
        k(   12) = (   0.0000000   0.3333333  -0.5000000), wk =   0.0555556
        k(   13) = (   0.0000000  -0.5000000   0.0000000), wk =   0.0277778
        k(   14) = (   0.0000000  -0.5000000   0.1666667), wk =   0.0555556
        k(   15) = (   0.0000000  -0.5000000   0.3333333), wk =   0.0555556
        k(   16) = (   0.0000000  -0.5000000  -0.5000000), wk =   0.0277778
        k(   17) = (   0.1666667   0.1666667   0.0000000), wk =   0.0555556
        k(   18) = (   0.1666667   0.1666667   0.1666667), wk =   0.1111111
        k(   19) = (   0.1666667   0.1666667   0.3333333), wk =   0.1111111
        k(   20) = (   0.1666667   0.1666667  -0.5000000), wk =   0.0555556
        k(   21) = (   0.1666667   0.3333333   0.0000000), wk =   0.1111111
        k(   22) = (   0.1666667   0.3333333   0.1666667), wk =   0.1111111
        k(   23) = (   0.1666667   0.3333333   0.3333333), wk =   0.1111111
        k(   24) = (   0.1666667   0.3333333  -0.5000000), wk =   0.1111111
        k(   25) = (   0.3333333   0.3333333   0.0000000), wk =   0.0185185
        k(   26) = (   0.3333333   0.3333333   0.1666667), wk =   0.0370370
        k(   27) = (   0.3333333   0.3333333   0.3333333), wk =   0.0370370
        k(   28) = (   0.3333333   0.3333333  -0.5000000), wk =   0.0185185
        k(   29) = (   0.0000000  -0.1666667   0.1666667), wk =   0.0555556
        k(   30) = (   0.0000000  -0.1666667   0.3333333), wk =   0.0555556
        k(   31) = (   0.0000000  -0.3333333   0.1666667), wk =   0.0555556
        k(   32) = (   0.0000000  -0.3333333   0.3333333), wk =   0.0555556
        k(   33) = (  -0.1666667  -0.3333333   0.1666667), wk =   0.1111111
        k(   34) = (  -0.1666667  -0.3333333   0.3333333), wk =   0.1111111

     Dense  grid:   192583 G-vectors     FFT dimensions: (  81,  81,  72)

     Smooth grid:    68279 G-vectors     FFT dimensions: (  60,  60,  48)

     Dynamical RAM for                 wfc:       9.37 MB

     Dynamical RAM for     wfc (w. buffer):      56.20 MB

     Dynamical RAM for           str. fact:       5.88 MB

     Dynamical RAM for           local pot:       0.00 MB

     Dynamical RAM for          nlocal pot:      27.06 MB

     Dynamical RAM for                qrad:       3.21 MB

     Dynamical RAM for          rho,v,vnew:      19.63 MB

     Dynamical RAM for               rhoin:       6.54 MB

     Dynamical RAM for            rho*nmix:      47.02 MB

     Dynamical RAM for           G-vectors:      11.54 MB

     Dynamical RAM for          h,s,v(r/c):       0.95 MB

     Dynamical RAM for          <psi|beta>:       0.23 MB

     Dynamical RAM for                 psi:      18.73 MB

     Dynamical RAM for                hpsi:      18.73 MB

     Dynamical RAM for                spsi:      18.73 MB

     Dynamical RAM for      wfcinit/wfcrot:      27.31 MB

     Dynamical RAM for           addusdens:      73.83 MB

     Dynamical RAM for          addusforce:      77.90 MB

     Estimated static dynamical RAM per process >     156.89 MB

     Estimated max dynamical RAM per process >     281.81 MB

     Estimated total dynamical RAM >       7.52 GB

     Check: negative core charge=   -0.000002

     Initial potential from superposition of free atoms

     starting charge     143.9702, renormalised to     144.0000
     Starting wfcs are  104 randomized atomic wfcs

     total cpu time spent up to now is        9.3 secs

     Self-consistent Calculation

     iteration #  1     ecut=    50.00 Ry     beta= 0.30
     Davidson diagonalization with overlap

---- Real-time Memory Report at c_bands before calling an iterative solver
           207 MiB given to the printing process from OS
             0 MiB allocation reported by mallinfo(arena+hblkhd)
        116357 MiB available memory on the node where the printing process lives
------------------
     ethr =  1.00E-02,  avg # of iterations =  2.0

     total cpu time spent up to now is       17.6 secs

     total energy              =   -1445.84516864 Ry
     estimated scf accuracy    <       2.88882917 Ry

     iteration #  2     ecut=    50.00 Ry     beta= 0.30
     Davidson diagonalization with overlap

---- Real-time Memory Report at c_bands before calling an iterative solver
           286 MiB given to the printing process from OS
             0 MiB allocation reported by mallinfo(arena+hblkhd)
        114031 MiB available memory on the node where the printing process lives
------------------
     ethr =  2.01E-03,  avg # of iterations =  2.0

     total cpu time spent up to now is       27.3 secs

     total energy              =   -1446.30391217 Ry
     estimated scf accuracy    <       0.32414713 Ry

     iteration #  3     ecut=    50.00 Ry     beta= 0.30
     Davidson diagonalization with overlap

---- Real-time Memory Report at c_bands before calling an iterative solver
           289 MiB given to the printing process from OS
             0 MiB allocation reported by mallinfo(arena+hblkhd)
        114270 MiB available memory on the node where the printing process lives
------------------
     ethr =  2.25E-04,  avg # of iterations =  7.6

     total cpu time spent up to now is       44.6 secs

     total energy              =   -1446.39731313 Ry
     estimated scf accuracy    <       0.25685785 Ry

     iteration #  4     ecut=    50.00 Ry     beta= 0.30
     Davidson diagonalization with overlap

---- Real-time Memory Report at c_bands before calling an iterative solver
           291 MiB given to the printing process from OS
             0 MiB allocation reported by mallinfo(arena+hblkhd)
        114228 MiB available memory on the node where the printing process lives
------------------
     ethr =  1.78E-04,  avg # of iterations = 10.0

     total cpu time spent up to now is       67.0 secs

     total energy              =   -1446.57430756 Ry
     estimated scf accuracy    <       1.03463644 Ry

     iteration #  5     ecut=    50.00 Ry     beta= 0.30
     Davidson diagonalization with overlap

---- Real-time Memory Report at c_bands before calling an iterative solver
           293 MiB given to the printing process from OS
             0 MiB allocation reported by mallinfo(arena+hblkhd)
        114269 MiB available memory on the node where the printing process lives
------------------
     ethr =  1.78E-04,  avg # of iterations =  2.0

     total cpu time spent up to now is       75.4 secs

     total energy              =   -1446.09941422 Ry
     estimated scf accuracy    <       0.61159500 Ry

     iteration #  6     ecut=    50.00 Ry     beta= 0.30
     Davidson diagonalization with overlap

---- Real-time Memory Report at c_bands before calling an iterative solver
           295 MiB given to the printing process from OS
             0 MiB allocation reported by mallinfo(arena+hblkhd)
        114199 MiB available memory on the node where the printing process lives
------------------
     ethr =  1.78E-04,  avg # of iterations = 11.7

     total cpu time spent up to now is       97.9 secs

     total energy              =   -1446.40793035 Ry
     estimated scf accuracy    <       2.21072492 Ry

     iteration #  7     ecut=    50.00 Ry     beta= 0.30
     Davidson diagonalization with overlap

---- Real-time Memory Report at c_bands before calling an iterative solver
           297 MiB given to the printing process from OS
             0 MiB allocation reported by mallinfo(arena+hblkhd)
        114281 MiB available memory on the node where the printing process lives
------------------
     ethr =  1.78E-04,  avg # of iterations =  6.1

     total cpu time spent up to now is      112.0 secs

     total energy              =   -1446.59523992 Ry
     estimated scf accuracy    <       0.31921608 Ry

     iteration #  8     ecut=    50.00 Ry     beta= 0.30
     Davidson diagonalization with overlap

---- Real-time Memory Report at c_bands before calling an iterative solver
           299 MiB given to the printing process from OS
             0 MiB allocation reported by mallinfo(arena+hblkhd)
        114220 MiB available memory on the node where the printing process lives
------------------
     ethr =  1.78E-04,  avg # of iterations =  1.0

     total cpu time spent up to now is      119.2 secs

     total energy              =   -1446.56073747 Ry
     estimated scf accuracy    <       0.35651800 Ry

     iteration #  9     ecut=    50.00 Ry     beta= 0.30
     Davidson diagonalization with overlap

---- Real-time Memory Report at c_bands before calling an iterative solver
           301 MiB given to the printing process from OS
             0 MiB allocation reported by mallinfo(arena+hblkhd)
        113810 MiB available memory on the node where the printing process lives
------------------
     ethr =  1.78E-04,  avg # of iterations =  1.0

     total cpu time spent up to now is      126.3 secs

     total energy              =   -1446.48134411 Ry
     estimated scf accuracy    <       0.27981635 Ry

     iteration # 10     ecut=    50.00 Ry     beta= 0.30
     Davidson diagonalization with overlap

---- Real-time Memory Report at c_bands before calling an iterative solver
           303 MiB given to the printing process from OS
             0 MiB allocation reported by mallinfo(arena+hblkhd)
        114070 MiB available memory on the node where the printing process lives
------------------
     ethr =  1.78E-04,  avg # of iterations =  2.4

     total cpu time spent up to now is      135.4 secs

     total energy              =   -1446.48225924 Ry
     estimated scf accuracy    <       0.09545747 Ry

     iteration # 11     ecut=    50.00 Ry     beta= 0.30
     Davidson diagonalization with overlap

---- Real-time Memory Report at c_bands before calling an iterative solver
           304 MiB given to the printing process from OS
             0 MiB allocation reported by mallinfo(arena+hblkhd)
        114118 MiB available memory on the node where the printing process lives
------------------
     ethr =  6.63E-05,  avg # of iterations =  5.6

     total cpu time spent up to now is      148.0 secs

     total energy              =   -1446.51598280 Ry
     estimated scf accuracy    <       0.00178213 Ry

     iteration # 12     ecut=    50.00 Ry     beta= 0.30
     Davidson diagonalization with overlap

---- Real-time Memory Report at c_bands before calling an iterative solver
           304 MiB given to the printing process from OS
             0 MiB allocation reported by mallinfo(arena+hblkhd)
        114070 MiB available memory on the node where the printing process lives
------------------
     ethr =  1.24E-06,  avg # of iterations = 10.3

     total cpu time spent up to now is      169.0 secs

     total energy              =   -1446.52013706 Ry
     estimated scf accuracy    <       0.00002300 Ry

     iteration # 13     ecut=    50.00 Ry     beta= 0.30
     Davidson diagonalization with overlap

---- Real-time Memory Report at c_bands before calling an iterative solver
           304 MiB given to the printing process from OS
             0 MiB allocation reported by mallinfo(arena+hblkhd)
        114151 MiB available memory on the node where the printing process lives
------------------
     c_bands:  2 eigenvalues not converged
     c_bands:  1 eigenvalues not converged
     c_bands:  1 eigenvalues not converged
     ethr =  1.60E-08,  avg # of iterations = 14.5

     total cpu time spent up to now is      201.1 secs

     total energy              =   -1446.52033688 Ry
     estimated scf accuracy    <       0.00241219 Ry

     iteration # 14     ecut=    50.00 Ry     beta= 0.30
     Davidson diagonalization with overlap

---- Real-time Memory Report at c_bands before calling an iterative solver
           304 MiB given to the printing process from OS
             0 MiB allocation reported by mallinfo(arena+hblkhd)
        114156 MiB available memory on the node where the printing process lives
------------------
     ethr =  1.60E-08,  avg # of iterations =  9.2

     total cpu time spent up to now is      221.7 secs

     total energy              =   -1446.52158521 Ry
     estimated scf accuracy    <       0.00145487 Ry

     iteration # 15     ecut=    50.00 Ry     beta= 0.30
     Davidson diagonalization with overlap

---- Real-time Memory Report at c_bands before calling an iterative solver
           304 MiB given to the printing process from OS
             0 MiB allocation reported by mallinfo(arena+hblkhd)
        114223 MiB available memory on the node where the printing process lives
------------------
     c_bands:  1 eigenvalues not converged
     c_bands:  1 eigenvalues not converged
     ethr =  1.60E-08,  avg # of iterations = 15.8

     total cpu time spent up to now is      253.7 secs

     total energy              =   -1446.51913269 Ry
     estimated scf accuracy    <       0.00853640 Ry

     iteration # 16     ecut=    50.00 Ry     beta= 0.30
     Davidson diagonalization with overlap

---- Real-time Memory Report at c_bands before calling an iterative solver
           304 MiB given to the printing process from OS
             0 MiB allocation reported by mallinfo(arena+hblkhd)
        114247 MiB available memory on the node where the printing process lives
------------------
     c_bands:  1 eigenvalues not converged
     c_bands:  1 eigenvalues not converged
     c_bands:  1 eigenvalues not converged
     ethr =  1.60E-08,  avg # of iterations = 16.9

     total cpu time spent up to now is      289.1 secs

     total energy              =   -1446.51984050 Ry
     estimated scf accuracy    <       0.00033025 Ry

     iteration # 17     ecut=    50.00 Ry     beta= 0.30
     Davidson diagonalization with overlap

---- Real-time Memory Report at c_bands before calling an iterative solver
           304 MiB given to the printing process from OS
             0 MiB allocation reported by mallinfo(arena+hblkhd)
        114249 MiB available memory on the node where the printing process lives
------------------
     c_bands:  1 eigenvalues not converged
     c_bands:  1 eigenvalues not converged
     ethr =  1.60E-08,  avg # of iterations = 15.9

     total cpu time spent up to now is      321.6 secs

     total energy              =   -1446.52011429 Ry
     estimated scf accuracy    <       0.00140758 Ry

     iteration # 18     ecut=    50.00 Ry     beta= 0.30
     Davidson diagonalization with overlap

---- Real-time Memory Report at c_bands before calling an iterative solver
           304 MiB given to the printing process from OS
             0 MiB allocation reported by mallinfo(arena+hblkhd)
        114286 MiB available memory on the node where the printing process lives
------------------
     ethr =  1.60E-08,  avg # of iterations =  9.3

     total cpu time spent up to now is      343.6 secs

     total energy              =   -1446.52012340 Ry
     estimated scf accuracy    <       0.00056418 Ry

     iteration # 19     ecut=    50.00 Ry     beta= 0.30
     Davidson diagonalization with overlap

---- Real-time Memory Report at c_bands before calling an iterative solver
           304 MiB given to the printing process from OS
             0 MiB allocation reported by mallinfo(arena+hblkhd)
        114202 MiB available memory on the node where the printing process lives
------------------
     ethr =  1.60E-08,  avg # of iterations =  1.6

     total cpu time spent up to now is      351.8 secs

     total energy              =   -1446.51989772 Ry
     estimated scf accuracy    <       0.00050634 Ry

     iteration # 20     ecut=    50.00 Ry     beta= 0.30
     Davidson diagonalization with overlap

---- Real-time Memory Report at c_bands before calling an iterative solver
           304 MiB given to the printing process from OS
             0 MiB allocation reported by mallinfo(arena+hblkhd)
        114035 MiB available memory on the node where the printing process lives
------------------
     ethr =  1.60E-08,  avg # of iterations = 12.7

     total cpu time spent up to now is      378.4 secs

     total energy              =   -1446.52001752 Ry
     estimated scf accuracy    <       0.00001185 Ry

     iteration # 21     ecut=    50.00 Ry     beta= 0.30
     Davidson diagonalization with overlap

---- Real-time Memory Report at c_bands before calling an iterative solver
           304 MiB given to the printing process from OS
             0 MiB allocation reported by mallinfo(arena+hblkhd)
        114411 MiB available memory on the node where the printing process lives
------------------
     ethr =  8.23E-09,  avg # of iterations =  3.8

     total cpu time spent up to now is      388.1 secs

     total energy              =   -1446.52001793 Ry
     estimated scf accuracy    <       0.00000136 Ry

     iteration # 22     ecut=    50.00 Ry     beta= 0.30
     Davidson diagonalization with overlap

---- Real-time Memory Report at c_bands before calling an iterative solver
           304 MiB given to the printing process from OS
             0 MiB allocation reported by mallinfo(arena+hblkhd)
        113939 MiB available memory on the node where the printing process lives
------------------
     ethr =  9.44E-10,  avg # of iterations = 12.0

     total cpu time spent up to now is      413.9 secs

     total energy              =   -1446.52002249 Ry
     estimated scf accuracy    <       0.00001858 Ry

     iteration # 23     ecut=    50.00 Ry     beta= 0.30
     Davidson diagonalization with overlap

---- Real-time Memory Report at c_bands before calling an iterative solver
           304 MiB given to the printing process from OS
             0 MiB allocation reported by mallinfo(arena+hblkhd)
        114263 MiB available memory on the node where the printing process lives
------------------
     ethr =  9.44E-10,  avg # of iterations =  2.0

     total cpu time spent up to now is      422.8 secs

     total energy              =   -1446.52001868 Ry
     estimated scf accuracy    <       0.00001334 Ry

     iteration # 24     ecut=    50.00 Ry     beta= 0.30
     Davidson diagonalization with overlap

---- Real-time Memory Report at c_bands before calling an iterative solver
           304 MiB given to the printing process from OS
             0 MiB allocation reported by mallinfo(arena+hblkhd)
        114114 MiB available memory on the node where the printing process lives
------------------
     ethr =  9.44E-10,  avg # of iterations =  8.6

     total cpu time spent up to now is      443.1 secs

     total energy              =   -1446.52002032 Ry
     estimated scf accuracy    <       0.00000058 Ry

     iteration # 25     ecut=    50.00 Ry     beta= 0.30
     Davidson diagonalization with overlap

---- Real-time Memory Report at c_bands before calling an iterative solver
           304 MiB given to the printing process from OS
             0 MiB allocation reported by mallinfo(arena+hblkhd)
        114229 MiB available memory on the node where the printing process lives
------------------
     ethr =  4.05E-10,  avg # of iterations =  5.8

     total cpu time spent up to now is      454.3 secs

     total energy              =   -1446.52002041 Ry
     estimated scf accuracy    <       0.00000003 Ry

     iteration # 26     ecut=    50.00 Ry     beta= 0.30
     Davidson diagonalization with overlap

---- Real-time Memory Report at c_bands before calling an iterative solver
           304 MiB given to the printing process from OS
             0 MiB allocation reported by mallinfo(arena+hblkhd)
        114199 MiB available memory on the node where the printing process lives
------------------
     ethr =  2.42E-11,  avg # of iterations = 11.4

     total cpu time spent up to now is      478.9 secs

     total energy              =   -1446.52002053 Ry
     estimated scf accuracy    <       0.00000030 Ry

     iteration # 27     ecut=    50.00 Ry     beta= 0.30
     Davidson diagonalization with overlap

---- Real-time Memory Report at c_bands before calling an iterative solver
           304 MiB given to the printing process from OS
             0 MiB allocation reported by mallinfo(arena+hblkhd)
        114146 MiB available memory on the node where the printing process lives
------------------
     ethr =  2.42E-11,  avg # of iterations =  1.1

     total cpu time spent up to now is      486.4 secs

     total energy              =   -1446.52002044 Ry
     estimated scf accuracy    <       0.00000024 Ry

     iteration # 28     ecut=    50.00 Ry     beta= 0.30
     Davidson diagonalization with overlap

---- Real-time Memory Report at c_bands before calling an iterative solver
           304 MiB given to the printing process from OS
             0 MiB allocation reported by mallinfo(arena+hblkhd)
        113998 MiB available memory on the node where the printing process lives
------------------
     ethr =  2.42E-11,  avg # of iterations =  8.5

     total cpu time spent up to now is      505.8 secs

     End of self-consistent calculation

          k = 0.0000 0.0000 0.0000 (  8549 PWs)   bands (ev):

   -11.5305 -10.9853 -10.9771 -10.9771 -10.9771 -10.8105 -10.8105 -10.8105
     0.3978   0.3978   0.3978   0.5122   0.5122   0.5528   0.6313   0.6313
     0.6313   0.6631   0.6631   0.7320   0.7320   0.7320   0.8364   1.0641
     1.0641   1.0641   1.1510   1.1510   1.1510   1.1801   1.1801   1.1801
     1.4240   1.4240   1.4717   1.4717   1.4717   1.5578   1.5578   1.5578
     1.5765   1.5765   1.6154   1.6154   1.6154   1.6801   1.6801   1.6801
     1.8657   2.1612   2.1612   2.1612   2.5287   2.5287   2.5287   3.2804
     3.2804   3.2804   3.9167   3.9167   3.9167   4.6496   4.6496   4.6496
     5.0603   5.0603   5.0603   5.1607   5.1607   5.6912   5.7954   5.7954

     occupation numbers 
     1.0000   1.0000   1.0000   1.0000   1.0000   1.0000   1.0000   1.0000
     1.0000   1.0000   1.0000   1.0000   1.0000   1.0000   1.0000   1.0000
     1.0000   1.0000   1.0000   1.0000   1.0000   1.0000   1.0000   1.0000
     1.0000   1.0000   1.0000   1.0000   1.0000   1.0000   1.0000   1.0000
     1.0000   1.0000   1.0000   1.0000   1.0000   1.0000   1.0000   1.0000
     1.0000   1.0000   1.0000   1.0000   1.0000   1.0000   1.0000   1.0000
     1.0000   1.0000   1.0000   1.0000   1.0000   1.0000   1.0000   1.0000
     1.0000   1.0000   1.0000   1.0000   1.0000   1.0000   1.0000   1.0000
     1.0000   1.0000   1.0000   1.0000   1.0000   1.0000   1.0000   1.0000

          k = 0.0000 0.0000 0.2024 (  8549 PWs)   bands (ev):

   -11.4955 -11.0235 -10.9648 -10.9648 -10.9648 -10.8204 -10.8204 -10.8204
     0.3698   0.3698   0.3698   0.5181   0.5181   0.5234   0.5522   0.5522
     0.5522   0.6483   0.6483   0.6872   0.7550   0.7550   0.7550   1.0559
     1.0559   1.0559   1.1172   1.1172   1.1172   1.1409   1.1409   1.1409
     1.4372   1.4372   1.5176   1.5176   1.5176   1.5597   1.5597   1.5597
     1.5696   1.5696   1.6067   1.6067   1.6067   1.6798   1.6798   1.6798
     2.1362   2.1362   2.1362   2.1781   2.4629   2.4629   2.4629   3.5272
     3.5272   3.5272   4.0016   4.0016   4.0016   4.7211   4.7211   4.7211
     4.9882   4.9882   4.9882   5.1137   5.2039   5.2039   5.7536   5.7536

     occupation numbers 
     1.0000   1.0000   1.0000   1.0000   1.0000   1.0000   1.0000   1.0000
     1.0000   1.0000   1.0000   1.0000   1.0000   1.0000   1.0000   1.0000
     1.0000   1.0000   1.0000   1.0000   1.0000   1.0000   1.0000   1.0000
     1.0000   1.0000   1.0000   1.0000   1.0000   1.0000   1.0000   1.0000
     1.0000   1.0000   1.0000   1.0000   1.0000   1.0000   1.0000   1.0000
     1.0000   1.0000   1.0000   1.0000   1.0000   1.0000   1.0000   1.0000
     1.0000   1.0000   1.0000   1.0000   1.0000   1.0000   1.0000   1.0000
     1.0000   1.0000   1.0000   1.0000   1.0000   1.0000   1.0000   1.0000
     1.0000   1.0000   1.0000   1.0000   1.0000   1.0000   1.0000   1.0000

          k = 0.0000 0.0000 0.4049 (  8502 PWs)   bands (ev):

   -11.3990 -11.1265 -10.9319 -10.9319 -10.9319 -10.8484 -10.8484 -10.8484
     0.3173   0.3173   0.3173   0.4027   0.4027   0.4027   0.4617   0.5017
     0.5377   0.5377   0.6122   0.6122   0.8208   0.8208   0.8208   1.0289
     1.0289   1.0289   1.0450   1.0450   1.0450   1.0845   1.0845   1.0845
     1.4717   1.4717   1.5487   1.5487   1.5653   1.5653   1.5653   1.5897
     1.5897   1.5897   1.5932   1.5932   1.5932   1.6727   1.6727   1.6727
     2.1377   2.1377   2.1377   2.3285   2.3285   2.3285   2.8223   4.0523
     4.0523   4.0523   4.2241   4.2241   4.2241   4.3367   4.7656   4.7656
     4.7656   4.7896   4.7896   4.7896   5.3217   5.3217   5.6391   5.6391

     occupation numbers 
     1.0000   1.0000   1.0000   1.0000   1.0000   1.0000   1.0000   1.0000
     1.0000   1.0000   1.0000   1.0000   1.0000   1.0000   1.0000   1.0000
     1.0000   1.0000   1.0000   1.0000   1.0000   1.0000   1.0000   1.0000
     1.0000   1.0000   1.0000   1.0000   1.0000   1.0000   1.0000   1.0000
     1.0000   1.0000   1.0000   1.0000   1.0000   1.0000   1.0000   1.0000
     1.0000   1.0000   1.0000   1.0000   1.0000   1.0000   1.0000   1.0000
     1.0000   1.0000   1.0000   1.0000   1.0000   1.0000   1.0000   1.0000
     1.0000   1.0000   1.0000   1.0000   1.0000   1.0000   1.0000   1.0000
     1.0000   1.0000   1.0000   1.0000   1.0000   1.0000   1.0000   1.0000

          k = 0.0000 0.0000-0.6073 (  8532 PWs)   bands (ev):

   -11.2644 -11.2644 -10.8889 -10.8889 -10.8889 -10.8889 -10.8889 -10.8889
     0.3123   0.3123   0.3123   0.3123   0.3123   0.3123   0.4322   0.4322
     0.5707   0.5707   0.5707   0.5707   0.9191   0.9191   0.9191   0.9191
     0.9191   0.9191   1.0514   1.0514   1.0514   1.0514   1.0514   1.0514
     1.5134   1.5134   1.5134   1.5134   1.5751   1.5751   1.5751   1.5751
     1.5751   1.5751   1.6470   1.6470   1.6470   1.6470   1.6470   1.6470
     2.2072   2.2072   2.2072   2.2072   2.2072   2.2072   3.5662   3.5662
     4.5124   4.5124   4.5124   4.5124   4.5124   4.5124   4.5397   4.5397
     4.5397   4.5397   4.5397   4.5397   5.4812   5.4812   5.4812   5.4812

     occupation numbers 
     1.0000   1.0000   1.0000   1.0000   1.0000   1.0000   1.0000   1.0000
     1.0000   1.0000   1.0000   1.0000   1.0000   1.0000   1.0000   1.0000
     1.0000   1.0000   1.0000   1.0000   1.0000   1.0000   1.0000   1.0000
     1.0000   1.0000   1.0000   1.0000   1.0000   1.0000   1.0000   1.0000
     1.0000   1.0000   1.0000   1.0000   1.0000   1.0000   1.0000   1.0000
     1.0000   1.0000   1.0000   1.0000   1.0000   1.0000   1.0000   1.0000
     1.0000   1.0000   1.0000   1.0000   1.0000   1.0000   1.0000   1.0000
     1.0000   1.0000   1.0000   1.0000   1.0000   1.0000   1.0000   1.0000
     1.0000   1.0000   1.0000   1.0000   1.0000   1.0000   1.0000   1.0000

          k = 0.0000 0.1925 0.0000 (  8533 PWs)   bands (ev):

   -11.4989 -11.0268 -10.9790 -10.9790 -10.9701 -10.8116 -10.8095 -10.8094
     0.3710   0.4173   0.4173   0.4831   0.5314   0.5736   0.6179   0.6633
     0.6820   0.6820   0.6900   0.7237   0.7251   0.7251   0.8749   1.0559
     1.0921   1.0921   1.0997   1.0997   1.1121   1.1310   1.1769   1.1769
     1.4111   1.4217   1.4390   1.4519   1.4519   1.5297   1.5297   1.5334
     1.5787   1.6106   1.6111   1.6258   1.6258   1.7268   1.7268   1.7778
     1.8628   2.1659   2.1659   2.1745   2.5815   2.5815   2.6009   3.2800
     3.2800   3.3237   3.8115   3.8115   4.0083   4.6421   4.6421   4.7874
     4.9155   4.9664   4.9664   5.0796   5.1142   5.2882   5.6579   5.7506

     occupation numbers 
     1.0000   1.0000   1.0000   1.0000   1.0000   1.0000   1.0000   1.0000
     1.0000   1.0000   1.0000   1.0000   1.0000   1.0000   1.0000   1.0000
     1.0000   1.0000   1.0000   1.0000   1.0000   1.0000   1.0000   1.0000
     1.0000   1.0000   1.0000   1.0000   1.0000   1.0000   1.0000   1.0000
     1.0000   1.0000   1.0000   1.0000   1.0000   1.0000   1.0000   1.0000
     1.0000   1.0000   1.0000   1.0000   1.0000   1.0000   1.0000   1.0000
     1.0000   1.0000   1.0000   1.0000   1.0000   1.0000   1.0000   1.0000
     1.0000   1.0000   1.0000   1.0000   1.0000   1.0000   1.0000   1.0000
     1.0000   1.0000   1.0000   1.0000   1.0000   1.0000   1.0000   1.0000

          k = 0.0000 0.1925 0.2024 (  8517 PWs)   bands (ev):

   -11.4649 -11.0114 -11.0069 -10.9665 -10.9665 -10.8250 -10.8196 -10.8196
     0.3458   0.3927   0.3927   0.4696   0.5381   0.5500   0.5631   0.6002
     0.6002   0.6291   0.6751   0.7385   0.7435   0.7435   0.7452   1.0381
     1.0723   1.0723   1.0808   1.0810   1.0820   1.0820   1.1277   1.1277
     1.4266   1.4352   1.4651   1.4854   1.4854   1.5367   1.5382   1.5382
     1.5714   1.5851   1.6016   1.6224   1.6224   1.7223   1.7223   1.7400
     2.1453   2.1453   2.1858   2.1969   2.5425   2.5425   2.6499   3.4924
     3.4924   3.4926   3.9140   3.9140   4.0893   4.7024   4.7024   4.8371
     4.8965   4.8997   4.8997   5.0038   5.0441   5.1255   5.6208   5.7065

     occupation numbers 
     1.0000   1.0000   1.0000   1.0000   1.0000   1.0000   1.0000   1.0000
     1.0000   1.0000   1.0000   1.0000   1.0000   1.0000   1.0000   1.0000
     1.0000   1.0000   1.0000   1.0000   1.0000   1.0000   1.0000   1.0000
     1.0000   1.0000   1.0000   1.0000   1.0000   1.0000   1.0000   1.0000
     1.0000   1.0000   1.0000   1.0000   1.0000   1.0000   1.0000   1.0000
     1.0000   1.0000   1.0000   1.0000   1.0000   1.0000   1.0000   1.0000
     1.0000   1.0000   1.0000   1.0000   1.0000   1.0000   1.0000   1.0000
     1.0000   1.0000   1.0000   1.0000   1.0000   1.0000   1.0000   1.0000
     1.0000   1.0000   1.0000   1.0000   1.0000   1.0000   1.0000   1.0000

          k = 0.0000 0.1925 0.4049 (  8514 PWs)   bands (ev):

   -11.3709 -11.1066 -10.9700 -10.9331 -10.9331 -10.8622 -10.8482 -10.8482
     0.3015   0.3459   0.3459   0.4059   0.4273   0.4440   0.4440   0.4837
     0.5590   0.5706   0.6375   0.6442   0.8029   0.8029   0.8064   0.9993
     1.0022   1.0185   1.0185   1.0211   1.0428   1.0428   1.0550   1.0550
     1.4659   1.4699   1.5265   1.5323   1.5323   1.5464   1.5489   1.5523
     1.5523   1.5544   1.5818   1.6283   1.6283   1.6695   1.7001   1.7001
     2.1763   2.1763   2.2767   2.4181   2.4181   2.5723   2.8438   3.9318
     3.9318   3.9949   4.2137   4.2137   4.2770   4.3031   4.6227   4.6227
     4.8150   4.8151   4.8217   4.8509   5.1085   5.2501   5.4842   5.5855

     occupation numbers 
     1.0000   1.0000   1.0000   1.0000   1.0000   1.0000   1.0000   1.0000
     1.0000   1.0000   1.0000   1.0000   1.0000   1.0000   1.0000   1.0000
     1.0000   1.0000   1.0000   1.0000   1.0000   1.0000   1.0000   1.0000
     1.0000   1.0000   1.0000   1.0000   1.0000   1.0000   1.0000   1.0000
     1.0000   1.0000   1.0000   1.0000   1.0000   1.0000   1.0000   1.0000
     1.0000   1.0000   1.0000   1.0000   1.0000   1.0000   1.0000   1.0000
     1.0000   1.0000   1.0000   1.0000   1.0000   1.0000   1.0000   1.0000
     1.0000   1.0000   1.0000   1.0000   1.0000   1.0000   1.0000   1.0000
     1.0000   1.0000   1.0000   1.0000   1.0000   1.0000   1.0000   1.0000

          k = 0.0000 0.1925-0.6073 (  8512 PWs)   bands (ev):

   -11.2402 -11.2402 -10.9151 -10.9151 -10.8895 -10.8895 -10.8894 -10.8894
     0.3075   0.3075   0.3467   0.3467   0.3467   0.3467   0.4092   0.4092
     0.5943   0.5943   0.5982   0.5982   0.8976   0.8976   0.9007   0.9007
     0.9007   0.9007   0.9939   0.9939   1.0369   1.0369   1.0369   1.0369
     1.5124   1.5124   1.5132   1.5132   1.5523   1.5523   1.5523   1.5523
     1.5619   1.5619   1.5978   1.5978   1.6622   1.6622   1.6622   1.6622
     2.2797   2.2797   2.2797   2.2797   2.4202   2.4202   3.5653   3.5653
     4.3151   4.3151   4.3151   4.3151   4.5265   4.5265   4.5818   4.5818
     4.6103   4.6103   4.6103   4.6103   5.2941   5.2941   5.4187   5.4187

     occupation numbers 
     1.0000   1.0000   1.0000   1.0000   1.0000   1.0000   1.0000   1.0000
     1.0000   1.0000   1.0000   1.0000   1.0000   1.0000   1.0000   1.0000
     1.0000   1.0000   1.0000   1.0000   1.0000   1.0000   1.0000   1.0000
     1.0000   1.0000   1.0000   1.0000   1.0000   1.0000   1.0000   1.0000
     1.0000   1.0000   1.0000   1.0000   1.0000   1.0000   1.0000   1.0000
     1.0000   1.0000   1.0000   1.0000   1.0000   1.0000   1.0000   1.0000
     1.0000   1.0000   1.0000   1.0000   1.0000   1.0000   1.0000   1.0000
     1.0000   1.0000   1.0000   1.0000   1.0000   1.0000   1.0000   1.0000
     1.0000   1.0000   1.0000   1.0000   1.0000   1.0000   1.0000   1.0000

          k = 0.0000 0.3849 0.0000 (  8518 PWs)   bands (ev):

   -11.4103 -11.1432 -10.9828 -10.9828 -10.9293 -10.8325 -10.8075 -10.8075
     0.3371   0.4168   0.4748   0.4748   0.5824   0.6061   0.6071   0.6859
     0.6956   0.6959   0.6959   0.7668   0.7954   0.7954   0.9094   0.9831
     0.9864   0.9864   1.0094   1.1497   1.1497   1.1768   1.2019   1.2019
     1.3650   1.3771   1.4058   1.4058   1.4225   1.4723   1.4723   1.4823
     1.5842   1.6003   1.6318   1.6318   1.7122   1.7828   1.8092   1.8092
     1.8655   2.1823   2.1823   2.1939   2.7200   2.7200   2.8736   3.2677
     3.2677   3.5663   3.5663   3.6288   4.2474   4.2765   4.6324   4.6324
     4.6880   4.7848   4.7849   4.8597   5.0696   5.2576   5.5400   5.6247

     occupation numbers 
     1.0000   1.0000   1.0000   1.0000   1.0000   1.0000   1.0000   1.0000
     1.0000   1.0000   1.0000   1.0000   1.0000   1.0000   1.0000   1.0000
     1.0000   1.0000   1.0000   1.0000   1.0000   1.0000   1.0000   1.0000
     1.0000   1.0000   1.0000   1.0000   1.0000   1.0000   1.0000   1.0000
     1.0000   1.0000   1.0000   1.0000   1.0000   1.0000   1.0000   1.0000
     1.0000   1.0000   1.0000   1.0000   1.0000   1.0000   1.0000   1.0000
     1.0000   1.0000   1.0000   1.0000   1.0000   1.0000   1.0000   1.0000
     1.0000   1.0000   1.0000   1.0000   1.0000   1.0000   1.0000   1.0000
     1.0000   1.0000   1.0000   1.0000   1.0000   1.0000   1.0000   1.0000

          k = 0.0000 0.3849 0.2024 (  8522 PWs)   bands (ev):

   -11.3790 -11.1220 -10.9700 -10.9700 -10.9624 -10.8527 -10.8180 -10.8180
     0.3176   0.3995   0.4613   0.4613   0.5511   0.5759   0.5909   0.6523
     0.6523   0.6606   0.7129   0.7501   0.7663   0.7663   0.8422   0.8913
     0.9737   0.9737   0.9839   1.0670   1.1120   1.1120   1.1267   1.1267
     1.3890   1.3999   1.4162   1.4162   1.4353   1.4892   1.5151   1.5151
     1.5755   1.5905   1.6250   1.6309   1.6309   1.7121   1.7931   1.7931
     2.2043   2.2043   2.2581   2.3969   2.7093   2.7093   2.9895   3.3827
     3.3827   3.6325   3.7336   3.7336   4.2906   4.3196   4.5738   4.6051
     4.6051   4.7930   4.7930   4.9123   5.0691   5.1926   5.4581   5.5746

     occupation numbers 
     1.0000   1.0000   1.0000   1.0000   1.0000   1.0000   1.0000   1.0000
     1.0000   1.0000   1.0000   1.0000   1.0000   1.0000   1.0000   1.0000
     1.0000   1.0000   1.0000   1.0000   1.0000   1.0000   1.0000   1.0000
     1.0000   1.0000   1.0000   1.0000   1.0000   1.0000   1.0000   1.0000
     1.0000   1.0000   1.0000   1.0000   1.0000   1.0000   1.0000   1.0000
     1.0000   1.0000   1.0000   1.0000   1.0000   1.0000   1.0000   1.0000
     1.0000   1.0000   1.0000   1.0000   1.0000   1.0000   1.0000   1.0000
     1.0000   1.0000   1.0000   1.0000   1.0000   1.0000   1.0000   1.0000
     1.0000   1.0000   1.0000   1.0000   1.0000   1.0000   1.0000   1.0000

          k = 0.0000 0.3849 0.4049 (  8526 PWs)   bands (ev):

   -11.2928 -11.0641 -11.0523 -10.9356 -10.9356 -10.9085 -10.8477 -10.8477
     0.2857   0.3629   0.4125   0.4252   0.4252   0.4523   0.5232   0.5232
     0.6169   0.6415   0.7081   0.7199   0.7623   0.7757   0.7757   0.8652
     0.9179   0.9351   0.9378   0.9378   1.0231   1.0231   1.0431   1.0431
     1.4525   1.4612   1.4692   1.4798   1.4798   1.5085   1.5376   1.5376
     1.5502   1.5660   1.5716   1.6309   1.6414   1.6414   1.7418   1.7418
     2.3008   2.3008   2.5983   2.5983   2.6464   2.8908   3.0305   3.6722
     3.6722   3.9491   4.0336   4.1409   4.1409   4.4109   4.4109   4.5121
     4.6234   4.8242   4.8242   4.9291   5.0141   5.0550   5.2180   5.4370

     occupation numbers 
     1.0000   1.0000   1.0000   1.0000   1.0000   1.0000   1.0000   1.0000
     1.0000   1.0000   1.0000   1.0000   1.0000   1.0000   1.0000   1.0000
     1.0000   1.0000   1.0000   1.0000   1.0000   1.0000   1.0000   1.0000
     1.0000   1.0000   1.0000   1.0000   1.0000   1.0000   1.0000   1.0000
     1.0000   1.0000   1.0000   1.0000   1.0000   1.0000   1.0000   1.0000
     1.0000   1.0000   1.0000   1.0000   1.0000   1.0000   1.0000   1.0000
     1.0000   1.0000   1.0000   1.0000   1.0000   1.0000   1.0000   1.0000
     1.0000   1.0000   1.0000   1.0000   1.0000   1.0000   1.0000   1.0000
     1.0000   1.0000   1.0000   1.0000   1.0000   1.0000   1.0000   1.0000

          k = 0.0000 0.3849-0.6073 (  8548 PWs)   bands (ev):

   -11.1735 -11.1735 -10.9858 -10.9858 -10.8905 -10.8905 -10.8905 -10.8905
     0.3045   0.3045   0.3626   0.3626   0.4279   0.4279   0.4279   0.4279
     0.6585   0.6585   0.6648   0.6648   0.8359   0.8359   0.8516   0.8516
     0.8516   0.8516   0.8752   0.8752   1.0043   1.0043   1.0043   1.0043
     1.5115   1.5115   1.5149   1.5149   1.5267   1.5267   1.5267   1.5267
     1.5360   1.5360   1.5476   1.5476   1.6811   1.6811   1.6811   1.6811
     2.4445   2.4445   2.4445   2.4445   2.8600   2.8600   3.5169   3.5169
     4.0165   4.0165   4.0165   4.0165   4.5137   4.5137   4.6358   4.6358
     4.6358   4.6358   4.7664   4.7664   4.8985   4.8985   5.2472   5.2472

     occupation numbers 
     1.0000   1.0000   1.0000   1.0000   1.0000   1.0000   1.0000   1.0000
     1.0000   1.0000   1.0000   1.0000   1.0000   1.0000   1.0000   1.0000
     1.0000   1.0000   1.0000   1.0000   1.0000   1.0000   1.0000   1.0000
     1.0000   1.0000   1.0000   1.0000   1.0000   1.0000   1.0000   1.0000
     1.0000   1.0000   1.0000   1.0000   1.0000   1.0000   1.0000   1.0000
     1.0000   1.0000   1.0000   1.0000   1.0000   1.0000   1.0000   1.0000
     1.0000   1.0000   1.0000   1.0000   1.0000   1.0000   1.0000   1.0000
     1.0000   1.0000   1.0000   1.0000   1.0000   1.0000   1.0000   1.0000
     1.0000   1.0000   1.0000   1.0000   1.0000   1.0000   1.0000   1.0000

          k = 0.0000-0.5774 0.0000 (  8530 PWs)   bands (ev):

   -11.2826 -11.2826 -10.9847 -10.9847 -10.8771 -10.8770 -10.8065 -10.8065
     0.3540   0.3540   0.5195   0.5195   0.6090   0.6090   0.6448   0.6448
     0.6784   0.6784   0.7747   0.7747   0.8524   0.8524   0.8813   0.8813
     0.9245   0.9245   1.1217   1.1217   1.1557   1.1557   1.2855   1.2855
     1.3298   1.3298   1.3376   1.3376   1.4401   1.4401   1.4488   1.4488
     1.5912   1.5912   1.6331   1.6331   1.7785   1.7785   1.8450   1.8450
     1.9822   1.9822   2.1997   2.1997   2.8174   2.8174   3.2528   3.2528
     3.4152   3.4152   3.5259   3.5259   4.1254   4.1254   4.5580   4.5580
     4.6116   4.6116   4.7129   4.7129   5.3403   5.3403   5.4453   5.4453

     occupation numbers 
     1.0000   1.0000   1.0000   1.0000   1.0000   1.0000   1.0000   1.0000
     1.0000   1.0000   1.0000   1.0000   1.0000   1.0000   1.0000   1.0000
     1.0000   1.0000   1.0000   1.0000   1.0000   1.0000   1.0000   1.0000
     1.0000   1.0000   1.0000   1.0000   1.0000   1.0000   1.0000   1.0000
     1.0000   1.0000   1.0000   1.0000   1.0000   1.0000   1.0000   1.0000
     1.0000   1.0000   1.0000   1.0000   1.0000   1.0000   1.0000   1.0000
     1.0000   1.0000   1.0000   1.0000   1.0000   1.0000   1.0000   1.0000
     1.0000   1.0000   1.0000   1.0000   1.0000   1.0000   1.0000   1.0000
     1.0000   1.0000   1.0000   1.0000   1.0000   1.0000   1.0000   1.0000

          k = 0.0000-0.5774 0.2024 (  8524 PWs)   bands (ev):

   -11.2557 -11.2557 -10.9717 -10.9717 -10.9044 -10.9044 -10.8173 -10.8173
     0.3367   0.3367   0.5252   0.5252   0.5611   0.5611   0.6178   0.6178
     0.6571   0.6571   0.7584   0.7584   0.8536   0.8536   0.8613   0.8613
     0.8878   0.8878   0.9711   0.9711   1.1158   1.1158   1.1384   1.1384
     1.3733   1.3733   1.3755   1.3755   1.4509   1.4509   1.5082   1.5082
     1.5815   1.5815   1.6328   1.6328   1.6715   1.6715   1.8199   1.8199
     2.2615   2.2615   2.3600   2.3601   2.7996   2.7996   3.3040   3.3040
     3.5843   3.5843   3.6368   3.6368   4.0617   4.0617   4.5201   4.5201
     4.6200   4.6200   4.7798   4.7798   5.2871   5.2871   5.3876   5.3876

     occupation numbers 
     1.0000   1.0000   1.0000   1.0000   1.0000   1.0000   1.0000   1.0000
     1.0000   1.0000   1.0000   1.0000   1.0000   1.0000   1.0000   1.0000
     1.0000   1.0000   1.0000   1.0000   1.0000   1.0000   1.0000   1.0000
     1.0000   1.0000   1.0000   1.0000   1.0000   1.0000   1.0000   1.0000
     1.0000   1.0000   1.0000   1.0000   1.0000   1.0000   1.0000   1.0000
     1.0000   1.0000   1.0000   1.0000   1.0000   1.0000   1.0000   1.0000
     1.0000   1.0000   1.0000   1.0000   1.0000   1.0000   1.0000   1.0000
     1.0000   1.0000   1.0000   1.0000   1.0000   1.0000   1.0000   1.0000
     1.0000   1.0000   1.0000   1.0000   1.0000   1.0000   1.0000   1.0000

          k = 0.0000-0.5774 0.4049 (  8528 PWs)   bands (ev):

   -11.1819 -11.1819 -10.9790 -10.9790 -10.9368 -10.9368 -10.8475 -10.8475
     0.3064   0.3064   0.4268   0.4268   0.5145   0.5145   0.5169   0.5169
     0.6930   0.6930   0.7399   0.7399   0.8065   0.8065   0.8101   0.8101
     0.8233   0.8233   0.8481   0.8481   1.0193   1.0193   1.0307   1.0307
     1.4439   1.4439   1.4609   1.4609   1.4796   1.4796   1.5337   1.5337
     1.5547   1.5547   1.5980   1.5980   1.6449   1.6449   1.7576   1.7576
     2.3936   2.3936   2.6963   2.6963   2.8823   2.8823   3.5247   3.5247
     3.5627   3.5627   4.0483   4.0483   4.1545   4.1545   4.3452   4.3452
     4.7868   4.7868   4.8285   4.8285   5.0443   5.0443   5.2290   5.2290

     occupation numbers 
     1.0000   1.0000   1.0000   1.0000   1.0000   1.0000   1.0000   1.0000
     1.0000   1.0000   1.0000   1.0000   1.0000   1.0000   1.0000   1.0000
     1.0000   1.0000   1.0000   1.0000   1.0000   1.0000   1.0000   1.0000
     1.0000   1.0000   1.0000   1.0000   1.0000   1.0000   1.0000   1.0000
     1.0000   1.0000   1.0000   1.0000   1.0000   1.0000   1.0000   1.0000
     1.0000   1.0000   1.0000   1.0000   1.0000   1.0000   1.0000   1.0000
     1.0000   1.0000   1.0000   1.0000   1.0000   1.0000   1.0000   1.0000
     1.0000   1.0000   1.0000   1.0000   1.0000   1.0000   1.0000   1.0000
     1.0000   1.0000   1.0000   1.0000   1.0000   1.0000   1.0000   1.0000

          k = 0.0000-0.5774-0.6073 (  8536 PWs)   bands (ev):

   -11.0806 -11.0806 -11.0806 -11.0806 -10.8910 -10.8910 -10.8910 -10.8910
     0.3220   0.3220   0.3220   0.3220   0.4803   0.4803   0.4803   0.4803
     0.7476   0.7476   0.7476   0.7476   0.7590   0.7591   0.7591   0.7591
     0.8142   0.8142   0.8142   0.8142   0.9882   0.9882   0.9882   0.9882
     1.5176   1.5176   1.5176   1.5176   1.5190   1.5190   1.5190   1.5190
     1.5238   1.5238   1.5238   1.5238   1.6889   1.6889   1.6889   1.6889
     2.5458   2.5458   2.5458   2.5458   3.2899   3.2899   3.2899   3.2899
     3.8557   3.8557   3.8557   3.8557   4.5976   4.5976   4.5976   4.5976
     4.6417   4.6417   4.6417   4.6417   5.0099   5.0099   5.0099   5.0099

     occupation numbers 
     1.0000   1.0000   1.0000   1.0000   1.0000   1.0000   1.0000   1.0000
     1.0000   1.0000   1.0000   1.0000   1.0000   1.0000   1.0000   1.0000
     1.0000   1.0000   1.0000   1.0000   1.0000   1.0000   1.0000   1.0000
     1.0000   1.0000   1.0000   1.0000   1.0000   1.0000   1.0000   1.0000
     1.0000   1.0000   1.0000   1.0000   1.0000   1.0000   1.0000   1.0000
     1.0000   1.0000   1.0000   1.0000   1.0000   1.0000   1.0000   1.0000
     1.0000   1.0000   1.0000   1.0000   1.0000   1.0000   1.0000   1.0000
     1.0000   1.0000   1.0000   1.0000   1.0000   1.0000   1.0000   1.0000
     1.0000   1.0000   1.0000   1.0000   1.0000   1.0000   1.0000   1.0000

          k = 0.1667 0.2887 0.0000 (  8548 PWs)   bands (ev):

   -11.4388 -11.0669 -11.0669 -10.9421 -10.9349 -10.8159 -10.8159 -10.8116
     0.3856   0.3856   0.4452   0.4744   0.5549   0.6061   0.6340   0.6340
     0.6657   0.7077   0.7077   0.7353   0.7453   0.8623   0.9497   0.9682
     0.9682   1.0565   1.0829   1.0829   1.1476   1.1681   1.1681   1.2014
     1.3898   1.3969   1.3969   1.4189   1.4360   1.4924   1.4953   1.4953
     1.5818   1.6093   1.6093   1.6677   1.6717   1.6814   1.8014   1.8014
     1.8619   2.2233   2.2270   2.2270   2.5824   2.7325   2.7325   3.0819
     3.4228   3.4228   3.7044   3.9533   3.9533   4.4402   4.5450   4.6902
     4.7129   4.8985   4.8985   5.0159   5.0739   5.0739   5.5809   5.6479

     occupation numbers 
     1.0000   1.0000   1.0000   1.0000   1.0000   1.0000   1.0000   1.0000
     1.0000   1.0000   1.0000   1.0000   1.0000   1.0000   1.0000   1.0000
     1.0000   1.0000   1.0000   1.0000   1.0000   1.0000   1.0000   1.0000
     1.0000   1.0000   1.0000   1.0000   1.0000   1.0000   1.0000   1.0000
     1.0000   1.0000   1.0000   1.0000   1.0000   1.0000   1.0000   1.0000
     1.0000   1.0000   1.0000   1.0000   1.0000   1.0000   1.0000   1.0000
     1.0000   1.0000   1.0000   1.0000   1.0000   1.0000   1.0000   1.0000
     1.0000   1.0000   1.0000   1.0000   1.0000   1.0000   1.0000   1.0000
     1.0000   1.0000   1.0000   1.0000   1.0000   1.0000   1.0000   1.0000

          k = 0.1667 0.2887 0.2024 (  8527 PWs)   bands (ev):

   -11.4066 -11.0493 -11.0493 -10.9764 -10.9254 -10.8318 -10.8318 -10.8185
     0.3630   0.3630   0.4274   0.4650   0.5534   0.5747   0.5747   0.6013
     0.6275   0.7251   0.7251   0.7296   0.7341   0.7437   0.8121   0.9502
     0.9502   1.0534   1.0534   1.0579   1.0844   1.0844   1.1252   1.1494
     1.4093   1.4110   1.4110   1.4332   1.4729   1.5033   1.5142   1.5142
     1.5738   1.6013   1.6013   1.6135   1.6824   1.6892   1.7478   1.7478
     2.1914   2.2374   2.3076   2.3076   2.5172   2.8307   2.8307   3.2332
     3.5153   3.5153   3.8798   4.0353   4.0353   4.4574   4.5556   4.6040
     4.6973   4.9171   4.9171   5.0002   5.0134   5.0134   5.5066   5.5992

     occupation numbers 
     1.0000   1.0000   1.0000   1.0000   1.0000   1.0000   1.0000   1.0000
     1.0000   1.0000   1.0000   1.0000   1.0000   1.0000   1.0000   1.0000
     1.0000   1.0000   1.0000   1.0000   1.0000   1.0000   1.0000   1.0000
     1.0000   1.0000   1.0000   1.0000   1.0000   1.0000   1.0000   1.0000
     1.0000   1.0000   1.0000   1.0000   1.0000   1.0000   1.0000   1.0000
     1.0000   1.0000   1.0000   1.0000   1.0000   1.0000   1.0000   1.0000
     1.0000   1.0000   1.0000   1.0000   1.0000   1.0000   1.0000   1.0000
     1.0000   1.0000   1.0000   1.0000   1.0000   1.0000   1.0000   1.0000
     1.0000   1.0000   1.0000   1.0000   1.0000   1.0000   1.0000   1.0000

          k = 0.1667 0.2887 0.4049 (  8510 PWs)   bands (ev):

   -11.3178 -11.0694 -11.0017 -11.0017 -10.9002 -10.8760 -10.8760 -10.8384
     0.3234   0.3234   0.3866   0.4367   0.4367   0.4370   0.4603   0.5549
     0.6009   0.6048   0.6912   0.6981   0.7670   0.7779   0.7779   0.9210
     0.9210   0.9648   0.9648   0.9887   0.9891   0.9891   1.0848   1.0916
     1.4573   1.4678   1.4779   1.4779   1.5077   1.5159   1.5346   1.5346
     1.5491   1.5667   1.5850   1.5850   1.6663   1.6663   1.7151   1.7291
     2.1841   2.3830   2.4575   2.4575   2.7943   2.7943   2.8790   3.5533
     3.9492   3.9492   4.1281   4.2605   4.2605   4.2642   4.2856   4.7574
     4.7661   4.7662   4.7720   4.9083   4.9083   5.0961   5.3027   5.4660

     occupation numbers 
     1.0000   1.0000   1.0000   1.0000   1.0000   1.0000   1.0000   1.0000
     1.0000   1.0000   1.0000   1.0000   1.0000   1.0000   1.0000   1.0000
     1.0000   1.0000   1.0000   1.0000   1.0000   1.0000   1.0000   1.0000
     1.0000   1.0000   1.0000   1.0000   1.0000   1.0000   1.0000   1.0000
     1.0000   1.0000   1.0000   1.0000   1.0000   1.0000   1.0000   1.0000
     1.0000   1.0000   1.0000   1.0000   1.0000   1.0000   1.0000   1.0000
     1.0000   1.0000   1.0000   1.0000   1.0000   1.0000   1.0000   1.0000
     1.0000   1.0000   1.0000   1.0000   1.0000   1.0000   1.0000   1.0000
     1.0000   1.0000   1.0000   1.0000   1.0000   1.0000   1.0000   1.0000

          k = 0.1667 0.2887-0.6073 (  8498 PWs)   bands (ev):

   -11.1947 -11.1947 -10.9380 -10.9380 -10.9380 -10.9380 -10.8680 -10.8680
     0.3344   0.3344   0.3344   0.3344   0.3784   0.3784   0.4454   0.4454
     0.6203   0.6203   0.6595   0.6595   0.8586   0.8586   0.8586   0.8586
     0.8609   0.8609   0.9391   0.9391   0.9391   0.9391   1.0769   1.0769
     1.5108   1.5108   1.5153   1.5153   1.5179   1.5179   1.5391   1.5391
     1.5391   1.5391   1.5931   1.5931   1.5931   1.5931   1.7394   1.7394
     2.2568   2.2568   2.6311   2.6311   2.6311   2.6311   3.5424   3.5424
     3.9224   3.9224   4.4204   4.4204   4.4204   4.4204   4.6302   4.6302
     4.6302   4.6302   4.6462   4.6462   5.0183   5.0183   5.2866   5.2866

     occupation numbers 
     1.0000   1.0000   1.0000   1.0000   1.0000   1.0000   1.0000   1.0000
     1.0000   1.0000   1.0000   1.0000   1.0000   1.0000   1.0000   1.0000
     1.0000   1.0000   1.0000   1.0000   1.0000   1.0000   1.0000   1.0000
     1.0000   1.0000   1.0000   1.0000   1.0000   1.0000   1.0000   1.0000
     1.0000   1.0000   1.0000   1.0000   1.0000   1.0000   1.0000   1.0000
     1.0000   1.0000   1.0000   1.0000   1.0000   1.0000   1.0000   1.0000
     1.0000   1.0000   1.0000   1.0000   1.0000   1.0000   1.0000   1.0000
     1.0000   1.0000   1.0000   1.0000   1.0000   1.0000   1.0000   1.0000
     1.0000   1.0000   1.0000   1.0000   1.0000   1.0000   1.0000   1.0000

          k = 0.1667 0.4811 0.0000 (  8524 PWs)   bands (ev):

   -11.3305 -11.1965 -11.0899 -10.9064 -10.8956 -10.8474 -10.8192 -10.8165
     0.3684   0.3958   0.4669   0.5052   0.5801   0.5849   0.6057   0.6411
     0.6736   0.7121   0.7480   0.7882   0.8264   0.8460   0.8764   0.9454
     0.9700   1.0503   1.0725   1.0739   1.1748   1.2067   1.2098   1.2900
     1.3361   1.3366   1.3559   1.4058   1.4254   1.4398   1.4555   1.4658
     1.5875   1.5963   1.6098   1.6381   1.7119   1.7707   1.7834   1.8123
     1.9222   2.1254   2.2440   2.2552   2.5834   2.7911   3.0386   3.2028
     3.3865   3.7538   3.7675   3.8065   3.8953   4.1995   4.2884   4.3336
     4.4772   4.6878   4.9269   4.9949   5.1931   5.2567   5.4272   5.4659

     occupation numbers 
     1.0000   1.0000   1.0000   1.0000   1.0000   1.0000   1.0000   1.0000
     1.0000   1.0000   1.0000   1.0000   1.0000   1.0000   1.0000   1.0000
     1.0000   1.0000   1.0000   1.0000   1.0000   1.0000   1.0000   1.0000
     1.0000   1.0000   1.0000   1.0000   1.0000   1.0000   1.0000   1.0000
     1.0000   1.0000   1.0000   1.0000   1.0000   1.0000   1.0000   1.0000
     1.0000   1.0000   1.0000   1.0000   1.0000   1.0000   1.0000   1.0000
     1.0000   1.0000   1.0000   1.0000   1.0000   1.0000   1.0000   1.0000
     1.0000   1.0000   1.0000   1.0000   1.0000   1.0000   1.0000   1.0000
     1.0000   1.0000   1.0000   1.0000   1.0000   1.0000   1.0000   1.0000

          k = 0.1667 0.4811 0.2024 (  8535 PWs)   bands (ev):

   -11.3019 -11.1729 -11.0710 -10.9251 -10.8990 -10.8704 -10.8365 -10.8211
     0.3486   0.3767   0.4414   0.5204   0.5557   0.5594   0.5611   0.6362
     0.6829   0.6930   0.7406   0.7440   0.8105   0.8283   0.8581   0.8598
     0.9246   0.9469   1.0189   1.0306   1.0441   1.0675   1.1667   1.2201
     1.3696   1.3705   1.3835   1.4138   1.4406   1.4714   1.4844   1.5021
     1.5781   1.5867   1.6027   1.6582   1.6589   1.7022   1.7554   1.7594
     2.2351   2.3241   2.3976   2.4161   2.5524   2.8943   3.0787   3.2829
     3.5151   3.7549   3.8552   3.9304   3.9336   4.1616   4.2783   4.3431
     4.5443   4.7102   4.8502   5.0131   5.1597   5.2038   5.3617   5.4114

     occupation numbers 
     1.0000   1.0000   1.0000   1.0000   1.0000   1.0000   1.0000   1.0000
     1.0000   1.0000   1.0000   1.0000   1.0000   1.0000   1.0000   1.0000
     1.0000   1.0000   1.0000   1.0000   1.0000   1.0000   1.0000   1.0000
     1.0000   1.0000   1.0000   1.0000   1.0000   1.0000   1.0000   1.0000
     1.0000   1.0000   1.0000   1.0000   1.0000   1.0000   1.0000   1.0000
     1.0000   1.0000   1.0000   1.0000   1.0000   1.0000   1.0000   1.0000
     1.0000   1.0000   1.0000   1.0000   1.0000   1.0000   1.0000   1.0000
     1.0000   1.0000   1.0000   1.0000   1.0000   1.0000   1.0000   1.0000
     1.0000   1.0000   1.0000   1.0000   1.0000   1.0000   1.0000   1.0000

          k = 0.1667 0.4811 0.4049 (  8523 PWs)   bands (ev):

   -11.2232 -11.1086 -11.0201 -11.0056 -10.9338 -10.8845 -10.8798 -10.8347
     0.3143   0.3399   0.3902   0.4327   0.4401   0.4705   0.5417   0.6366
     0.6519   0.6769   0.7183   0.7452   0.7566   0.7824   0.7873   0.7899
     0.8264   0.8758   0.8963   0.9217   0.9244   0.9732   1.1166   1.1435
     1.4471   1.4479   1.4546   1.4555   1.4732   1.4924   1.4974   1.5294
     1.5517   1.5622   1.5896   1.5903   1.6225   1.6727   1.7194   1.8061
     2.2454   2.4431   2.6164   2.7946   2.9066   2.9925   3.1979   3.2813
     3.7779   3.9515   3.9639   4.0025   4.0699   4.3141   4.3700   4.5129
     4.6407   4.6997   4.8290   4.9389   4.9641   5.0418   5.1188   5.2566

     occupation numbers 
     1.0000   1.0000   1.0000   1.0000   1.0000   1.0000   1.0000   1.0000
     1.0000   1.0000   1.0000   1.0000   1.0000   1.0000   1.0000   1.0000
     1.0000   1.0000   1.0000   1.0000   1.0000   1.0000   1.0000   1.0000
     1.0000   1.0000   1.0000   1.0000   1.0000   1.0000   1.0000   1.0000
     1.0000   1.0000   1.0000   1.0000   1.0000   1.0000   1.0000   1.0000
     1.0000   1.0000   1.0000   1.0000   1.0000   1.0000   1.0000   1.0000
     1.0000   1.0000   1.0000   1.0000   1.0000   1.0000   1.0000   1.0000
     1.0000   1.0000   1.0000   1.0000   1.0000   1.0000   1.0000   1.0000
     1.0000   1.0000   1.0000   1.0000   1.0000   1.0000   1.0000   1.0000

          k = 0.1667 0.4811-0.6073 (  8526 PWs)   bands (ev):

   -11.1149 -11.1149 -11.0210 -11.0210 -10.9515 -10.9515 -10.8559 -10.8559
     0.3289   0.3289   0.3450   0.3450   0.3882   0.3882   0.5531   0.5531
     0.6762   0.6762   0.7504   0.7504   0.7652   0.7652   0.7948   0.7948
     0.7970   0.7970   0.8443   0.8443   0.9093   0.9093   1.1123   1.1124
     1.4795   1.4795   1.5122   1.5122   1.5228   1.5228   1.5231   1.5231
     1.5292   1.5292   1.5445   1.5445   1.5988   1.5988   1.7827   1.7827
     2.3262   2.3262   2.8154   2.8154   3.0755   3.0755   3.4105   3.4105
     3.5901   3.5901   4.2718   4.2718   4.5226   4.5226   4.6265   4.6265
     4.6650   4.6650   4.6977   4.6977   4.7881   4.7881   5.0489   5.0490

     occupation numbers 
     1.0000   1.0000   1.0000   1.0000   1.0000   1.0000   1.0000   1.0000
     1.0000   1.0000   1.0000   1.0000   1.0000   1.0000   1.0000   1.0000
     1.0000   1.0000   1.0000   1.0000   1.0000   1.0000   1.0000   1.0000
     1.0000   1.0000   1.0000   1.0000   1.0000   1.0000   1.0000   1.0000
     1.0000   1.0000   1.0000   1.0000   1.0000   1.0000   1.0000   1.0000
     1.0000   1.0000   1.0000   1.0000   1.0000   1.0000   1.0000   1.0000
     1.0000   1.0000   1.0000   1.0000   1.0000   1.0000   1.0000   1.0000
     1.0000   1.0000   1.0000   1.0000   1.0000   1.0000   1.0000   1.0000
     1.0000   1.0000   1.0000   1.0000   1.0000   1.0000   1.0000   1.0000

          k = 0.3333 0.5774 0.0000 (  8520 PWs)   bands (ev):

   -11.2156 -11.2156 -11.2156 -10.8532 -10.8532 -10.8532 -10.8491 -10.8491
     0.4190   0.4190   0.4190   0.5063   0.5591   0.5592   0.5592   0.7075
     0.7075   0.7075   0.7630   0.7630   0.7630   0.8807   0.8807   0.9604
     0.9604   0.9604   1.1618   1.1618   1.1618   1.1653   1.3358   1.3358
     1.3358   1.3524   1.3524   1.3803   1.4418   1.4418   1.4418   1.4638
     1.5892   1.5892   1.5945   1.5945   1.5945   1.7856   1.7856   1.7856
     2.1025   2.1025   2.1025   2.4342   2.4342   2.4802   3.5339   3.5339
     3.5339   3.6181   3.6181   3.6181   4.1028   4.1028   4.2391   4.3042
     4.3042   4.3042   5.2039   5.2039   5.2039   5.2442   5.2442   5.2442

     occupation numbers 
     1.0000   1.0000   1.0000   1.0000   1.0000   1.0000   1.0000   1.0000
     1.0000   1.0000   1.0000   1.0000   1.0000   1.0000   1.0000   1.0000
     1.0000   1.0000   1.0000   1.0000   1.0000   1.0000   1.0000   1.0000
     1.0000   1.0000   1.0000   1.0000   1.0000   1.0000   1.0000   1.0000
     1.0000   1.0000   1.0000   1.0000   1.0000   1.0000   1.0000   1.0000
     1.0000   1.0000   1.0000   1.0000   1.0000   1.0000   1.0000   1.0000
     1.0000   1.0000   1.0000   1.0000   1.0000   1.0000   1.0000   1.0000
     1.0000   1.0000   1.0000   1.0000   1.0000   1.0000   1.0000   1.0000
     1.0000   1.0000   1.0000   1.0000   1.0000   1.0000   1.0000   1.0000

          k = 0.3333 0.5774 0.2024 (  8538 PWs)   bands (ev):

   -11.1913 -11.1913 -11.1912 -10.8773 -10.8773 -10.8773 -10.8477 -10.8476
     0.3947   0.3947   0.3947   0.5323   0.5384   0.5384   0.5384   0.7022
     0.7022   0.7022   0.7444   0.7444   0.7444   0.8199   0.8199   0.9389
     0.9389   0.9389   1.0082   1.0082   1.0082   1.0793   1.2792   1.2792
     1.3688   1.3688   1.3688   1.3895   1.4589   1.4648   1.4648   1.4648
     1.5850   1.5850   1.5850   1.6799   1.6799   1.7014   1.7014   1.7014
     2.3918   2.3918   2.4164   2.4164   2.4164   2.6248   3.5720   3.5721
     3.5721   3.6607   3.6607   3.6607   4.1244   4.2531   4.2531   4.3236
     4.3236   4.3236   5.1352   5.1352   5.1352   5.2194   5.2194   5.2194

     occupation numbers 
     1.0000   1.0000   1.0000   1.0000   1.0000   1.0000   1.0000   1.0000
     1.0000   1.0000   1.0000   1.0000   1.0000   1.0000   1.0000   1.0000
     1.0000   1.0000   1.0000   1.0000   1.0000   1.0000   1.0000   1.0000
     1.0000   1.0000   1.0000   1.0000   1.0000   1.0000   1.0000   1.0000
     1.0000   1.0000   1.0000   1.0000   1.0000   1.0000   1.0000   1.0000
     1.0000   1.0000   1.0000   1.0000   1.0000   1.0000   1.0000   1.0000
     1.0000   1.0000   1.0000   1.0000   1.0000   1.0000   1.0000   1.0000
     1.0000   1.0000   1.0000   1.0000   1.0000   1.0000   1.0000   1.0000
     1.0000   1.0000   1.0000   1.0000   1.0000   1.0000   1.0000   1.0000

          k = 0.3333 0.5774 0.4049 (  8532 PWs)   bands (ev):

   -11.1247 -11.1247 -11.1247 -10.9433 -10.9433 -10.9433 -10.8447 -10.8447
     0.3501   0.3501   0.3501   0.4437   0.4437   0.4437   0.6107   0.6968
     0.6968   0.7034   0.7034   0.7034   0.7240   0.7240   0.7240   0.8617
     0.8617   0.8617   0.8866   0.8866   0.8866   0.9068   1.2151   1.2151
     1.4072   1.4457   1.4462   1.4462   1.4462   1.4944   1.4944   1.4944
     1.5611   1.5611   1.5611   1.6222   1.6222   1.6222   1.7900   1.7900
     2.3200   2.3200   2.8479   2.8479   2.8479   2.9733   3.4148   3.4148
     3.4148   3.8173   4.0478   4.0478   4.0478   4.4469   4.4469   4.4469
     4.5389   4.5389   4.9511   4.9511   4.9511   5.0361   5.0361   5.0361

     occupation numbers 
     1.0000   1.0000   1.0000   1.0000   1.0000   1.0000   1.0000   1.0000
     1.0000   1.0000   1.0000   1.0000   1.0000   1.0000   1.0000   1.0000
     1.0000   1.0000   1.0000   1.0000   1.0000   1.0000   1.0000   1.0000
     1.0000   1.0000   1.0000   1.0000   1.0000   1.0000   1.0000   1.0000
     1.0000   1.0000   1.0000   1.0000   1.0000   1.0000   1.0000   1.0000
     1.0000   1.0000   1.0000   1.0000   1.0000   1.0000   1.0000   1.0000
     1.0000   1.0000   1.0000   1.0000   1.0000   1.0000   1.0000   1.0000
     1.0000   1.0000   1.0000   1.0000   1.0000   1.0000   1.0000   1.0000
     1.0000   1.0000   1.0000   1.0000   1.0000   1.0000   1.0000   1.0000

          k = 0.3333 0.5774-0.6073 (  8532 PWs)   bands (ev):

   -11.0339 -11.0339 -11.0339 -11.0339 -11.0338 -11.0338 -10.8432 -10.8432
     0.3534   0.3534   0.3534   0.3534   0.3534   0.3534   0.6369   0.6369
     0.7182   0.7182   0.7182   0.7182   0.7182   0.7182   0.7389   0.7389
     0.8393   0.8393   0.8393   0.8393   0.8393   0.8393   1.1971   1.1971
     1.4270   1.4270   1.5197   1.5197   1.5197   1.5197   1.5197   1.5197
     1.5457   1.5457   1.5457   1.5457   1.5457   1.5457   1.8332   1.8332
     2.2875   2.2875   3.1712   3.1712   3.1712   3.1712   3.1712   3.1712
     3.4026   3.4026   4.5414   4.5414   4.5414   4.5414   4.5414   4.5414
     4.6772   4.6772   4.7428   4.7428   4.7428   4.7428   4.7428   4.7428

     occupation numbers 
     1.0000   1.0000   1.0000   1.0000   1.0000   1.0000   1.0000   1.0000
     1.0000   1.0000   1.0000   1.0000   1.0000   1.0000   1.0000   1.0000
     1.0000   1.0000   1.0000   1.0000   1.0000   1.0000   1.0000   1.0000
     1.0000   1.0000   1.0000   1.0000   1.0000   1.0000   1.0000   1.0000
     1.0000   1.0000   1.0000   1.0000   1.0000   1.0000   1.0000   1.0000
     1.0000   1.0000   1.0000   1.0000   1.0000   1.0000   1.0000   1.0000
     1.0000   1.0000   1.0000   1.0000   1.0000   1.0000   1.0000   1.0000
     1.0000   1.0000   1.0000   1.0000   1.0000   1.0000   1.0000   1.0000
     1.0000   1.0000   1.0000   1.0000   1.0000   1.0000   1.0000   1.0000

          k = 0.0000-0.1925 0.2024 (  8517 PWs)   bands (ev):

   -11.4649 -11.0114 -11.0069 -10.9665 -10.9665 -10.8250 -10.8196 -10.8196
     0.3458   0.3927   0.3927   0.4696   0.5381   0.5500   0.5631   0.6002
     0.6002   0.6291   0.6751   0.7385   0.7435   0.7435   0.7452   1.0381
     1.0723   1.0723   1.0808   1.0810   1.0820   1.0820   1.1277   1.1277
     1.4266   1.4352   1.4651   1.4854   1.4854   1.5367   1.5382   1.5382
     1.5714   1.5851   1.6016   1.6224   1.6224   1.7223   1.7223   1.7400
     2.1453   2.1453   2.1858   2.1969   2.5425   2.5425   2.6499   3.4924
     3.4924   3.4926   3.9140   3.9140   4.0893   4.7024   4.7024   4.8371
     4.8965   4.8997   4.8997   5.0038   5.0441   5.1255   5.6208   5.7065

     occupation numbers 
     1.0000   1.0000   1.0000   1.0000   1.0000   1.0000   1.0000   1.0000
     1.0000   1.0000   1.0000   1.0000   1.0000   1.0000   1.0000   1.0000
     1.0000   1.0000   1.0000   1.0000   1.0000   1.0000   1.0000   1.0000
     1.0000   1.0000   1.0000   1.0000   1.0000   1.0000   1.0000   1.0000
     1.0000   1.0000   1.0000   1.0000   1.0000   1.0000   1.0000   1.0000
     1.0000   1.0000   1.0000   1.0000   1.0000   1.0000   1.0000   1.0000
     1.0000   1.0000   1.0000   1.0000   1.0000   1.0000   1.0000   1.0000
     1.0000   1.0000   1.0000   1.0000   1.0000   1.0000   1.0000   1.0000
     1.0000   1.0000   1.0000   1.0000   1.0000   1.0000   1.0000   1.0000

          k = 0.0000-0.1925 0.4049 (  8514 PWs)   bands (ev):

   -11.3709 -11.1066 -10.9700 -10.9331 -10.9331 -10.8622 -10.8482 -10.8482
     0.3015   0.3459   0.3459   0.4059   0.4273   0.4440   0.4440   0.4837
     0.5590   0.5706   0.6375   0.6442   0.8029   0.8029   0.8064   0.9993
     1.0022   1.0185   1.0185   1.0211   1.0428   1.0428   1.0550   1.0550
     1.4659   1.4699   1.5265   1.5323   1.5323   1.5464   1.5489   1.5523
     1.5523   1.5544   1.5818   1.6283   1.6283   1.6695   1.7001   1.7001
     2.1763   2.1763   2.2767   2.4181   2.4181   2.5723   2.8438   3.9318
     3.9318   3.9949   4.2137   4.2137   4.2770   4.3031   4.6227   4.6227
     4.8150   4.8150   4.8217   4.8509   5.1085   5.2501   5.4842   5.5855

     occupation numbers 
     1.0000   1.0000   1.0000   1.0000   1.0000   1.0000   1.0000   1.0000
     1.0000   1.0000   1.0000   1.0000   1.0000   1.0000   1.0000   1.0000
     1.0000   1.0000   1.0000   1.0000   1.0000   1.0000   1.0000   1.0000
     1.0000   1.0000   1.0000   1.0000   1.0000   1.0000   1.0000   1.0000
     1.0000   1.0000   1.0000   1.0000   1.0000   1.0000   1.0000   1.0000
     1.0000   1.0000   1.0000   1.0000   1.0000   1.0000   1.0000   1.0000
     1.0000   1.0000   1.0000   1.0000   1.0000   1.0000   1.0000   1.0000
     1.0000   1.0000   1.0000   1.0000   1.0000   1.0000   1.0000   1.0000
     1.0000   1.0000   1.0000   1.0000   1.0000   1.0000   1.0000   1.0000

          k = 0.0000-0.3849 0.2024 (  8522 PWs)   bands (ev):

   -11.3790 -11.1220 -10.9700 -10.9700 -10.9624 -10.8527 -10.8180 -10.8180
     0.3176   0.3995   0.4613   0.4613   0.5511   0.5759   0.5909   0.6523
     0.6523   0.6606   0.7129   0.7501   0.7663   0.7663   0.8422   0.8913
     0.9737   0.9737   0.9839   1.0670   1.1120   1.1120   1.1267   1.1267
     1.3890   1.3999   1.4162   1.4162   1.4353   1.4892   1.5151   1.5151
     1.5755   1.5905   1.6250   1.6309   1.6309   1.7121   1.7931   1.7931
     2.2043   2.2043   2.2581   2.3969   2.7093   2.7093   2.9895   3.3827
     3.3827   3.6325   3.7336   3.7336   4.2906   4.3196   4.5738   4.6051
     4.6051   4.7930   4.7930   4.9123   5.0691   5.1926   5.4581   5.5746

     occupation numbers 
     1.0000   1.0000   1.0000   1.0000   1.0000   1.0000   1.0000   1.0000
     1.0000   1.0000   1.0000   1.0000   1.0000   1.0000   1.0000   1.0000
     1.0000   1.0000   1.0000   1.0000   1.0000   1.0000   1.0000   1.0000
     1.0000   1.0000   1.0000   1.0000   1.0000   1.0000   1.0000   1.0000
     1.0000   1.0000   1.0000   1.0000   1.0000   1.0000   1.0000   1.0000
     1.0000   1.0000   1.0000   1.0000   1.0000   1.0000   1.0000   1.0000
     1.0000   1.0000   1.0000   1.0000   1.0000   1.0000   1.0000   1.0000
     1.0000   1.0000   1.0000   1.0000   1.0000   1.0000   1.0000   1.0000
     1.0000   1.0000   1.0000   1.0000   1.0000   1.0000   1.0000   1.0000

          k = 0.0000-0.3849 0.4049 (  8526 PWs)   bands (ev):

   -11.2928 -11.0641 -11.0523 -10.9356 -10.9356 -10.9085 -10.8477 -10.8477
     0.2857   0.3629   0.4125   0.4252   0.4252   0.4523   0.5232   0.5232
     0.6169   0.6415   0.7081   0.7199   0.7623   0.7757   0.7757   0.8652
     0.9179   0.9351   0.9378   0.9378   1.0231   1.0231   1.0431   1.0431
     1.4525   1.4612   1.4692   1.4798   1.4798   1.5085   1.5376   1.5376
     1.5502   1.5660   1.5716   1.6309   1.6414   1.6414   1.7418   1.7418
     2.3008   2.3008   2.5983   2.5983   2.6464   2.8908   3.0305   3.6722
     3.6722   3.9491   4.0336   4.1409   4.1409   4.4109   4.4109   4.5121
     4.6234   4.8242   4.8242   4.9291   5.0141   5.0550   5.2180   5.4370

     occupation numbers 
     1.0000   1.0000   1.0000   1.0000   1.0000   1.0000   1.0000   1.0000
     1.0000   1.0000   1.0000   1.0000   1.0000   1.0000   1.0000   1.0000
     1.0000   1.0000   1.0000   1.0000   1.0000   1.0000   1.0000   1.0000
     1.0000   1.0000   1.0000   1.0000   1.0000   1.0000   1.0000   1.0000
     1.0000   1.0000   1.0000   1.0000   1.0000   1.0000   1.0000   1.0000
     1.0000   1.0000   1.0000   1.0000   1.0000   1.0000   1.0000   1.0000
     1.0000   1.0000   1.0000   1.0000   1.0000   1.0000   1.0000   1.0000
     1.0000   1.0000   1.0000   1.0000   1.0000   1.0000   1.0000   1.0000
     1.0000   1.0000   1.0000   1.0000   1.0000   1.0000   1.0000   1.0000

          k =-0.1667-0.4811 0.2024 (  8535 PWs)   bands (ev):

   -11.3019 -11.1729 -11.0710 -10.9251 -10.8990 -10.8704 -10.8365 -10.8211
     0.3486   0.3767   0.4414   0.5204   0.5557   0.5594   0.5611   0.6362
     0.6829   0.6930   0.7406   0.7440   0.8105   0.8283   0.8581   0.8598
     0.9246   0.9469   1.0189   1.0306   1.0441   1.0675   1.1667   1.2201
     1.3696   1.3705   1.3835   1.4138   1.4406   1.4714   1.4844   1.5021
     1.5781   1.5867   1.6027   1.6582   1.6589   1.7022   1.7554   1.7594
     2.2351   2.3241   2.3976   2.4161   2.5524   2.8943   3.0787   3.2829
     3.5151   3.7549   3.8552   3.9304   3.9336   4.1616   4.2783   4.3431
     4.5443   4.7102   4.8502   5.0131   5.1597   5.2038   5.3617   5.4114

     occupation numbers 
     1.0000   1.0000   1.0000   1.0000   1.0000   1.0000   1.0000   1.0000
     1.0000   1.0000   1.0000   1.0000   1.0000   1.0000   1.0000   1.0000
     1.0000   1.0000   1.0000   1.0000   1.0000   1.0000   1.0000   1.0000
     1.0000   1.0000   1.0000   1.0000   1.0000   1.0000   1.0000   1.0000
     1.0000   1.0000   1.0000   1.0000   1.0000   1.0000   1.0000   1.0000
     1.0000   1.0000   1.0000   1.0000   1.0000   1.0000   1.0000   1.0000
     1.0000   1.0000   1.0000   1.0000   1.0000   1.0000   1.0000   1.0000
     1.0000   1.0000   1.0000   1.0000   1.0000   1.0000   1.0000   1.0000
     1.0000   1.0000   1.0000   1.0000   1.0000   1.0000   1.0000   1.0000

          k =-0.1667-0.4811 0.4049 (  8523 PWs)   bands (ev):

   -11.2232 -11.1086 -11.0201 -11.0056 -10.9338 -10.8845 -10.8798 -10.8347
     0.3143   0.3399   0.3902   0.4327   0.4401   0.4705   0.5417   0.6366
     0.6519   0.6769   0.7183   0.7452   0.7566   0.7825   0.7873   0.7899
     0.8264   0.8758   0.8963   0.9217   0.9244   0.9732   1.1166   1.1435
     1.4471   1.4479   1.4546   1.4555   1.4732   1.4924   1.4974   1.5294
     1.5517   1.5622   1.5896   1.5903   1.6225   1.6727   1.7194   1.8061
     2.2454   2.4431   2.6164   2.7946   2.9066   2.9925   3.1979   3.2813
     3.7779   3.9515   3.9639   4.0025   4.0699   4.3141   4.3700   4.5129
     4.6407   4.6997   4.8290   4.9389   4.9641   5.0418   5.1188   5.2566

     occupation numbers 
     1.0000   1.0000   1.0000   1.0000   1.0000   1.0000   1.0000   1.0000
     1.0000   1.0000   1.0000   1.0000   1.0000   1.0000   1.0000   1.0000
     1.0000   1.0000   1.0000   1.0000   1.0000   1.0000   1.0000   1.0000
     1.0000   1.0000   1.0000   1.0000   1.0000   1.0000   1.0000   1.0000
     1.0000   1.0000   1.0000   1.0000   1.0000   1.0000   1.0000   1.0000
     1.0000   1.0000   1.0000   1.0000   1.0000   1.0000   1.0000   1.0000
     1.0000   1.0000   1.0000   1.0000   1.0000   1.0000   1.0000   1.0000
     1.0000   1.0000   1.0000   1.0000   1.0000   1.0000   1.0000   1.0000
     1.0000   1.0000   1.0000   1.0000   1.0000   1.0000   1.0000   1.0000

     highest occupied level (ev):     5.7954

!    total energy              =   -1446.52002049 Ry
     estimated scf accuracy    <          1.4E-10 Ry

     The total energy is the sum of the following terms:
     one-electron contribution =    -653.99450989 Ry
     hartree contribution      =     485.98042876 Ry
     xc contribution           =    -437.56233140 Ry
     ewald contribution        =    -840.94360797 Ry

     convergence has been achieved in  28 iterations

     Forces acting on atoms (cartesian axes, Ry/au):

     atom    1 type  1   force =    -0.00000095   -0.00000055    0.00276287
     atom    2 type  1   force =     0.00000000   -0.00000229    0.00276236
     atom    3 type  2   force =     0.00000013    0.00000008   -0.00276256
     atom    4 type  2   force =     0.00000000    0.00000013   -0.00276238
     atom    5 type  1   force =     0.00000000   -0.00000000    0.00276182
     atom    6 type  1   force =    -0.00000198    0.00000114    0.00276236
     atom    7 type  2   force =     0.00000000   -0.00000000   -0.00276269
     atom    8 type  2   force =     0.00000011   -0.00000006   -0.00276238
     atom    9 type  1   force =     0.00000095   -0.00000055    0.00276287
     atom   10 type  1   force =     0.00000000    0.00000000    0.00276238
     atom   11 type  2   force =    -0.00000013    0.00000008   -0.00276256
     atom   12 type  2   force =     0.00000000   -0.00000000   -0.00276238
     atom   13 type  1   force =     0.00000000    0.00000110    0.00276287
     atom   14 type  1   force =     0.00000198    0.00000114    0.00276236
     atom   15 type  2   force =     0.00000000   -0.00000016   -0.00276256
     atom   16 type  2   force =    -0.00000011   -0.00000006   -0.00276238
     The non-local contrib.  to forces
     atom    1 type  1   force =    -0.00000097   -0.00000056    0.04910070
     atom    2 type  1   force =     0.00000000   -0.00000140    0.04910051
     atom    3 type  2   force =     0.00000028    0.00000016    0.05542718
     atom    4 type  2   force =     0.00000000    0.00000058    0.05542692
     atom    5 type  1   force =     0.00000000   -0.00000000    0.04910037
     atom    6 type  1   force =    -0.00000122    0.00000070    0.04910051
     atom    7 type  2   force =     0.00000000    0.00000000    0.05542667
     atom    8 type  2   force =     0.00000051   -0.00000029    0.05542692
     atom    9 type  1   force =     0.00000097   -0.00000056    0.04910070
     atom   10 type  1   force =     0.00000000    0.00000000    0.04909982
     atom   11 type  2   force =    -0.00000028    0.00000016    0.05542718
     atom   12 type  2   force =     0.00000000   -0.00000000    0.05542717
     atom   13 type  1   force =     0.00000000    0.00000112    0.04910070
     atom   14 type  1   force =     0.00000122    0.00000070    0.04910051
     atom   15 type  2   force =     0.00000000   -0.00000033    0.05542718
     atom   16 type  2   force =    -0.00000051   -0.00000029    0.05542692
     The ionic contribution  to forces
     atom    1 type  1   force =     0.00000000    0.00000001    0.44698223
     atom    2 type  1   force =     0.00000001    0.00000000    0.44698223
     atom    3 type  2   force =     0.00000000    0.00000000   -0.44698223
     atom    4 type  2   force =     0.00000001    0.00000000   -0.44698223
     atom    5 type  1   force =     0.00000000    0.00000001    0.44698223
     atom    6 type  1   force =     0.00000001    0.00000000    0.44698223
     atom    7 type  2   force =     0.00000000    0.00000000   -0.44698223
     atom    8 type  2   force =     0.00000001    0.00000000   -0.44698223
     atom    9 type  1   force =    -0.00000002   -0.00000000    0.44698223
     atom   10 type  1   force =     0.00000000   -0.00000001    0.44698223
     atom   11 type  2   force =    -0.00000001    0.00000000   -0.44698223
     atom   12 type  2   force =     0.00000000   -0.00000001   -0.44698223
     atom   13 type  1   force =    -0.00000002   -0.00000000    0.44698223
     atom   14 type  1   force =     0.00000000   -0.00000001    0.44698223
     atom   15 type  2   force =    -0.00000001    0.00000000   -0.44698223
     atom   16 type  2   force =     0.00000000   -0.00000001   -0.44698223
     The local contribution  to forces
     atom    1 type  1   force =     0.00000220    0.00000137   -0.49006469
     atom    2 type  1   force =     0.00000009    0.00000434   -0.49006422
     atom    3 type  2   force =     0.00000059    0.00000037    0.38927321
     atom    4 type  2   force =     0.00000002    0.00000056    0.38927268
     atom    5 type  1   force =    -0.00000000    0.00000010   -0.49006209
     atom    6 type  1   force =     0.00000380   -0.00000209   -0.49006422
     atom    7 type  2   force =    -0.00000000    0.00000003    0.38927316
     atom    8 type  2   force =     0.00000050   -0.00000026    0.38927268
     atom    9 type  1   force =    -0.00000238    0.00000137   -0.49006469
     atom   10 type  1   force =     0.00000009    0.00000005   -0.49006233
     atom   11 type  2   force =    -0.00000064    0.00000037    0.38927321
     atom   12 type  2   force =     0.00000002    0.00000001    0.38927193
     atom   13 type  1   force =    -0.00000017   -0.00000244   -0.49006469
     atom   14 type  1   force =    -0.00000362   -0.00000209   -0.49006422
     atom   15 type  2   force =    -0.00000005   -0.00000065    0.38927321
     atom   16 type  2   force =    -0.00000045   -0.00000026    0.38927268
     The core correction contribution to forces
     atom    1 type  1   force =     0.00000015    0.00000010   -0.00325554
     atom    2 type  1   force =     0.00000001    0.00000015   -0.00325553
     atom    3 type  2   force =     0.00000000    0.00000000   -0.00047789
     atom    4 type  2   force =    -0.00000000    0.00000000   -0.00047789
     atom    5 type  1   force =    -0.00000000    0.00000001   -0.00325565
     atom    6 type  1   force =     0.00000014   -0.00000007   -0.00325553
     atom    7 type  2   force =    -0.00000000   -0.00000000   -0.00047789
     atom    8 type  2   force =     0.00000000   -0.00000000   -0.00047789
     atom    9 type  1   force =    -0.00000018    0.00000010   -0.00325554
     atom   10 type  1   force =     0.00000001    0.00000001   -0.00325562
     atom   11 type  2   force =    -0.00000000    0.00000000   -0.00047789
     atom   12 type  2   force =    -0.00000000   -0.00000000   -0.00047790
     atom   13 type  1   force =    -0.00000002   -0.00000017   -0.00325554
     atom   14 type  1   force =    -0.00000011   -0.00000007   -0.00325553
     atom   15 type  2   force =     0.00000000   -0.00000001   -0.00047789
     atom   16 type  2   force =    -0.00000000   -0.00000000   -0.00047789
     The Hubbard contrib.    to forces
     atom    1 type  1   force =     0.00000000    0.00000000    0.00000000
     atom    2 type  1   force =     0.00000000    0.00000000    0.00000000
     atom    3 type  2   force =     0.00000000    0.00000000    0.00000000
     atom    4 type  2   force =     0.00000000    0.00000000    0.00000000
     atom    5 type  1   force =     0.00000000    0.00000000    0.00000000
     atom    6 type  1   force =     0.00000000    0.00000000    0.00000000
     atom    7 type  2   force =     0.00000000    0.00000000    0.00000000
     atom    8 type  2   force =     0.00000000    0.00000000    0.00000000
     atom    9 type  1   force =     0.00000000    0.00000000    0.00000000
     atom   10 type  1   force =     0.00000000    0.00000000    0.00000000
     atom   11 type  2   force =     0.00000000    0.00000000    0.00000000
     atom   12 type  2   force =     0.00000000    0.00000000    0.00000000
     atom   13 type  1   force =     0.00000000    0.00000000    0.00000000
     atom   14 type  1   force =     0.00000000    0.00000000    0.00000000
     atom   15 type  2   force =     0.00000000    0.00000000    0.00000000
     atom   16 type  2   force =     0.00000000    0.00000000    0.00000000
     The SCF correction term to forces
     atom    1 type  1   force =    -0.00000240   -0.00000139    0.00000150
     atom    2 type  1   force =     0.00000000   -0.00000532    0.00000070
     atom    3 type  2   force =    -0.00000076   -0.00000044   -0.00000151
     atom    4 type  2   force =     0.00000000   -0.00000101   -0.00000055
     atom    5 type  1   force =     0.00000000    0.00000000   -0.00000172
     atom    6 type  1   force =    -0.00000460    0.00000266    0.00000070
     atom    7 type  2   force =     0.00000000    0.00000000   -0.00000108
     atom    8 type  2   force =    -0.00000088    0.00000051   -0.00000055
     atom    9 type  1   force =     0.00000240   -0.00000139    0.00000150
     atom   10 type  1   force =     0.00000000    0.00000000   -0.00000040
     atom   11 type  2   force =     0.00000076   -0.00000044   -0.00000151
     atom   12 type  2   force =     0.00000000   -0.00000000   -0.00000004
     atom   13 type  1   force =    -0.00000000    0.00000277    0.00000150
     atom   14 type  1   force =     0.00000460    0.00000266    0.00000070
     atom   15 type  2   force =    -0.00000000    0.00000088   -0.00000151
     atom   16 type  2   force =     0.00000088    0.00000051   -0.00000055

     Total force =     0.011050     Total SCF correction =     0.000012

     init_run     :      9.13s CPU      8.90s WALL (       1 calls)
     electrons    :    600.42s CPU    496.56s WALL (       1 calls)
     forces       :      5.96s CPU      4.57s WALL (       1 calls)

     Called by init_run:
     wfcinit      :      4.47s CPU      4.04s WALL (       1 calls)
     wfcinit:atom :      0.14s CPU      0.15s WALL (       5 calls)
     wfcinit:wfcr :      3.52s CPU      3.03s WALL (       5 calls)
     potinit      :      1.90s CPU      1.98s WALL (       1 calls)
     hinit0       :      2.38s CPU      2.43s WALL (       1 calls)

     Called by electrons:
     c_bands      :    535.19s CPU    435.48s WALL (      28 calls)
     sum_band     :     36.75s CPU     31.15s WALL (      28 calls)
     v_of_rho     :     16.48s CPU     17.53s WALL (      29 calls)
     v_h          :      0.99s CPU      1.00s WALL (      29 calls)
     v_xc         :     16.04s CPU     17.12s WALL (      30 calls)
     newd         :      8.18s CPU      8.73s WALL (      29 calls)
     mix_rho      :      2.36s CPU      2.35s WALL (      28 calls)

     Called by c_bands:
     init_us_2    :      6.00s CPU      5.41s WALL (     290 calls)
     init_us_2:cp :      6.00s CPU      5.41s WALL (     290 calls)
     cegterg      :    476.05s CPU    377.89s WALL (     140 calls)

     Called by sum_band:
     sum_band:wei :      0.04s CPU      0.04s WALL (      28 calls)
     sum_band:loo :     30.04s CPU     25.09s WALL (      28 calls)
     sum_band:buf :      0.93s CPU      0.82s WALL (     140 calls)
     sum_band:ini :      3.08s CPU      2.62s WALL (     140 calls)
     sum_band:cal :      5.85s CPU      3.12s WALL (     140 calls)
     sum_band:bec :      0.02s CPU      0.02s WALL (     140 calls)
     addusdens    :      3.04s CPU      2.51s WALL (      28 calls)
                                        0.00s GPU  (      28 calls)
     addusd:skk   :      0.04s CPU      0.03s WALL (      56 calls)
                                        0.00s GPU  (      56 calls)

     Called by *egterg:
     cdiaghg      :     32.78s CPU     25.57s WALL (    1348 calls)
     cegterg:over :     30.63s CPU     16.57s WALL (    1208 calls)
     cegterg:upda :     35.84s CPU     28.99s WALL (    1208 calls)
     cegterg:last :     94.31s CPU     80.62s WALL (     633 calls)
     h_psi        :    217.70s CPU    174.78s WALL (    1353 calls)
     s_psi        :     36.60s CPU     19.49s WALL (    1353 calls)
     g_psi        :      4.12s CPU      3.48s WALL (    1208 calls)

     Called by h_psi:
     h_psi:calbec :     32.05s CPU     17.45s WALL (    1353 calls)
     vloc_psi     :    143.41s CPU    133.81s WALL (    1353 calls)
     add_vuspsi   :     41.17s CPU     21.94s WALL (    1353 calls)

     General routines
     calbec       :     40.55s CPU     21.93s WALL (    1513 calls)
     fft          :      9.27s CPU      9.15s WALL (     386 calls)
     ffts         :      0.85s CPU      0.82s WALL (      57 calls)
     fftw         :    117.18s CPU    108.88s WALL (   26430 calls)
     interpolate  :      1.59s CPU      1.59s WALL (      29 calls)

     Parallel routines

     PWSCF        :  10m15.98s CPU   8m30.56s WALL


   This run was terminated on:  21:36:39  23Aug2025            

=------------------------------------------------------------------------------=
   JOB DONE.
=------------------------------------------------------------------------------=
Note: The following floating-point exceptions are signalling: IEEE_INVALID_FLAG
Note: The following floating-point exceptions are signalling: IEEE_INVALID_FLAG
Note: The following floating-point exceptions are signalling: IEEE_INVALID_FLAG
Note: The following floating-point exceptions are signalling: IEEE_INVALID_FLAG
Note: The following floating-point exceptions are signalling: IEEE_INVALID_FLAG
Note: The following floating-point exceptions are signalling: IEEE_INVALID_FLAG
Note: The following floating-point exceptions are signalling: IEEE_INVALID_FLAG
Note: The following floating-point exceptions are signalling: IEEE_INVALID_FLAG
Note: The following floating-point exceptions are signalling: IEEE_INVALID_FLAG
Note: The following floating-point exceptions are signalling: IEEE_INVALID_FLAG
Note: The following floating-point exceptions are signalling: IEEE_INVALID_FLAG
Note: The following floating-point exceptions are signalling: IEEE_INVALID_FLAG
Note: The following floating-point exceptions are signalling: IEEE_INVALID_FLAG
Note: The following floating-point exceptions are signalling: IEEE_INVALID_FLAG
Note: The following floating-point exceptions are signalling: IEEE_INVALID_FLAG
Note: The following floating-point exceptions are signalling: IEEE_INVALID_FLAG
Note: The following floating-point exceptions are signalling: IEEE_INVALID_FLAG
Note: The following floating-point exceptions are signalling: IEEE_INVALID_FLAG
Note: The following floating-point exceptions are signalling: IEEE_INVALID_FLAG
Note: The following floating-point exceptions are signalling: IEEE_INVALID_FLAG
Note: The following floating-point exceptions are signalling: IEEE_INVALID_FLAG
Note: The following floating-point exceptions are signalling: IEEE_INVALID_FLAG
Note: The following floating-point exceptions are signalling: IEEE_INVALID_FLAG
Note: The following floating-point exceptions are signalling: IEEE_INVALID_FLAG
Note: The following floating-point exceptions are signalling: IEEE_INVALID_FLAG
Note: The following floating-point exceptions are signalling: IEEE_INVALID_FLAG
Note: The following floating-point exceptions are signalling: IEEE_INVALID_FLAG
Note: The following floating-point exceptions are signalling: IEEE_INVALID_FLAG
Note: The following floating-point exceptions are signalling: IEEE_INVALID_FLAG
Note: The following floating-point exceptions are signalling: IEEE_INVALID_FLAG
Note: The following floating-point exceptions are signalling: IEEE_INVALID_FLAG
Note: The following floating-point exceptions are signalling: IEEE_INVALID_FLAG
