
     Program PWSCF v.7.2 starts on 24Aug2025 at 22:23: 9 

     This program is part of the open-source Quantum ESPRESSO suite
     for quantum simulation of materials; please cite
         "P. Giannozzi et al., J. Phys.:Condens. Matter 21 395502 (2009);
         "P. Giannozzi et al., J. Phys.:Condens. Matter 29 465901 (2017);
         "P. Giannozzi et al., J. Chem. Phys. 152 154105 (2020);
          URL http://www.quantum-espresso.org", 
     in publications or presentations arising from this work. More details at
     http://www.quantum-espresso.org/quote

     Parallel version (MPI), running on    32 processors

     MPI processes distributed on     1 nodes
     120428 MiB available memory on the printing compute node when the environment starts

     Reading input from /home/jvc/QEspresso7.2/ZnO_database/scripts/cell331.in/ZnO-3.07-1.58-331.in
Warning: card &CELL ignored
Warning: card / ignored
Warning: card &FCP ignored
Warning: card / ignored
Warning: card &RISM ignored
Warning: card / ignored

     Current dimensions of program PWSCF are:
     Max number of different atomic species (ntypx) = 10
     Max number of k-points (npk) =  40000
     Max angular momentum in pseudopotentials (lmaxx) =  4
     file Zn.upf: wavefunction(s)  3D renormalized
     Found identity + (  0.0000  0.3333  0.0000) symmetry
     This is a supercell, fractional translations are disabled
     Message from routine setup:
     using ibrav=0 with symmetry is DISCOURAGED, use correct ibrav instead

     K-points division:     npool     =       8
     band groups division:  nbgrp     =       4
     Subspace diagonalization in iterative solution of the eigenvalue problem:
     a serial algorithm will be used


     G-vector sticks info
     --------------------
     sticks:   dense  smooth     PW     G-vecs:    dense   smooth      PW
     Sum        8371    4189   1159               326573   115361   17067

     Using Slab Decomposition



     bravais-lattice index     =            0
     lattice parameter (alat)  =      17.4244  a.u.
     unit-cell volume          =    2416.0533 (a.u.)^3
     number of atoms/cell      =           36
     number of atomic types    =            2
     number of electrons       =       324.00
     number of Kohn-Sham states=          162
     kinetic-energy cutoff     =      50.0000  Ry
     charge density cutoff     =     400.0000  Ry
     scf convergence threshold =      1.0E-08
     mixing beta               =       0.3000
     number of iterations used =            8  plain     mixing
     Exchange-correlation= PBE
                           (   1   4   3   4   0   0   0)

     celldm(1)=  17.424368  celldm(2)=   0.000000  celldm(3)=   0.000000
     celldm(4)=   0.000000  celldm(5)=   0.000000  celldm(6)=   0.000000

     crystal axes: (cart. coord. in units of alat)
               a(1) = (   1.000000   0.000000   0.000000 )  
               a(2) = (  -0.500000   0.866025   0.000000 )  
               a(3) = (   0.000000   0.000000   0.527357 )  

     reciprocal axes: (cart. coord. in units 2 pi/alat)
               b(1) = (  1.000000  0.577350 -0.000000 )  
               b(2) = (  0.000000  1.154701  0.000000 )  
               b(3) = (  0.000000 -0.000000  1.896248 )  


     PseudoPot. # 1 for Zn read from file:
     /home/jvc/QEspresso7.2/ZnO_database/pseudos/Zn.upf
     MD5 check sum: 7f56cabf9682ed8c977c2f7d0c5985c5
     Pseudo is Ultrasoft + core correction, Zval = 12.0
     Generated using &quot;atomic&quot; code by A. Dal Corso  v.6.2.2
     Using radial grid of 1201 points,  6 beta functions with: 
                l(1) =   0
                l(2) =   0
                l(3) =   1
                l(4) =   1
                l(5) =   2
                l(6) =   2
     Q(r) pseudized with 0 coefficients 


     PseudoPot. # 2 for O  read from file:
     /home/jvc/QEspresso7.2/ZnO_database/pseudos/O.upf
     MD5 check sum: 91400c9766925bcf19f520983a725ff0
     Pseudo is Ultrasoft + core correction, Zval =  6.0
     Generated using &quot;atomic&quot; code by A. Dal Corso  v.6.3MaX
     Using radial grid of 1095 points,  4 beta functions with: 
                l(1) =   0
                l(2) =   0
                l(3) =   1
                l(4) =   1
     Q(r) pseudized with 0 coefficients 


     atomic species   valence    mass     pseudopotential
        Zn            12.00    65.38000     Zn( 1.00)
        O              6.00    15.99900     O ( 1.00)

      6 Sym. Ops. (no inversion) found


                                    s                        frac. trans.

      isym =  1     identity                                     

 cryst.   s( 1) = (     1          0          0      )
                  (     0          1          0      )
                  (     0          0          1      )

 cart.    s( 1) = (  1.0000000  0.0000000  0.0000000 )
                  (  0.0000000  1.0000000  0.0000000 )
                  (  0.0000000  0.0000000  1.0000000 )


      isym =  2     120 deg rotation - cryst. axis [0,0,1]       

 cryst.   s( 2) = (     0          1          0      )
                  (    -1         -1          0      )
                  (     0          0          1      )

 cart.    s( 2) = ( -0.5000000 -0.8660254  0.0000000 )
                  (  0.8660254 -0.5000000  0.0000000 )
                  (  0.0000000  0.0000000  1.0000000 )


      isym =  3     120 deg rotation - cryst. axis [0,0,-1]      

 cryst.   s( 3) = (    -1         -1          0      )
                  (     1          0          0      )
                  (     0          0          1      )

 cart.    s( 3) = ( -0.5000000  0.8660254  0.0000000 )
                  ( -0.8660254 -0.5000000  0.0000000 )
                  (  0.0000000  0.0000000  1.0000000 )


      isym =  4     inv. 180 deg rotation - cart. axis [1,0,0]   

 cryst.   s( 4) = (    -1          0          0      )
                  (     1          1          0      )
                  (     0          0          1      )

 cart.    s( 4) = ( -1.0000000  0.0000000  0.0000000 )
                  (  0.0000000  1.0000000  0.0000000 )
                  (  0.0000000  0.0000000  1.0000000 )


      isym =  5     inv. 180 deg rotation - cryst. axis [0,1,0]  

 cryst.   s( 5) = (     1          1          0      )
                  (     0         -1          0      )
                  (     0          0          1      )

 cart.    s( 5) = (  0.5000000  0.8660254  0.0000000 )
                  (  0.8660254 -0.5000000  0.0000000 )
                  (  0.0000000  0.0000000  1.0000000 )


      isym =  6     inv. 180 deg rotation - cryst. axis [1,1,0]  

 cryst.   s( 6) = (     0         -1          0      )
                  (    -1          0          0      )
                  (     0          0          1      )

 cart.    s( 6) = (  0.5000000 -0.8660254  0.0000000 )
                  ( -0.8660254 -0.5000000  0.0000000 )
                  (  0.0000000  0.0000000  1.0000000 )


   Cartesian axes

     site n.     atom                  positions (alat units)
         1           Zn  tau(   1) = (   0.1666667   0.0962250   0.2640127  )
         2           Zn  tau(   2) = (   0.0000000   0.1924501   0.0003341  )
         3           O   tau(   3) = (   0.1666667   0.0962250   0.4639036  )
         4           O   tau(   4) = (   0.0000000   0.1924501   0.2002250  )
         5           Zn  tau(   5) = (   0.0000000   0.3849002   0.2640127  )
         6           Zn  tau(   6) = (  -0.1666667   0.4811252   0.0003341  )
         7           O   tau(   7) = (   0.0000000   0.3849002   0.4639036  )
         8           O   tau(   8) = (  -0.1666667   0.4811252   0.2002250  )
         9           Zn  tau(   9) = (  -0.1666667   0.6735753   0.2640127  )
        10           Zn  tau(  10) = (  -0.3333333   0.7698004   0.0003341  )
        11           O   tau(  11) = (  -0.1666667   0.6735753   0.4639036  )
        12           O   tau(  12) = (  -0.3333333   0.7698004   0.2002250  )
        13           Zn  tau(  13) = (   0.5000000   0.0962250   0.2640127  )
        14           Zn  tau(  14) = (   0.3333333   0.1924501   0.0003341  )
        15           O   tau(  15) = (   0.5000000   0.0962250   0.4639036  )
        16           O   tau(  16) = (   0.3333333   0.1924501   0.2002250  )
        17           Zn  tau(  17) = (   0.3333333   0.3849002   0.2640127  )
        18           Zn  tau(  18) = (   0.1666667   0.4811252   0.0003341  )
        19           O   tau(  19) = (   0.3333333   0.3849002   0.4639036  )
        20           O   tau(  20) = (   0.1666667   0.4811252   0.2002250  )
        21           Zn  tau(  21) = (   0.1666667   0.6735753   0.2640127  )
        22           Zn  tau(  22) = (  -0.0000000   0.7698004   0.0003341  )
        23           O   tau(  23) = (   0.1666667   0.6735753   0.4639036  )
        24           O   tau(  24) = (  -0.0000000   0.7698004   0.2002250  )
        25           Zn  tau(  25) = (   0.8333333   0.0962250   0.2640127  )
        26           Zn  tau(  26) = (   0.6666667   0.1924501   0.0003341  )
        27           O   tau(  27) = (   0.8333333   0.0962250   0.4639036  )
        28           O   tau(  28) = (   0.6666667   0.1924501   0.2002250  )
        29           Zn  tau(  29) = (   0.6666667   0.3849002   0.2640127  )
        30           Zn  tau(  30) = (   0.5000000   0.4811252   0.0003341  )
        31           O   tau(  31) = (   0.6666667   0.3849002   0.4639036  )
        32           O   tau(  32) = (   0.5000000   0.4811252   0.2002250  )
        33           Zn  tau(  33) = (   0.5000000   0.6735753   0.2640127  )
        34           Zn  tau(  34) = (   0.3333333   0.7698004   0.0003341  )
        35           O   tau(  35) = (   0.5000000   0.6735753   0.4639036  )
        36           O   tau(  36) = (   0.3333333   0.7698004   0.2002250  )

   Crystallographic axes

     site n.     atom                  positions (cryst. coord.)
         1           Zn  tau(   1) = (  0.2222222  0.1111111  0.5006336  )
         2           Zn  tau(   2) = (  0.1111111  0.2222222  0.0006336  )
         3           O   tau(   3) = (  0.2222222  0.1111111  0.8796764  )
         4           O   tau(   4) = (  0.1111111  0.2222222  0.3796764  )
         5           Zn  tau(   5) = (  0.2222222  0.4444444  0.5006336  )
         6           Zn  tau(   6) = (  0.1111111  0.5555556  0.0006336  )
         7           O   tau(   7) = (  0.2222222  0.4444444  0.8796764  )
         8           O   tau(   8) = (  0.1111111  0.5555556  0.3796764  )
         9           Zn  tau(   9) = (  0.2222222  0.7777778  0.5006336  )
        10           Zn  tau(  10) = (  0.1111111  0.8888889  0.0006336  )
        11           O   tau(  11) = (  0.2222222  0.7777778  0.8796764  )
        12           O   tau(  12) = (  0.1111111  0.8888889  0.3796764  )
        13           Zn  tau(  13) = (  0.5555556  0.1111111  0.5006336  )
        14           Zn  tau(  14) = (  0.4444444  0.2222222  0.0006336  )
        15           O   tau(  15) = (  0.5555556  0.1111111  0.8796764  )
        16           O   tau(  16) = (  0.4444444  0.2222222  0.3796764  )
        17           Zn  tau(  17) = (  0.5555556  0.4444444  0.5006336  )
        18           Zn  tau(  18) = (  0.4444444  0.5555556  0.0006336  )
        19           O   tau(  19) = (  0.5555556  0.4444444  0.8796764  )
        20           O   tau(  20) = (  0.4444444  0.5555556  0.3796764  )
        21           Zn  tau(  21) = (  0.5555556  0.7777778  0.5006336  )
        22           Zn  tau(  22) = (  0.4444444  0.8888889  0.0006336  )
        23           O   tau(  23) = (  0.5555556  0.7777778  0.8796764  )
        24           O   tau(  24) = (  0.4444444  0.8888889  0.3796764  )
        25           Zn  tau(  25) = (  0.8888889  0.1111111  0.5006336  )
        26           Zn  tau(  26) = (  0.7777778  0.2222222  0.0006336  )
        27           O   tau(  27) = (  0.8888889  0.1111111  0.8796764  )
        28           O   tau(  28) = (  0.7777778  0.2222222  0.3796764  )
        29           Zn  tau(  29) = (  0.8888889  0.4444444  0.5006336  )
        30           Zn  tau(  30) = (  0.7777778  0.5555556  0.0006336  )
        31           O   tau(  31) = (  0.8888889  0.4444444  0.8796764  )
        32           O   tau(  32) = (  0.7777778  0.5555556  0.3796764  )
        33           Zn  tau(  33) = (  0.8888889  0.7777778  0.5006336  )
        34           Zn  tau(  34) = (  0.7777778  0.8888889  0.0006336  )
        35           O   tau(  35) = (  0.8888889  0.7777778  0.8796764  )
        36           O   tau(  36) = (  0.7777778  0.8888889  0.3796764  )

     number of k points=    34
                       cart. coord. in units 2pi/alat
        k(    1) = (   0.0000000   0.0000000   0.0000000), wk =   0.0092593
        k(    2) = (   0.0000000   0.0000000   0.3160414), wk =   0.0185185
        k(    3) = (   0.0000000   0.0000000   0.6320828), wk =   0.0185185
        k(    4) = (   0.0000000   0.0000000  -0.9481242), wk =   0.0092593
        k(    5) = (   0.0000000   0.1924501   0.0000000), wk =   0.0555556
        k(    6) = (   0.0000000   0.1924501   0.3160414), wk =   0.0555556
        k(    7) = (   0.0000000   0.1924501   0.6320828), wk =   0.0555556
        k(    8) = (   0.0000000   0.1924501  -0.9481242), wk =   0.0555556
        k(    9) = (   0.0000000   0.3849002   0.0000000), wk =   0.0555556
        k(   10) = (   0.0000000   0.3849002   0.3160414), wk =   0.0555556
        k(   11) = (   0.0000000   0.3849002   0.6320828), wk =   0.0555556
        k(   12) = (   0.0000000   0.3849002  -0.9481242), wk =   0.0555556
        k(   13) = (   0.0000000  -0.5773503   0.0000000), wk =   0.0277778
        k(   14) = (   0.0000000  -0.5773503   0.3160414), wk =   0.0555556
        k(   15) = (   0.0000000  -0.5773503   0.6320828), wk =   0.0555556
        k(   16) = (   0.0000000  -0.5773503  -0.9481242), wk =   0.0277778
        k(   17) = (   0.1666667   0.2886751   0.0000000), wk =   0.0555556
        k(   18) = (   0.1666667   0.2886751   0.3160414), wk =   0.1111111
        k(   19) = (   0.1666667   0.2886751   0.6320828), wk =   0.1111111
        k(   20) = (   0.1666667   0.2886751  -0.9481242), wk =   0.0555556
        k(   21) = (   0.1666667   0.4811252   0.0000000), wk =   0.1111111
        k(   22) = (   0.1666667   0.4811252   0.3160414), wk =   0.1111111
        k(   23) = (   0.1666667   0.4811252   0.6320828), wk =   0.1111111
        k(   24) = (   0.1666667   0.4811252  -0.9481242), wk =   0.1111111
        k(   25) = (   0.3333333   0.5773503   0.0000000), wk =   0.0185185
        k(   26) = (   0.3333333   0.5773503   0.3160414), wk =   0.0370370
        k(   27) = (   0.3333333   0.5773503   0.6320828), wk =   0.0370370
        k(   28) = (   0.3333333   0.5773503  -0.9481242), wk =   0.0185185
        k(   29) = (   0.0000000  -0.1924501   0.3160414), wk =   0.0555556
        k(   30) = (   0.0000000  -0.1924501   0.6320828), wk =   0.0555556
        k(   31) = (   0.0000000  -0.3849002   0.3160414), wk =   0.0555556
        k(   32) = (   0.0000000  -0.3849002   0.6320828), wk =   0.0555556
        k(   33) = (  -0.1666667  -0.4811252   0.3160414), wk =   0.1111111
        k(   34) = (  -0.1666667  -0.4811252   0.6320828), wk =   0.1111111

                       cryst. coord.
        k(    1) = (   0.0000000   0.0000000   0.0000000), wk =   0.0092593
        k(    2) = (   0.0000000   0.0000000   0.1666667), wk =   0.0185185
        k(    3) = (   0.0000000   0.0000000   0.3333333), wk =   0.0185185
        k(    4) = (   0.0000000   0.0000000  -0.5000000), wk =   0.0092593
        k(    5) = (   0.0000000   0.1666667   0.0000000), wk =   0.0555556
        k(    6) = (   0.0000000   0.1666667   0.1666667), wk =   0.0555556
        k(    7) = (   0.0000000   0.1666667   0.3333333), wk =   0.0555556
        k(    8) = (   0.0000000   0.1666667  -0.5000000), wk =   0.0555556
        k(    9) = (   0.0000000   0.3333333   0.0000000), wk =   0.0555556
        k(   10) = (   0.0000000   0.3333333   0.1666667), wk =   0.0555556
        k(   11) = (   0.0000000   0.3333333   0.3333333), wk =   0.0555556
        k(   12) = (   0.0000000   0.3333333  -0.5000000), wk =   0.0555556
        k(   13) = (   0.0000000  -0.5000000   0.0000000), wk =   0.0277778
        k(   14) = (   0.0000000  -0.5000000   0.1666667), wk =   0.0555556
        k(   15) = (   0.0000000  -0.5000000   0.3333333), wk =   0.0555556
        k(   16) = (   0.0000000  -0.5000000  -0.5000000), wk =   0.0277778
        k(   17) = (   0.1666667   0.1666667   0.0000000), wk =   0.0555556
        k(   18) = (   0.1666667   0.1666667   0.1666667), wk =   0.1111111
        k(   19) = (   0.1666667   0.1666667   0.3333333), wk =   0.1111111
        k(   20) = (   0.1666667   0.1666667  -0.5000000), wk =   0.0555556
        k(   21) = (   0.1666667   0.3333333   0.0000000), wk =   0.1111111
        k(   22) = (   0.1666667   0.3333333   0.1666667), wk =   0.1111111
        k(   23) = (   0.1666667   0.3333333   0.3333333), wk =   0.1111111
        k(   24) = (   0.1666667   0.3333333  -0.5000000), wk =   0.1111111
        k(   25) = (   0.3333333   0.3333333   0.0000000), wk =   0.0185185
        k(   26) = (   0.3333333   0.3333333   0.1666667), wk =   0.0370370
        k(   27) = (   0.3333333   0.3333333   0.3333333), wk =   0.0370370
        k(   28) = (   0.3333333   0.3333333  -0.5000000), wk =   0.0185185
        k(   29) = (   0.0000000  -0.1666667   0.1666667), wk =   0.0555556
        k(   30) = (   0.0000000  -0.1666667   0.3333333), wk =   0.0555556
        k(   31) = (   0.0000000  -0.3333333   0.1666667), wk =   0.0555556
        k(   32) = (   0.0000000  -0.3333333   0.3333333), wk =   0.0555556
        k(   33) = (  -0.1666667  -0.3333333   0.1666667), wk =   0.1111111
        k(   34) = (  -0.1666667  -0.3333333   0.3333333), wk =   0.1111111

     Dense  grid:   326573 G-vectors     FFT dimensions: ( 120, 120,  60)

     Smooth grid:   115361 G-vectors     FFT dimensions: (  80,  80,  45)

     Dynamical RAM for                 wfc:      35.66 MB

     Dynamical RAM for     wfc (w. buffer):     213.95 MB

     Dynamical RAM for           str. fact:       9.97 MB

     Dynamical RAM for           local pot:       0.00 MB

     Dynamical RAM for          nlocal pot:     103.01 MB

     Dynamical RAM for                qrad:       3.21 MB

     Dynamical RAM for          rho,v,vnew:      34.72 MB

     Dynamical RAM for               rhoin:      11.57 MB

     Dynamical RAM for            rho*nmix:      79.73 MB

     Dynamical RAM for           G-vectors:      19.57 MB

     Dynamical RAM for          h,s,v(r/c):       4.81 MB

     Dynamical RAM for          <psi|beta>:       1.16 MB

     Dynamical RAM for                 psi:      71.32 MB

     Dynamical RAM for                hpsi:      71.32 MB

     Dynamical RAM for                spsi:      71.32 MB

     Dynamical RAM for      wfcinit/wfcrot:     104.27 MB

     Dynamical RAM for           addusdens:     131.43 MB

     Dynamical RAM for          addusforce:     150.81 MB

     Estimated static dynamical RAM per process >     443.91 MB

     Estimated max dynamical RAM per process >     743.54 MB

     Estimated total dynamical RAM >      21.06 GB

     Check: negative core charge=   -0.000002

     Initial potential from superposition of free atoms

     starting charge     323.9329, renormalised to     324.0000
     Starting wfcs are  234 randomized atomic wfcs

     total cpu time spent up to now is       27.1 secs

     Self-consistent Calculation

     iteration #  1     ecut=    50.00 Ry     beta= 0.30
     Davidson diagonalization with overlap

---- Real-time Memory Report at c_bands before calling an iterative solver
           541 MiB given to the printing process from OS
             0 MiB allocation reported by mallinfo(arena+hblkhd)
        106793 MiB available memory on the node where the printing process lives
------------------
     ethr =  1.00E-02,  avg # of iterations =  2.0

     total cpu time spent up to now is       65.7 secs

     total energy              =   -3252.76192326 Ry
     estimated scf accuracy    <       6.06995117 Ry

     iteration #  2     ecut=    50.00 Ry     beta= 0.30
     Davidson diagonalization with overlap

---- Real-time Memory Report at c_bands before calling an iterative solver
           701 MiB given to the printing process from OS
             0 MiB allocation reported by mallinfo(arena+hblkhd)
        103137 MiB available memory on the node where the printing process lives
------------------
     ethr =  1.87E-03,  avg # of iterations =  2.0

     total cpu time spent up to now is      109.9 secs

     total energy              =   -3253.20420779 Ry
     estimated scf accuracy    <       1.14617794 Ry

     iteration #  3     ecut=    50.00 Ry     beta= 0.30
     Davidson diagonalization with overlap

---- Real-time Memory Report at c_bands before calling an iterative solver
           752 MiB given to the printing process from OS
             0 MiB allocation reported by mallinfo(arena+hblkhd)
        102978 MiB available memory on the node where the printing process lives
------------------
     ethr =  3.54E-04,  avg # of iterations =  7.8

     total cpu time spent up to now is      194.9 secs

     total energy              =   -3253.85820787 Ry
     estimated scf accuracy    <       0.78081200 Ry

     iteration #  4     ecut=    50.00 Ry     beta= 0.30
     Davidson diagonalization with overlap

---- Real-time Memory Report at c_bands before calling an iterative solver
           755 MiB given to the printing process from OS
             0 MiB allocation reported by mallinfo(arena+hblkhd)
        103522 MiB available memory on the node where the printing process lives
------------------
     ethr =  2.41E-04,  avg # of iterations =  2.0

     total cpu time spent up to now is      233.8 secs

     total energy              =   -3253.91017340 Ry
     estimated scf accuracy    <       0.16187298 Ry

     iteration #  5     ecut=    50.00 Ry     beta= 0.30
     Davidson diagonalization with overlap

---- Real-time Memory Report at c_bands before calling an iterative solver
           758 MiB given to the printing process from OS
             0 MiB allocation reported by mallinfo(arena+hblkhd)
        102927 MiB available memory on the node where the printing process lives
------------------
     ethr =  5.00E-05,  avg # of iterations = 12.4

     total cpu time spent up to now is      360.6 secs

     total energy              =   -3254.46020374 Ry
     estimated scf accuracy    <       4.08120230 Ry

     iteration #  6     ecut=    50.00 Ry     beta= 0.30
     Davidson diagonalization with overlap

---- Real-time Memory Report at c_bands before calling an iterative solver
           762 MiB given to the printing process from OS
             0 MiB allocation reported by mallinfo(arena+hblkhd)
        103946 MiB available memory on the node where the printing process lives
------------------
     ethr =  5.00E-05,  avg # of iterations =  5.8

     total cpu time spent up to now is      426.1 secs

     total energy              =   -3253.48038113 Ry
     estimated scf accuracy    <       2.05310245 Ry

     iteration #  7     ecut=    50.00 Ry     beta= 0.30
     Davidson diagonalization with overlap

---- Real-time Memory Report at c_bands before calling an iterative solver
           765 MiB given to the printing process from OS
             0 MiB allocation reported by mallinfo(arena+hblkhd)
        103167 MiB available memory on the node where the printing process lives
------------------
     ethr =  5.00E-05,  avg # of iterations = 10.3

     total cpu time spent up to now is      538.2 secs

     total energy              =   -3254.00786505 Ry
     estimated scf accuracy    <       0.03955297 Ry

     iteration #  8     ecut=    50.00 Ry     beta= 0.30
     Davidson diagonalization with overlap

---- Real-time Memory Report at c_bands before calling an iterative solver
           769 MiB given to the printing process from OS
             0 MiB allocation reported by mallinfo(arena+hblkhd)
        103305 MiB available memory on the node where the printing process lives
------------------
     ethr =  1.22E-05,  avg # of iterations =  3.9

     total cpu time spent up to now is      581.2 secs

     total energy              =   -3253.99196382 Ry
     estimated scf accuracy    <       0.05228372 Ry

     iteration #  9     ecut=    50.00 Ry     beta= 0.30
     Davidson diagonalization with overlap

---- Real-time Memory Report at c_bands before calling an iterative solver
           773 MiB given to the printing process from OS
             0 MiB allocation reported by mallinfo(arena+hblkhd)
        102691 MiB available memory on the node where the printing process lives
------------------
     ethr =  1.22E-05,  avg # of iterations =  2.0

     total cpu time spent up to now is      619.8 secs

     total energy              =   -3253.98447191 Ry
     estimated scf accuracy    <       0.02044909 Ry

     iteration # 10     ecut=    50.00 Ry     beta= 0.30
     Davidson diagonalization with overlap

---- Real-time Memory Report at c_bands before calling an iterative solver
           776 MiB given to the printing process from OS
             0 MiB allocation reported by mallinfo(arena+hblkhd)
        102683 MiB available memory on the node where the printing process lives
------------------
     ethr =  6.31E-06,  avg # of iterations =  5.4

     total cpu time spent up to now is      679.5 secs

     total energy              =   -3253.99178957 Ry
     estimated scf accuracy    <       0.00004405 Ry

     iteration # 11     ecut=    50.00 Ry     beta= 0.30
     Davidson diagonalization with overlap

---- Real-time Memory Report at c_bands before calling an iterative solver
           780 MiB given to the printing process from OS
             0 MiB allocation reported by mallinfo(arena+hblkhd)
        103454 MiB available memory on the node where the printing process lives
------------------
     c_bands:  1 eigenvalues not converged
     ethr =  1.36E-08,  avg # of iterations = 12.7

     total cpu time spent up to now is      824.1 secs

     total energy              =   -3253.99286980 Ry
     estimated scf accuracy    <       0.00001049 Ry

     iteration # 12     ecut=    50.00 Ry     beta= 0.30
     Davidson diagonalization with overlap

---- Real-time Memory Report at c_bands before calling an iterative solver
           780 MiB given to the printing process from OS
             0 MiB allocation reported by mallinfo(arena+hblkhd)
        103728 MiB available memory on the node where the printing process lives
------------------
     ethr =  3.24E-09,  avg # of iterations = 10.8

     total cpu time spent up to now is      937.5 secs

     total energy              =   -3253.99287161 Ry
     estimated scf accuracy    <       0.00008285 Ry

     iteration # 13     ecut=    50.00 Ry     beta= 0.30
     Davidson diagonalization with overlap

---- Real-time Memory Report at c_bands before calling an iterative solver
           780 MiB given to the printing process from OS
             0 MiB allocation reported by mallinfo(arena+hblkhd)
        103589 MiB available memory on the node where the printing process lives
------------------
     ethr =  3.24E-09,  avg # of iterations =  3.1

     total cpu time spent up to now is      984.3 secs

     total energy              =   -3253.99285260 Ry
     estimated scf accuracy    <       0.00004461 Ry

     iteration # 14     ecut=    50.00 Ry     beta= 0.30
     Davidson diagonalization with overlap

---- Real-time Memory Report at c_bands before calling an iterative solver
           780 MiB given to the printing process from OS
             0 MiB allocation reported by mallinfo(arena+hblkhd)
        103050 MiB available memory on the node where the printing process lives
------------------
     ethr =  3.24E-09,  avg # of iterations =  8.6

     total cpu time spent up to now is     1080.6 secs

     total energy              =   -3253.99286751 Ry
     estimated scf accuracy    <       0.00000204 Ry

     iteration # 15     ecut=    50.00 Ry     beta= 0.30
     Davidson diagonalization with overlap

---- Real-time Memory Report at c_bands before calling an iterative solver
           780 MiB given to the printing process from OS
             0 MiB allocation reported by mallinfo(arena+hblkhd)
        103823 MiB available memory on the node where the printing process lives
------------------
     ethr =  6.29E-10,  avg # of iterations =  4.0

     total cpu time spent up to now is     1128.7 secs

     total energy              =   -3253.99286785 Ry
     estimated scf accuracy    <       0.00000025 Ry

     iteration # 16     ecut=    50.00 Ry     beta= 0.30
     Davidson diagonalization with overlap

---- Real-time Memory Report at c_bands before calling an iterative solver
           780 MiB given to the printing process from OS
             0 MiB allocation reported by mallinfo(arena+hblkhd)
        103611 MiB available memory on the node where the printing process lives
------------------
     ethr =  7.81E-11,  avg # of iterations =  6.1

     total cpu time spent up to now is     1199.0 secs

     total energy              =   -3253.99286800 Ry
     estimated scf accuracy    <       0.00000002 Ry

     iteration # 17     ecut=    50.00 Ry     beta= 0.30
     Davidson diagonalization with overlap

---- Real-time Memory Report at c_bands before calling an iterative solver
           780 MiB given to the printing process from OS
             0 MiB allocation reported by mallinfo(arena+hblkhd)
        103090 MiB available memory on the node where the printing process lives
------------------
     ethr =  6.20E-12,  avg # of iterations =  6.3

     total cpu time spent up to now is     1265.8 secs

     End of self-consistent calculation

          k = 0.0000 0.0000 0.0000 ( 14427 PWs)   bands (ev):

    -9.4663  -8.7986  -8.7986  -8.7986  -8.7986  -8.7986  -8.7986  -8.3915
    -8.2579  -8.2579  -8.2578  -8.2578  -8.1776  -8.1776  -8.1776  -8.1776
    -8.1776  -8.1776   2.9419   2.9419   2.9419   2.9419   2.9419   2.9419
     3.1085   3.3665   3.3665   3.4064   3.4064   3.4064   3.4064   3.4064
     3.4064   3.5071   3.5071   3.5694   3.7753   3.7753   3.7774   3.7774
     3.7774   3.7774   3.7774   3.7774   3.7886   3.7886   3.7886   3.7886
     3.8908   3.8908   3.8908   3.8908   3.8908   3.8908   4.0201   4.0201
     4.2661   4.2661   4.2661   4.2661   4.2661   4.2661   4.3144   4.3145
     4.3145   4.3145   4.3145   4.3145   4.6259   4.6259   4.6259   4.6259
     5.1069   5.1069   5.1069   5.1069   5.1069   5.1069   5.1532   5.1532
     5.2815   5.2815   5.3168   5.3168   5.3168   5.3168   5.3878   5.3878
     5.3941   5.3941   5.3941   5.3941   5.3941   5.3942   5.6052   5.6052
     5.6052   5.6053   5.6053   5.6053   5.6172   5.6172   5.6699   5.6699
     5.6699   5.6699   5.6699   5.6699   5.9602   5.9602   5.9644   6.1733
     6.1733   6.1733   6.1733   6.1733   6.1733   6.5202   6.5202   6.5202
     6.5202   6.6584   6.6584   6.6584   6.6584   6.6584   6.6584   7.8164
     7.8164   7.8164   7.8164   7.8164   7.8164   7.8435   7.8435   7.8435
     7.8435   7.8435   7.8435   7.9559   7.9559   7.9559   7.9559   8.1373
     8.1373   9.1900   9.1900   9.2481   9.2481   9.2481   9.2481   9.2481
     9.2481   9.5052   9.5052   9.5052   9.5052   9.5052   9.5052  10.1635
    10.2676  10.2676

     occupation numbers 
     1.0000   1.0000   1.0000   1.0000   1.0000   1.0000   1.0000   1.0000
     1.0000   1.0000   1.0000   1.0000   1.0000   1.0000   1.0000   1.0000
     1.0000   1.0000   1.0000   1.0000   1.0000   1.0000   1.0000   1.0000
     1.0000   1.0000   1.0000   1.0000   1.0000   1.0000   1.0000   1.0000
     1.0000   1.0000   1.0000   1.0000   1.0000   1.0000   1.0000   1.0000
     1.0000   1.0000   1.0000   1.0000   1.0000   1.0000   1.0000   1.0000
     1.0000   1.0000   1.0000   1.0000   1.0000   1.0000   1.0000   1.0000
     1.0000   1.0000   1.0000   1.0000   1.0000   1.0000   1.0000   1.0000
     1.0000   1.0000   1.0000   1.0000   1.0000   1.0000   1.0000   1.0000
     1.0000   1.0000   1.0000   1.0000   1.0000   1.0000   1.0000   1.0000
     1.0000   1.0000   1.0000   1.0000   1.0000   1.0000   1.0000   1.0000
     1.0000   1.0000   1.0000   1.0000   1.0000   1.0000   1.0000   1.0000
     1.0000   1.0000   1.0000   1.0000   1.0000   1.0000   1.0000   1.0000
     1.0000   1.0000   1.0000   1.0000   1.0000   1.0000   1.0000   1.0000
     1.0000   1.0000   1.0000   1.0000   1.0000   1.0000   1.0000   1.0000
     1.0000   1.0000   1.0000   1.0000   1.0000   1.0000   1.0000   1.0000
     1.0000   1.0000   1.0000   1.0000   1.0000   1.0000   1.0000   1.0000
     1.0000   1.0000   1.0000   1.0000   1.0000   1.0000   1.0000   1.0000
     1.0000   1.0000   1.0000   1.0000   1.0000   1.0000   1.0000   1.0000
     1.0000   1.0000   1.0000   1.0000   1.0000   1.0000   1.0000   1.0000
     1.0000   1.0000

          k = 0.0000 0.0000 0.3160 ( 14421 PWs)   bands (ev):

    -9.3991  -8.7552  -8.7552  -8.7552  -8.7552  -8.7552  -8.7551  -8.4685
    -8.2522  -8.2522  -8.2522  -8.2522  -8.2165  -8.2165  -8.2165  -8.2165
    -8.2165  -8.2164   2.8860   2.8860   2.8860   2.8861   2.8861   2.8861
     3.0415   3.2192   3.2192   3.2192   3.2192   3.2192   3.2192   3.3929
     3.3929   3.4771   3.5151   3.5151   3.6169   3.6169   3.6169   3.6169
     3.7462   3.7462   3.8030   3.8030   3.8030   3.8030   3.8030   3.8030
     3.8787   3.8787   3.8787   3.8787   3.8787   3.8787   3.9419   3.9419
     4.1650   4.1650   4.1650   4.1650   4.1650   4.1650   4.2640   4.2640
     4.2640   4.2640   4.2640   4.2640   4.5385   4.5385   4.5385   4.5385
     5.1769   5.1769   5.1880   5.1880   5.1880   5.1880   5.1880   5.1880
     5.3136   5.3136   5.3746   5.3746   5.4113   5.4113   5.4113   5.4113
     5.4113   5.4113   5.5405   5.5405   5.5405   5.5405   5.6058   5.6058
     5.6469   5.6469   5.6469   5.6469   5.6469   5.6469   5.7162   5.7162
     5.7162   5.7162   5.7162   5.7162   6.1146   6.1146   6.2874   6.3386
     6.3386   6.3386   6.3386   6.3386   6.3386   6.4600   6.4600   6.4600
     6.4600   6.8291   6.8291   6.8291   6.8291   6.8291   6.8291   7.7383
     7.7383   7.7383   7.7383   7.7383   7.7383   7.9708   7.9708   7.9708
     7.9708   7.9708   7.9708   7.9811   7.9811   8.1506   8.1506   8.1506
     8.1506   9.2627   9.2627   9.2880   9.2880   9.2880   9.2881   9.2881
     9.2881   9.4028   9.4029   9.4029   9.4029   9.4029   9.4029   9.6497
    10.1968  10.1968

     occupation numbers 
     1.0000   1.0000   1.0000   1.0000   1.0000   1.0000   1.0000   1.0000
     1.0000   1.0000   1.0000   1.0000   1.0000   1.0000   1.0000   1.0000
     1.0000   1.0000   1.0000   1.0000   1.0000   1.0000   1.0000   1.0000
     1.0000   1.0000   1.0000   1.0000   1.0000   1.0000   1.0000   1.0000
     1.0000   1.0000   1.0000   1.0000   1.0000   1.0000   1.0000   1.0000
     1.0000   1.0000   1.0000   1.0000   1.0000   1.0000   1.0000   1.0000
     1.0000   1.0000   1.0000   1.0000   1.0000   1.0000   1.0000   1.0000
     1.0000   1.0000   1.0000   1.0000   1.0000   1.0000   1.0000   1.0000
     1.0000   1.0000   1.0000   1.0000   1.0000   1.0000   1.0000   1.0000
     1.0000   1.0000   1.0000   1.0000   1.0000   1.0000   1.0000   1.0000
     1.0000   1.0000   1.0000   1.0000   1.0000   1.0000   1.0000   1.0000
     1.0000   1.0000   1.0000   1.0000   1.0000   1.0000   1.0000   1.0000
     1.0000   1.0000   1.0000   1.0000   1.0000   1.0000   1.0000   1.0000
     1.0000   1.0000   1.0000   1.0000   1.0000   1.0000   1.0000   1.0000
     1.0000   1.0000   1.0000   1.0000   1.0000   1.0000   1.0000   1.0000
     1.0000   1.0000   1.0000   1.0000   1.0000   1.0000   1.0000   1.0000
     1.0000   1.0000   1.0000   1.0000   1.0000   1.0000   1.0000   1.0000
     1.0000   1.0000   1.0000   1.0000   1.0000   1.0000   1.0000   1.0000
     1.0000   1.0000   1.0000   1.0000   1.0000   1.0000   1.0000   1.0000
     1.0000   1.0000   1.0000   1.0000   1.0000   1.0000   1.0000   1.0000
     1.0000   1.0000

          k = 0.0000 0.0000 0.6321 ( 14427 PWs)   bands (ev):

    -9.2121  -8.6751  -8.6373  -8.6373  -8.6373  -8.6372  -8.6372  -8.6372
    -8.3253  -8.3253  -8.3253  -8.3253  -8.3253  -8.3252  -8.2408  -8.2408
    -8.2408  -8.2408   2.7766   2.7766   2.7766   2.7766   2.7766   2.7766
     2.9140   2.9140   2.9140   2.9140   2.9140   2.9140   2.9776   3.2620
     3.3217   3.3217   3.3217   3.3217   3.4725   3.4725   3.5439   3.5439
     3.6759   3.6759   3.7731   3.7731   3.8776   3.8776   3.8776   3.8776
     3.8776   3.8776   3.8784   3.8784   3.8784   3.8784   3.8784   3.8784
     4.0262   4.0262   4.0262   4.0262   4.0262   4.0262   4.1403   4.1403
     4.1403   4.1403   4.1403   4.1403   4.4673   4.4673   4.4673   4.4673
     5.2276   5.2276   5.3376   5.3376   5.3541   5.3541   5.3541   5.3541
     5.3541   5.3541   5.3947   5.3947   5.4579   5.4579   5.4579   5.4579
     5.4579   5.4579   5.5651   5.5651   5.5908   5.5908   5.5908   5.5908
     5.5908   5.5908   5.6753   5.6753   5.6753   5.6753   5.6753   5.6753
     5.8663   5.8663   5.8663   5.8663   6.3249   6.3249   6.3249   6.3249
     6.5141   6.5141   6.6925   6.6925   6.6925   6.6925   6.6925   6.6925
     7.0546   7.1314   7.1314   7.1314   7.1314   7.1314   7.1314   7.5721
     7.5721   7.8855   7.8855   7.8855   7.8855   7.8855   7.8855   8.3001
     8.3001   8.3001   8.3001   8.3001   8.3001   8.5350   8.5350   8.5350
     8.5350   8.8413   9.1195   9.1195   9.1195   9.1195   9.1195   9.1195
     9.1593   9.1593   9.1593   9.1593   9.1593   9.1593   9.4614   9.4614
    10.0018  10.0018

     occupation numbers 
     1.0000   1.0000   1.0000   1.0000   1.0000   1.0000   1.0000   1.0000
     1.0000   1.0000   1.0000   1.0000   1.0000   1.0000   1.0000   1.0000
     1.0000   1.0000   1.0000   1.0000   1.0000   1.0000   1.0000   1.0000
     1.0000   1.0000   1.0000   1.0000   1.0000   1.0000   1.0000   1.0000
     1.0000   1.0000   1.0000   1.0000   1.0000   1.0000   1.0000   1.0000
     1.0000   1.0000   1.0000   1.0000   1.0000   1.0000   1.0000   1.0000
     1.0000   1.0000   1.0000   1.0000   1.0000   1.0000   1.0000   1.0000
     1.0000   1.0000   1.0000   1.0000   1.0000   1.0000   1.0000   1.0000
     1.0000   1.0000   1.0000   1.0000   1.0000   1.0000   1.0000   1.0000
     1.0000   1.0000   1.0000   1.0000   1.0000   1.0000   1.0000   1.0000
     1.0000   1.0000   1.0000   1.0000   1.0000   1.0000   1.0000   1.0000
     1.0000   1.0000   1.0000   1.0000   1.0000   1.0000   1.0000   1.0000
     1.0000   1.0000   1.0000   1.0000   1.0000   1.0000   1.0000   1.0000
     1.0000   1.0000   1.0000   1.0000   1.0000   1.0000   1.0000   1.0000
     1.0000   1.0000   1.0000   1.0000   1.0000   1.0000   1.0000   1.0000
     1.0000   1.0000   1.0000   1.0000   1.0000   1.0000   1.0000   1.0000
     1.0000   1.0000   1.0000   1.0000   1.0000   1.0000   1.0000   1.0000
     1.0000   1.0000   1.0000   1.0000   1.0000   1.0000   1.0000   1.0000
     1.0000   1.0000   1.0000   1.0000   1.0000   1.0000   1.0000   1.0000
     1.0000   1.0000   1.0000   1.0000   1.0000   1.0000   1.0000   1.0000
     1.0000   1.0000

          k = 0.0000 0.0000-0.9481 ( 14420 PWs)   bands (ev):

    -8.9485  -8.9485  -8.4790  -8.4790  -8.4790  -8.4790  -8.4790  -8.4790
    -8.4790  -8.4790  -8.4790  -8.4790  -8.4790  -8.4790  -8.2350  -8.2350
    -8.2350  -8.2350   2.7539   2.7539   2.7539   2.7539   2.7539   2.7539
     2.7539   2.7539   2.7539   2.7539   2.7539   2.7539   3.0571   3.0571
     3.1932   3.1932   3.1932   3.1932   3.5997   3.5997   3.5997   3.5997
     3.6031   3.6031   3.6031   3.6031   3.9260   3.9260   3.9260   3.9260
     3.9260   3.9260   3.9260   3.9260   3.9260   3.9260   3.9260   3.9260
     3.9977   3.9977   3.9977   3.9977   3.9977   3.9977   3.9977   3.9977
     3.9977   3.9977   3.9977   3.9977   4.4471   4.4471   4.4471   4.4471
     5.2854   5.2854   5.2854   5.2854   5.4895   5.4895   5.4895   5.4895
     5.5222   5.5222   5.5222   5.5222   5.5222   5.5222   5.5222   5.5222
     5.5222   5.5222   5.5222   5.5222   5.5308   5.5308   5.5308   5.5308
     5.5308   5.5308   5.5308   5.5308   5.5308   5.5308   5.5308   5.5308
     6.0686   6.0686   6.0686   6.0686   6.1895   6.1895   6.1895   6.1895
     6.9762   6.9762   6.9762   6.9762   6.9762   6.9762   6.9762   6.9762
     6.9762   6.9762   6.9762   6.9762   7.0397   7.0397   7.0397   7.0397
     7.9621   7.9621   8.6139   8.6139   8.6139   8.6139   8.6139   8.6139
     8.6139   8.6139   8.6139   8.6139   8.6139   8.6139   8.7204   8.7204
     8.7204   8.7204   8.7204   8.7204   8.7204   8.7204   8.7204   8.7204
     8.7204   8.7205   8.7275   8.7275   8.7275   8.7275   9.7326   9.7326
     9.7326   9.7326

     occupation numbers 
     1.0000   1.0000   1.0000   1.0000   1.0000   1.0000   1.0000   1.0000
     1.0000   1.0000   1.0000   1.0000   1.0000   1.0000   1.0000   1.0000
     1.0000   1.0000   1.0000   1.0000   1.0000   1.0000   1.0000   1.0000
     1.0000   1.0000   1.0000   1.0000   1.0000   1.0000   1.0000   1.0000
     1.0000   1.0000   1.0000   1.0000   1.0000   1.0000   1.0000   1.0000
     1.0000   1.0000   1.0000   1.0000   1.0000   1.0000   1.0000   1.0000
     1.0000   1.0000   1.0000   1.0000   1.0000   1.0000   1.0000   1.0000
     1.0000   1.0000   1.0000   1.0000   1.0000   1.0000   1.0000   1.0000
     1.0000   1.0000   1.0000   1.0000   1.0000   1.0000   1.0000   1.0000
     1.0000   1.0000   1.0000   1.0000   1.0000   1.0000   1.0000   1.0000
     1.0000   1.0000   1.0000   1.0000   1.0000   1.0000   1.0000   1.0000
     1.0000   1.0000   1.0000   1.0000   1.0000   1.0000   1.0000   1.0000
     1.0000   1.0000   1.0000   1.0000   1.0000   1.0000   1.0000   1.0000
     1.0000   1.0000   1.0000   1.0000   1.0000   1.0000   1.0000   1.0000
     1.0000   1.0000   1.0000   1.0000   1.0000   1.0000   1.0000   1.0000
     1.0000   1.0000   1.0000   1.0000   1.0000   1.0000   1.0000   1.0000
     1.0000   1.0000   1.0000   1.0000   1.0000   1.0000   1.0000   1.0000
     1.0000   1.0000   1.0000   1.0000   1.0000   1.0000   1.0000   1.0000
     1.0000   1.0000   1.0000   1.0000   1.0000   1.0000   1.0000   1.0000
     1.0000   1.0000   1.0000   1.0000   1.0000   1.0000   1.0000   1.0000
     1.0000   1.0000

          k = 0.0000 0.1925 0.0000 ( 14436 PWs)   bands (ev):

    -9.4425  -8.9622  -8.8677  -8.8677  -8.7107  -8.7107  -8.6500  -8.3814
    -8.3272  -8.3272  -8.2132  -8.2069  -8.2069  -8.1906  -8.1906  -8.1649
    -8.1649  -8.1605   2.9332   2.9530   2.9530   2.9850   2.9850   3.0040
     3.1389   3.3126   3.3487   3.3487   3.3736   3.3736   3.4426   3.4426
     3.4712   3.4774   3.5196   3.5887   3.6840   3.6840   3.7305   3.7310
     3.7310   3.7686   3.7753   3.7753   3.7811   3.7932   3.8091   3.8308
     3.8308   3.8679   3.8679   3.9515   3.9515   3.9600   3.9600   3.9838
     4.0831   4.1736   4.1776   4.1776   4.2584   4.2584   4.3278   4.3278
     4.3553   4.3906   4.3906   4.4445   4.5640   4.5640   4.6712   4.6712
     5.0862   5.0881   5.0881   5.1520   5.1520   5.1750   5.1750   5.2188
     5.2666   5.2666   5.2700   5.2794   5.3356   5.3545   5.3545   5.4047
     5.4047   5.4450   5.4450   5.4629   5.4945   5.4945   5.6199   5.6253
     5.6258   5.6258   5.6313   5.6403   5.6403   5.6433   5.6591   5.6651
     5.6651   5.6767   5.6767   5.6800   5.9616   5.9733   5.9733   6.0528
     6.1071   6.1417   6.1417   6.1585   6.1585   6.4074   6.4074   6.5152
     6.5651   6.5651   6.6251   6.6251   6.8573   6.8573   7.0897   7.3804
     7.5721   7.5749   7.5749   7.6117   7.6117   7.6471   7.6471   7.8800
     7.8800   8.0432   8.0432   8.1501   8.1501   8.1533   8.2689   8.3349
     8.3349   8.9940   9.0628   9.1001   9.1001   9.1372   9.3504   9.3676
     9.3676   9.3687   9.3687   9.5088   9.5414   9.5414   9.6859  10.0302
    10.1377  10.2401

     occupation numbers 
     1.0000   1.0000   1.0000   1.0000   1.0000   1.0000   1.0000   1.0000
     1.0000   1.0000   1.0000   1.0000   1.0000   1.0000   1.0000   1.0000
     1.0000   1.0000   1.0000   1.0000   1.0000   1.0000   1.0000   1.0000
     1.0000   1.0000   1.0000   1.0000   1.0000   1.0000   1.0000   1.0000
     1.0000   1.0000   1.0000   1.0000   1.0000   1.0000   1.0000   1.0000
     1.0000   1.0000   1.0000   1.0000   1.0000   1.0000   1.0000   1.0000
     1.0000   1.0000   1.0000   1.0000   1.0000   1.0000   1.0000   1.0000
     1.0000   1.0000   1.0000   1.0000   1.0000   1.0000   1.0000   1.0000
     1.0000   1.0000   1.0000   1.0000   1.0000   1.0000   1.0000   1.0000
     1.0000   1.0000   1.0000   1.0000   1.0000   1.0000   1.0000   1.0000
     1.0000   1.0000   1.0000   1.0000   1.0000   1.0000   1.0000   1.0000
     1.0000   1.0000   1.0000   1.0000   1.0000   1.0000   1.0000   1.0000
     1.0000   1.0000   1.0000   1.0000   1.0000   1.0000   1.0000   1.0000
     1.0000   1.0000   1.0000   1.0000   1.0000   1.0000   1.0000   1.0000
     1.0000   1.0000   1.0000   1.0000   1.0000   1.0000   1.0000   1.0000
     1.0000   1.0000   1.0000   1.0000   1.0000   1.0000   1.0000   1.0000
     1.0000   1.0000   1.0000   1.0000   1.0000   1.0000   1.0000   1.0000
     1.0000   1.0000   1.0000   1.0000   1.0000   1.0000   1.0000   1.0000
     1.0000   1.0000   1.0000   1.0000   1.0000   1.0000   1.0000   1.0000
     1.0000   1.0000   1.0000   1.0000   1.0000   1.0000   1.0000   1.0000
     1.0000   1.0000

          k = 0.0000 0.1925 0.3160 ( 14434 PWs)   bands (ev):

    -9.3760  -8.9117  -8.8212  -8.8212  -8.6714  -8.6714  -8.6140  -8.4572
    -8.3137  -8.3137  -8.2623  -8.2339  -8.2339  -8.2093  -8.2093  -8.1980
    -8.1980  -8.1893   2.8696   2.8930   2.8930   2.9296   2.9296   2.9500
     3.0612   3.1501   3.2005   3.2005   3.2481   3.2481   3.2639   3.3430
     3.3430   3.4255   3.5282   3.5310   3.5310   3.5511   3.6666   3.6666
     3.7442   3.7506   3.7534   3.7534   3.7635   3.7891   3.8011   3.8011
     3.8397   3.8549   3.8549   3.9299   3.9299   3.9314   3.9314   3.9630
     4.0203   4.0928   4.0928   4.1313   4.2113   4.2113   4.2218   4.2218
     4.2596   4.3346   4.3346   4.3847   4.4933   4.4933   4.5477   4.5477
     5.1686   5.1710   5.1710   5.2074   5.2074   5.2174   5.2174   5.2734
     5.3038   5.3115   5.3586   5.3856   5.3856   5.3888   5.3888   5.4440
     5.4440   5.4739   5.5881   5.5881   5.6034   5.6034   5.6079   5.6127
     5.6375   5.6427   5.6427   5.6536   5.6536   5.6563   5.6996   5.7141
     5.7141   5.7464   5.7464   5.7585   6.1082   6.1373   6.1373   6.2298
     6.2298   6.2897   6.3569   6.3569   6.3857   6.3860   6.3860   6.5704
     6.5704   6.6845   6.7654   6.7654   6.9956   6.9956   7.2019   7.4169
     7.5389   7.5389   7.7145   7.7507   7.7507   7.8405   7.8405   7.8899
     7.8899   8.0518   8.0518   8.1073   8.1073   8.1479   8.2662   8.4203
     8.4203   9.0683   9.1366   9.1528   9.1528   9.2118   9.2431   9.2682
     9.2682   9.3827   9.3827   9.4451   9.4451   9.5060   9.5675   9.5897
    10.1223  10.1678

     occupation numbers 
     1.0000   1.0000   1.0000   1.0000   1.0000   1.0000   1.0000   1.0000
     1.0000   1.0000   1.0000   1.0000   1.0000   1.0000   1.0000   1.0000
     1.0000   1.0000   1.0000   1.0000   1.0000   1.0000   1.0000   1.0000
     1.0000   1.0000   1.0000   1.0000   1.0000   1.0000   1.0000   1.0000
     1.0000   1.0000   1.0000   1.0000   1.0000   1.0000   1.0000   1.0000
     1.0000   1.0000   1.0000   1.0000   1.0000   1.0000   1.0000   1.0000
     1.0000   1.0000   1.0000   1.0000   1.0000   1.0000   1.0000   1.0000
     1.0000   1.0000   1.0000   1.0000   1.0000   1.0000   1.0000   1.0000
     1.0000   1.0000   1.0000   1.0000   1.0000   1.0000   1.0000   1.0000
     1.0000   1.0000   1.0000   1.0000   1.0000   1.0000   1.0000   1.0000
     1.0000   1.0000   1.0000   1.0000   1.0000   1.0000   1.0000   1.0000
     1.0000   1.0000   1.0000   1.0000   1.0000   1.0000   1.0000   1.0000
     1.0000   1.0000   1.0000   1.0000   1.0000   1.0000   1.0000   1.0000
     1.0000   1.0000   1.0000   1.0000   1.0000   1.0000   1.0000   1.0000
     1.0000   1.0000   1.0000   1.0000   1.0000   1.0000   1.0000   1.0000
     1.0000   1.0000   1.0000   1.0000   1.0000   1.0000   1.0000   1.0000
     1.0000   1.0000   1.0000   1.0000   1.0000   1.0000   1.0000   1.0000
     1.0000   1.0000   1.0000   1.0000   1.0000   1.0000   1.0000   1.0000
     1.0000   1.0000   1.0000   1.0000   1.0000   1.0000   1.0000   1.0000
     1.0000   1.0000   1.0000   1.0000   1.0000   1.0000   1.0000   1.0000
     1.0000   1.0000

          k = 0.0000 0.1925 0.6321 ( 14407 PWs)   bands (ev):

    -9.1910  -8.7736  -8.6943  -8.6943  -8.6607  -8.5657  -8.5657  -8.5175
    -8.3978  -8.3543  -8.3543  -8.2914  -8.2914  -8.2806  -8.2806  -8.2713
    -8.2201  -8.2201   2.7466   2.7761   2.7761   2.8181   2.8181   2.8391
     2.8678   2.9053   2.9053   2.9431   2.9431   2.9592   2.9800   3.2205
     3.2205   3.2373   3.2582   3.2582   3.5566   3.5582   3.5624   3.5624
     3.6796   3.6924   3.7929   3.8019   3.8019   3.8051   3.8051   3.8110
     3.8556   3.8556   3.8693   3.8693   3.9184   3.9259   3.9259   3.9294
     3.9585   3.9829   3.9829   4.0276   4.0851   4.0851   4.0995   4.0995
     4.1154   4.2017   4.2017   4.2383   4.4243   4.4243   4.4431   4.4431
     5.2698   5.2698   5.3320   5.3382   5.3382   5.3738   5.3738   5.3746
     5.3746   5.3892   5.3927   5.4173   5.4198   5.4427   5.4427   5.4892
     5.4892   5.5047   5.5656   5.5690   5.5797   5.5871   5.5871   5.6035
     5.6035   5.6048   5.6459   5.6655   5.6655   5.7013   5.7013   5.7112
     5.8163   5.8163   5.9230   5.9230   6.2036   6.2036   6.3500   6.3844
     6.3844   6.5095   6.5095   6.6440   6.6440   6.7563   6.8551   6.8551
     6.9505   6.9505   6.9938   7.0624   7.3256   7.3256   7.5106   7.6589
     7.6589   7.8640   7.8640   7.8961   7.9153   7.9153   8.0317   8.0747
     8.1049   8.1049   8.3497   8.3497   8.3864   8.3864   8.5638   8.6891
     8.6891   8.8165   8.9455   8.9475   8.9475   9.0467   9.1114   9.1114
     9.1430   9.1430   9.2278   9.2278   9.2682   9.3237   9.3439   9.4157
     9.9175   9.9687

     occupation numbers 
     1.0000   1.0000   1.0000   1.0000   1.0000   1.0000   1.0000   1.0000
     1.0000   1.0000   1.0000   1.0000   1.0000   1.0000   1.0000   1.0000
     1.0000   1.0000   1.0000   1.0000   1.0000   1.0000   1.0000   1.0000
     1.0000   1.0000   1.0000   1.0000   1.0000   1.0000   1.0000   1.0000
     1.0000   1.0000   1.0000   1.0000   1.0000   1.0000   1.0000   1.0000
     1.0000   1.0000   1.0000   1.0000   1.0000   1.0000   1.0000   1.0000
     1.0000   1.0000   1.0000   1.0000   1.0000   1.0000   1.0000   1.0000
     1.0000   1.0000   1.0000   1.0000   1.0000   1.0000   1.0000   1.0000
     1.0000   1.0000   1.0000   1.0000   1.0000   1.0000   1.0000   1.0000
     1.0000   1.0000   1.0000   1.0000   1.0000   1.0000   1.0000   1.0000
     1.0000   1.0000   1.0000   1.0000   1.0000   1.0000   1.0000   1.0000
     1.0000   1.0000   1.0000   1.0000   1.0000   1.0000   1.0000   1.0000
     1.0000   1.0000   1.0000   1.0000   1.0000   1.0000   1.0000   1.0000
     1.0000   1.0000   1.0000   1.0000   1.0000   1.0000   1.0000   1.0000
     1.0000   1.0000   1.0000   1.0000   1.0000   1.0000   1.0000   1.0000
     1.0000   1.0000   1.0000   1.0000   1.0000   1.0000   1.0000   1.0000
     1.0000   1.0000   1.0000   1.0000   1.0000   1.0000   1.0000   1.0000
     1.0000   1.0000   1.0000   1.0000   1.0000   1.0000   1.0000   1.0000
     1.0000   1.0000   1.0000   1.0000   1.0000   1.0000   1.0000   1.0000
     1.0000   1.0000   1.0000   1.0000   1.0000   1.0000   1.0000   1.0000
     1.0000   1.0000

          k = 0.0000 0.1925-0.9481 ( 14448 PWs)   bands (ev):

    -8.9305  -8.9305  -8.5851  -8.5850  -8.5228  -8.5228  -8.5228  -8.5228
    -8.4255  -8.4255  -8.4255  -8.4255  -8.3908  -8.3908  -8.2448  -8.2448
    -8.2447  -8.2447   2.7153   2.7153   2.7482   2.7482   2.7482   2.7482
     2.7897   2.7897   2.7897   2.7897   2.8105   2.8105   3.0451   3.0451
     3.1262   3.1262   3.1262   3.1262   3.6072   3.6072   3.6153   3.6153
     3.6574   3.6574   3.6574   3.6574   3.8347   3.8347   3.8516   3.8516
     3.8516   3.8516   3.9086   3.9086   3.9336   3.9336   3.9336   3.9336
     3.9832   3.9832   3.9832   3.9832   4.0099   4.0099   4.0669   4.0669
     4.0669   4.0669   4.0703   4.0703   4.4080   4.4080   4.4080   4.4080
     5.3275   5.3275   5.3275   5.3275   5.4886   5.4886   5.4893   5.4893
     5.5003   5.5003   5.5030   5.5030   5.5030   5.5030   5.5053   5.5053
     5.5212   5.5212   5.5212   5.5212   5.5299   5.5299   5.5299   5.5299
     5.5506   5.5506   5.5741   5.5741   5.5741   5.5741   5.5765   5.5765
     6.0081   6.0081   6.0081   6.0081   6.2199   6.2199   6.2199   6.2199
     6.5857   6.5857   6.7724   6.7724   6.7724   6.7724   7.1479   7.1479
     7.1479   7.1479   7.1785   7.1785   7.1785   7.1785   7.3888   7.3888
     7.9642   7.9642   8.4851   8.4851   8.4851   8.4851   8.5242   8.5242
     8.5905   8.5905   8.5905   8.5905   8.6198   8.6198   8.6383   8.6383
     8.6696   8.6696   8.6696   8.6696   8.7245   8.7245   8.7245   8.7245
     8.7911   8.7911   8.7911   8.7911   8.9512   8.9512   9.6283   9.6283
     9.6935   9.6935

     occupation numbers 
     1.0000   1.0000   1.0000   1.0000   1.0000   1.0000   1.0000   1.0000
     1.0000   1.0000   1.0000   1.0000   1.0000   1.0000   1.0000   1.0000
     1.0000   1.0000   1.0000   1.0000   1.0000   1.0000   1.0000   1.0000
     1.0000   1.0000   1.0000   1.0000   1.0000   1.0000   1.0000   1.0000
     1.0000   1.0000   1.0000   1.0000   1.0000   1.0000   1.0000   1.0000
     1.0000   1.0000   1.0000   1.0000   1.0000   1.0000   1.0000   1.0000
     1.0000   1.0000   1.0000   1.0000   1.0000   1.0000   1.0000   1.0000
     1.0000   1.0000   1.0000   1.0000   1.0000   1.0000   1.0000   1.0000
     1.0000   1.0000   1.0000   1.0000   1.0000   1.0000   1.0000   1.0000
     1.0000   1.0000   1.0000   1.0000   1.0000   1.0000   1.0000   1.0000
     1.0000   1.0000   1.0000   1.0000   1.0000   1.0000   1.0000   1.0000
     1.0000   1.0000   1.0000   1.0000   1.0000   1.0000   1.0000   1.0000
     1.0000   1.0000   1.0000   1.0000   1.0000   1.0000   1.0000   1.0000
     1.0000   1.0000   1.0000   1.0000   1.0000   1.0000   1.0000   1.0000
     1.0000   1.0000   1.0000   1.0000   1.0000   1.0000   1.0000   1.0000
     1.0000   1.0000   1.0000   1.0000   1.0000   1.0000   1.0000   1.0000
     1.0000   1.0000   1.0000   1.0000   1.0000   1.0000   1.0000   1.0000
     1.0000   1.0000   1.0000   1.0000   1.0000   1.0000   1.0000   1.0000
     1.0000   1.0000   1.0000   1.0000   1.0000   1.0000   1.0000   1.0000
     1.0000   1.0000   1.0000   1.0000   1.0000   1.0000   1.0000   1.0000
     1.0000   1.0000

          k = 0.0000 0.3849 0.0000 ( 14436 PWs)   bands (ev):

    -9.3730  -9.1222  -8.9119  -8.9119  -8.6116  -8.6116  -8.5391  -8.4126
    -8.4126  -8.3527  -8.2605  -8.2001  -8.2001  -8.1746  -8.1746  -8.1615
    -8.1572  -8.1572   2.9788   3.0274   3.0274   3.0603   3.0603   3.1049
     3.2029   3.2153   3.2851   3.2851   3.3699   3.3699   3.3993   3.4205
     3.4205   3.5016   3.5178   3.5178   3.5559   3.6244   3.6718   3.6755
     3.7244   3.7244   3.7581   3.7657   3.7657   3.7993   3.7993   3.8266
     3.8454   3.8546   3.8546   3.8999   3.9573   3.9573   3.9881   3.9881
     4.0415   4.0500   4.0842   4.0842   4.2288   4.2288   4.3639   4.3774
     4.3774   4.4767   4.4767   4.5001   4.5001   4.5387   4.6358   4.6358
     5.0974   5.0974   5.1287   5.1915   5.1915   5.2200   5.2200   5.2366
     5.2550   5.2550   5.2760   5.2970   5.2999   5.3178   5.3178   5.3669
     5.3669   5.5222   5.6134   5.6134   5.6272   5.6464   5.6483   5.6496
     5.6496   5.6600   5.6615   5.6615   5.6701   5.6701   5.6862   5.6862
     5.6878   5.7542   5.7542   5.8220   5.8906   5.9587   6.0218   6.0424
     6.0424   6.0977   6.0977   6.1432   6.1432   6.3086   6.3086   6.4865
     6.6062   6.6062   6.7339   6.7339   7.0348   7.0912   7.0912   7.1859
     7.1859   7.3765   7.3765   7.3805   7.3916   7.3916   7.6341   7.7625
     7.7625   8.2214   8.2214   8.3687   8.3687   8.4671   8.6318   8.6318
     8.7077   8.7195   8.7994   8.9020   8.9020   8.9857   9.1549   9.1549
     9.2450   9.4514   9.4514   9.5094   9.5094   9.6052   9.7414   9.8685
    10.0595  10.1596

     occupation numbers 
     1.0000   1.0000   1.0000   1.0000   1.0000   1.0000   1.0000   1.0000
     1.0000   1.0000   1.0000   1.0000   1.0000   1.0000   1.0000   1.0000
     1.0000   1.0000   1.0000   1.0000   1.0000   1.0000   1.0000   1.0000
     1.0000   1.0000   1.0000   1.0000   1.0000   1.0000   1.0000   1.0000
     1.0000   1.0000   1.0000   1.0000   1.0000   1.0000   1.0000   1.0000
     1.0000   1.0000   1.0000   1.0000   1.0000   1.0000   1.0000   1.0000
     1.0000   1.0000   1.0000   1.0000   1.0000   1.0000   1.0000   1.0000
     1.0000   1.0000   1.0000   1.0000   1.0000   1.0000   1.0000   1.0000
     1.0000   1.0000   1.0000   1.0000   1.0000   1.0000   1.0000   1.0000
     1.0000   1.0000   1.0000   1.0000   1.0000   1.0000   1.0000   1.0000
     1.0000   1.0000   1.0000   1.0000   1.0000   1.0000   1.0000   1.0000
     1.0000   1.0000   1.0000   1.0000   1.0000   1.0000   1.0000   1.0000
     1.0000   1.0000   1.0000   1.0000   1.0000   1.0000   1.0000   1.0000
     1.0000   1.0000   1.0000   1.0000   1.0000   1.0000   1.0000   1.0000
     1.0000   1.0000   1.0000   1.0000   1.0000   1.0000   1.0000   1.0000
     1.0000   1.0000   1.0000   1.0000   1.0000   1.0000   1.0000   1.0000
     1.0000   1.0000   1.0000   1.0000   1.0000   1.0000   1.0000   1.0000
     1.0000   1.0000   1.0000   1.0000   1.0000   1.0000   1.0000   1.0000
     1.0000   1.0000   1.0000   1.0000   1.0000   1.0000   1.0000   1.0000
     1.0000   1.0000   1.0000   1.0000   1.0000   1.0000   1.0000   1.0000
     1.0000   1.0000

          k = 0.0000 0.3849 0.3160 ( 14428 PWs)   bands (ev):

    -9.3085  -9.0657  -8.8634  -8.8634  -8.5776  -8.5776  -8.5097  -8.4248
    -8.3917  -8.3917  -8.3189  -8.2462  -8.2462  -8.1851  -8.1851  -8.1834
    -8.1834  -8.1820   2.9014   2.9603   2.9603   3.0022   3.0022   3.0462
     3.0655   3.1096   3.2146   3.2146   3.2293   3.2293   3.2490   3.2490
     3.2746   3.3383   3.3842   3.3842   3.5657   3.6004   3.6870   3.7096
     3.7192   3.7192   3.7228   3.7228   3.7472   3.7814   3.7814   3.8147
     3.8234   3.8234   3.8607   3.8782   3.9317   3.9317   3.9595   3.9595
     4.0047   4.0262   4.0272   4.0272   4.1846   4.1846   4.2775   4.2775
     4.2936   4.4067   4.4067   4.4233   4.4233   4.4706   4.5189   4.5189
     5.1717   5.1717   5.1949   5.2377   5.2377   5.2378   5.2378   5.2768
     5.3080   5.3245   5.3675   5.3675   5.3732   5.4241   5.4241   5.4653
     5.4653   5.5282   5.6135   5.6289   5.6319   5.6393   5.6393   5.6630
     5.6678   5.6678   5.6804   5.6804   5.6818   5.7193   5.7193   5.7229
     5.7229   5.8282   5.8333   5.8333   5.9531   6.0759   6.0759   6.1430
     6.1430   6.2980   6.3496   6.3999   6.3999   6.4014   6.4014   6.4857
     6.7023   6.7023   6.7657   6.7657   7.2183   7.2183   7.2711   7.2711
     7.2876   7.4992   7.4992   7.5357   7.6038   7.6038   7.7275   7.8297
     7.8297   8.1556   8.1556   8.3279   8.3279   8.5670   8.5735   8.6768
     8.6768   8.7838   8.8938   8.9297   8.9297   9.0659   9.0913   9.0913
     9.1344   9.3280   9.3922   9.3922   9.4708   9.4708   9.6965   9.7790
     9.9888  10.0831

     occupation numbers 
     1.0000   1.0000   1.0000   1.0000   1.0000   1.0000   1.0000   1.0000
     1.0000   1.0000   1.0000   1.0000   1.0000   1.0000   1.0000   1.0000
     1.0000   1.0000   1.0000   1.0000   1.0000   1.0000   1.0000   1.0000
     1.0000   1.0000   1.0000   1.0000   1.0000   1.0000   1.0000   1.0000
     1.0000   1.0000   1.0000   1.0000   1.0000   1.0000   1.0000   1.0000
     1.0000   1.0000   1.0000   1.0000   1.0000   1.0000   1.0000   1.0000
     1.0000   1.0000   1.0000   1.0000   1.0000   1.0000   1.0000   1.0000
     1.0000   1.0000   1.0000   1.0000   1.0000   1.0000   1.0000   1.0000
     1.0000   1.0000   1.0000   1.0000   1.0000   1.0000   1.0000   1.0000
     1.0000   1.0000   1.0000   1.0000   1.0000   1.0000   1.0000   1.0000
     1.0000   1.0000   1.0000   1.0000   1.0000   1.0000   1.0000   1.0000
     1.0000   1.0000   1.0000   1.0000   1.0000   1.0000   1.0000   1.0000
     1.0000   1.0000   1.0000   1.0000   1.0000   1.0000   1.0000   1.0000
     1.0000   1.0000   1.0000   1.0000   1.0000   1.0000   1.0000   1.0000
     1.0000   1.0000   1.0000   1.0000   1.0000   1.0000   1.0000   1.0000
     1.0000   1.0000   1.0000   1.0000   1.0000   1.0000   1.0000   1.0000
     1.0000   1.0000   1.0000   1.0000   1.0000   1.0000   1.0000   1.0000
     1.0000   1.0000   1.0000   1.0000   1.0000   1.0000   1.0000   1.0000
     1.0000   1.0000   1.0000   1.0000   1.0000   1.0000   1.0000   1.0000
     1.0000   1.0000   1.0000   1.0000   1.0000   1.0000   1.0000   1.0000
     1.0000   1.0000

          k = 0.0000 0.3849 0.6321 ( 14433 PWs)   bands (ev):

    -9.1294  -8.9103  -8.7311  -8.7311  -8.6192  -8.4869  -8.4869  -8.4784
    -8.4318  -8.3739  -8.3739  -8.3378  -8.3378  -8.2584  -8.2584  -8.2418
    -8.2180  -8.2180   2.7500   2.8214   2.8279   2.8279   2.8791   2.8791
     2.9172   2.9347   2.9347   2.9645   2.9645   2.9817   3.0080   3.0725
     3.0725   3.1259   3.1259   3.1704   3.5924   3.5987   3.6824   3.6824
     3.6962   3.7141   3.7347   3.7406   3.7449   3.7449   3.7960   3.7960
     3.8159   3.8383   3.8383   3.8594   3.8594   3.9155   3.9284   3.9284
     3.9605   3.9646   3.9646   4.0211   4.0819   4.0819   4.1609   4.1609
     4.1690   4.2642   4.2642   4.3053   4.3423   4.3423   4.3806   4.3806
     5.3334   5.3334   5.3371   5.3377   5.3377   5.3745   5.3824   5.3824
     5.3890   5.3967   5.4357   5.4357   5.4503   5.4503   5.5119   5.5202
     5.5202   5.5463   5.5668   5.5726   5.5800   5.5857   5.5857   5.6163
     5.6199   5.6369   5.6369   5.6637   5.6637   5.7510   5.7612   5.7612
     5.7616   5.7616   5.9561   5.9561   6.1087   6.1087   6.1249   6.3315
     6.3315   6.4103   6.4697   6.4697   6.7775   6.7775   6.9254   6.9254
     6.9647   6.9647   7.0826   7.1048   7.5351   7.5351   7.6846   7.6846
     7.8633   7.8633   7.9124   7.9124   7.9201   7.9550   7.9612   7.9656
     7.9656   8.2837   8.2837   8.3079   8.3079   8.3374   8.6731   8.6731
     8.7117   8.8274   8.8313   8.8313   8.8343   8.9509   9.0364   9.0453
     9.0453   9.1051   9.1051   9.2691   9.2691   9.2844   9.3784   9.5323
     9.7206   9.8722

     occupation numbers 
     1.0000   1.0000   1.0000   1.0000   1.0000   1.0000   1.0000   1.0000
     1.0000   1.0000   1.0000   1.0000   1.0000   1.0000   1.0000   1.0000
     1.0000   1.0000   1.0000   1.0000   1.0000   1.0000   1.0000   1.0000
     1.0000   1.0000   1.0000   1.0000   1.0000   1.0000   1.0000   1.0000
     1.0000   1.0000   1.0000   1.0000   1.0000   1.0000   1.0000   1.0000
     1.0000   1.0000   1.0000   1.0000   1.0000   1.0000   1.0000   1.0000
     1.0000   1.0000   1.0000   1.0000   1.0000   1.0000   1.0000   1.0000
     1.0000   1.0000   1.0000   1.0000   1.0000   1.0000   1.0000   1.0000
     1.0000   1.0000   1.0000   1.0000   1.0000   1.0000   1.0000   1.0000
     1.0000   1.0000   1.0000   1.0000   1.0000   1.0000   1.0000   1.0000
     1.0000   1.0000   1.0000   1.0000   1.0000   1.0000   1.0000   1.0000
     1.0000   1.0000   1.0000   1.0000   1.0000   1.0000   1.0000   1.0000
     1.0000   1.0000   1.0000   1.0000   1.0000   1.0000   1.0000   1.0000
     1.0000   1.0000   1.0000   1.0000   1.0000   1.0000   1.0000   1.0000
     1.0000   1.0000   1.0000   1.0000   1.0000   1.0000   1.0000   1.0000
     1.0000   1.0000   1.0000   1.0000   1.0000   1.0000   1.0000   1.0000
     1.0000   1.0000   1.0000   1.0000   1.0000   1.0000   1.0000   1.0000
     1.0000   1.0000   1.0000   1.0000   1.0000   1.0000   1.0000   1.0000
     1.0000   1.0000   1.0000   1.0000   1.0000   1.0000   1.0000   1.0000
     1.0000   1.0000   1.0000   1.0000   1.0000   1.0000   1.0000   1.0000
     1.0000   1.0000

          k = 0.0000 0.3849-0.9481 ( 14420 PWs)   bands (ev):

    -8.8782  -8.8782  -8.6955  -8.6954  -8.5514  -8.5514  -8.5514  -8.5514
    -8.3688  -8.3688  -8.3687  -8.3687  -8.3323  -8.3323  -8.2727  -8.2727
    -8.2727  -8.2727   2.6943   2.6943   2.7867   2.7867   2.7867   2.7867
     2.8316   2.8316   2.8316   2.8316   2.8796   2.8796   2.9957   2.9957
     2.9957   2.9957   3.0084   3.0084   3.6321   3.6321   3.6596   3.6596
     3.7491   3.7491   3.7564   3.7564   3.7564   3.7564   3.7764   3.7764
     3.7764   3.7764   3.8150   3.8150   3.9028   3.9028   3.9028   3.9028
     3.9836   3.9836   3.9836   3.9836   4.0707   4.0707   4.1173   4.1173
     4.1494   4.1494   4.1494   4.1494   4.3232   4.3232   4.3232   4.3232
     5.4111   5.4111   5.4111   5.4111   5.4861   5.4862   5.4883   5.4883
     5.4884   5.4884   5.4930   5.4930   5.4937   5.4937   5.4937   5.4937
     5.5093   5.5093   5.5093   5.5093   5.5327   5.5327   5.5327   5.5327
     5.5759   5.5759   5.6437   5.6437   5.6517   5.6517   5.6517   5.6517
     5.8865   5.8865   5.8865   5.8865   6.2822   6.2822   6.2975   6.2975
     6.2975   6.2975   6.5838   6.5838   6.5838   6.5838   7.3441   7.3441
     7.3441   7.3441   7.4246   7.4246   7.4246   7.4246   7.7298   7.7298
     7.9597   7.9597   8.1699   8.1699   8.1699   8.1699   8.3908   8.3908
     8.5512   8.5512   8.5512   8.5512   8.6295   8.6296   8.6855   8.6855
     8.6855   8.6855   8.7159   8.7159   8.7159   8.7159   8.7547   8.7547
     8.7941   8.7941   8.7941   8.7941   9.1883   9.1883   9.3565   9.3565
     9.5803   9.5803

     occupation numbers 
     1.0000   1.0000   1.0000   1.0000   1.0000   1.0000   1.0000   1.0000
     1.0000   1.0000   1.0000   1.0000   1.0000   1.0000   1.0000   1.0000
     1.0000   1.0000   1.0000   1.0000   1.0000   1.0000   1.0000   1.0000
     1.0000   1.0000   1.0000   1.0000   1.0000   1.0000   1.0000   1.0000
     1.0000   1.0000   1.0000   1.0000   1.0000   1.0000   1.0000   1.0000
     1.0000   1.0000   1.0000   1.0000   1.0000   1.0000   1.0000   1.0000
     1.0000   1.0000   1.0000   1.0000   1.0000   1.0000   1.0000   1.0000
     1.0000   1.0000   1.0000   1.0000   1.0000   1.0000   1.0000   1.0000
     1.0000   1.0000   1.0000   1.0000   1.0000   1.0000   1.0000   1.0000
     1.0000   1.0000   1.0000   1.0000   1.0000   1.0000   1.0000   1.0000
     1.0000   1.0000   1.0000   1.0000   1.0000   1.0000   1.0000   1.0000
     1.0000   1.0000   1.0000   1.0000   1.0000   1.0000   1.0000   1.0000
     1.0000   1.0000   1.0000   1.0000   1.0000   1.0000   1.0000   1.0000
     1.0000   1.0000   1.0000   1.0000   1.0000   1.0000   1.0000   1.0000
     1.0000   1.0000   1.0000   1.0000   1.0000   1.0000   1.0000   1.0000
     1.0000   1.0000   1.0000   1.0000   1.0000   1.0000   1.0000   1.0000
     1.0000   1.0000   1.0000   1.0000   1.0000   1.0000   1.0000   1.0000
     1.0000   1.0000   1.0000   1.0000   1.0000   1.0000   1.0000   1.0000
     1.0000   1.0000   1.0000   1.0000   1.0000   1.0000   1.0000   1.0000
     1.0000   1.0000   1.0000   1.0000   1.0000   1.0000   1.0000   1.0000
     1.0000   1.0000

          k = 0.0000-0.5774 0.0000 ( 14438 PWs)   bands (ev):

    -9.2632  -9.2632  -8.9270  -8.9270  -8.5096  -8.5096  -8.5096  -8.5095
    -8.4959  -8.3099  -8.3099  -8.2036  -8.2036  -8.1663  -8.1591  -8.1590
    -8.1590  -8.1590   3.0404   3.1091   3.1091   3.1191   3.1571   3.1571
     3.1571   3.1571   3.2129   3.2129   3.3780   3.3780   3.4074   3.4074
     3.4074   3.4074   3.4181   3.4181   3.6100   3.6100   3.6458   3.6458
     3.7712   3.7712   3.7712   3.7712   3.7800   3.7800   3.7871   3.7871
     3.8086   3.8086   3.8320   3.9297   3.9297   3.9850   3.9850   3.9850
     3.9850   4.0459   4.0459   4.0745   4.2194   4.2194   4.3583   4.4332
     4.4332   4.4332   4.4332   4.5630   4.5630   4.5630   4.5630   4.5731
     5.1070   5.1070   5.1865   5.1865   5.2129   5.2129   5.2129   5.2129
     5.2792   5.2792   5.3016   5.3016   5.3094   5.3094   5.3094   5.3094
     5.3148   5.5466   5.6374   5.6374   5.6580   5.6580   5.6605   5.6605
     5.6651   5.6651   5.6902   5.6987   5.6987   5.6987   5.6987   5.7641
     5.7641   5.7641   5.7641   5.7770   5.9717   5.9717   6.0466   6.0466
     6.0466   6.0466   6.1030   6.1377   6.1377   6.3332   6.5826   6.5826
     6.5826   6.5826   6.8147   6.8147   6.8147   6.8147   6.9249   7.2349
     7.2349   7.2755   7.2755   7.2755   7.2755   7.3099   7.6506   7.6506
     8.2003   8.2003   8.2936   8.2936   8.6428   8.6428   8.6428   8.6428
     8.7245   8.7540   8.7540   8.9056   8.9056   8.9056   8.9056   9.1640
     9.1640   9.2075   9.4763   9.4763   9.4885   9.4885   9.9273   9.9273
    10.0320  10.0320

     occupation numbers 
     1.0000   1.0000   1.0000   1.0000   1.0000   1.0000   1.0000   1.0000
     1.0000   1.0000   1.0000   1.0000   1.0000   1.0000   1.0000   1.0000
     1.0000   1.0000   1.0000   1.0000   1.0000   1.0000   1.0000   1.0000
     1.0000   1.0000   1.0000   1.0000   1.0000   1.0000   1.0000   1.0000
     1.0000   1.0000   1.0000   1.0000   1.0000   1.0000   1.0000   1.0000
     1.0000   1.0000   1.0000   1.0000   1.0000   1.0000   1.0000   1.0000
     1.0000   1.0000   1.0000   1.0000   1.0000   1.0000   1.0000   1.0000
     1.0000   1.0000   1.0000   1.0000   1.0000   1.0000   1.0000   1.0000
     1.0000   1.0000   1.0000   1.0000   1.0000   1.0000   1.0000   1.0000
     1.0000   1.0000   1.0000   1.0000   1.0000   1.0000   1.0000   1.0000
     1.0000   1.0000   1.0000   1.0000   1.0000   1.0000   1.0000   1.0000
     1.0000   1.0000   1.0000   1.0000   1.0000   1.0000   1.0000   1.0000
     1.0000   1.0000   1.0000   1.0000   1.0000   1.0000   1.0000   1.0000
     1.0000   1.0000   1.0000   1.0000   1.0000   1.0000   1.0000   1.0000
     1.0000   1.0000   1.0000   1.0000   1.0000   1.0000   1.0000   1.0000
     1.0000   1.0000   1.0000   1.0000   1.0000   1.0000   1.0000   1.0000
     1.0000   1.0000   1.0000   1.0000   1.0000   1.0000   1.0000   1.0000
     1.0000   1.0000   1.0000   1.0000   1.0000   1.0000   1.0000   1.0000
     1.0000   1.0000   1.0000   1.0000   1.0000   1.0000   1.0000   1.0000
     1.0000   1.0000   1.0000   1.0000   1.0000   1.0000   1.0000   1.0000
     1.0000   1.0000

          k = 0.0000-0.5774 0.3160 ( 14432 PWs)   bands (ev):

    -9.2021  -9.2021  -8.8779  -8.8779  -8.4818  -8.4818  -8.4818  -8.4817
    -8.4693  -8.3762  -8.3762  -8.2506  -8.2506  -8.1833  -8.1776  -8.1776
    -8.1776  -8.1775   2.9551   2.9941   3.0489   3.0489   3.0839   3.0839
     3.0839   3.0839   3.1289   3.1289   3.2283   3.2283   3.2697   3.2697
     3.2722   3.2722   3.2722   3.2722   3.6218   3.6218   3.6514   3.6514
     3.7560   3.7560   3.7560   3.7560   3.7579   3.7579   3.7637   3.7637
     3.7828   3.7828   3.8675   3.8968   3.8968   3.9519   3.9519   3.9519
     3.9519   4.0052   4.0052   4.0505   4.1766   4.1766   4.2986   4.3449
     4.3449   4.3449   4.3449   4.4702   4.4702   4.4702   4.4702   4.5020
     5.1752   5.1752   5.2370   5.2371   5.2439   5.2439   5.2439   5.2439
     5.3096   5.3096   5.3603   5.3603   5.4113   5.4559   5.4559   5.4559
     5.4559   5.5510   5.6209   5.6209   5.6379   5.6379   5.6574   5.6574
     5.6650   5.6871   5.6871   5.6871   5.6871   5.7220   5.7220   5.7778
     5.8784   5.8784   5.8784   5.8784   6.0045   6.0045   6.0045   6.0045
     6.1155   6.2516   6.3165   6.3165   6.4051   6.4051   6.6918   6.6918
     6.6918   6.6918   6.8931   6.8931   6.8931   6.8931   7.2765   7.3652
     7.3652   7.4611   7.4611   7.4611   7.4611   7.4706   7.7190   7.7190
     8.2154   8.2154   8.2830   8.2830   8.6276   8.6276   8.6276   8.6276
     8.8249   8.8429   8.8429   8.9006   8.9006   8.9006   8.9006   8.9788
     8.9788   9.0958   9.3683   9.3683   9.4925   9.4925   9.8532   9.8532
     9.9494   9.9494

     occupation numbers 
     1.0000   1.0000   1.0000   1.0000   1.0000   1.0000   1.0000   1.0000
     1.0000   1.0000   1.0000   1.0000   1.0000   1.0000   1.0000   1.0000
     1.0000   1.0000   1.0000   1.0000   1.0000   1.0000   1.0000   1.0000
     1.0000   1.0000   1.0000   1.0000   1.0000   1.0000   1.0000   1.0000
     1.0000   1.0000   1.0000   1.0000   1.0000   1.0000   1.0000   1.0000
     1.0000   1.0000   1.0000   1.0000   1.0000   1.0000   1.0000   1.0000
     1.0000   1.0000   1.0000   1.0000   1.0000   1.0000   1.0000   1.0000
     1.0000   1.0000   1.0000   1.0000   1.0000   1.0000   1.0000   1.0000
     1.0000   1.0000   1.0000   1.0000   1.0000   1.0000   1.0000   1.0000
     1.0000   1.0000   1.0000   1.0000   1.0000   1.0000   1.0000   1.0000
     1.0000   1.0000   1.0000   1.0000   1.0000   1.0000   1.0000   1.0000
     1.0000   1.0000   1.0000   1.0000   1.0000   1.0000   1.0000   1.0000
     1.0000   1.0000   1.0000   1.0000   1.0000   1.0000   1.0000   1.0000
     1.0000   1.0000   1.0000   1.0000   1.0000   1.0000   1.0000   1.0000
     1.0000   1.0000   1.0000   1.0000   1.0000   1.0000   1.0000   1.0000
     1.0000   1.0000   1.0000   1.0000   1.0000   1.0000   1.0000   1.0000
     1.0000   1.0000   1.0000   1.0000   1.0000   1.0000   1.0000   1.0000
     1.0000   1.0000   1.0000   1.0000   1.0000   1.0000   1.0000   1.0000
     1.0000   1.0000   1.0000   1.0000   1.0000   1.0000   1.0000   1.0000
     1.0000   1.0000   1.0000   1.0000   1.0000   1.0000   1.0000   1.0000
     1.0000   1.0000

          k = 0.0000-0.5774 0.6321 ( 14400 PWs)   bands (ev):

    -9.0329  -9.0329  -8.7438  -8.7438  -8.5557  -8.5557  -8.4086  -8.4086
    -8.4086  -8.4085  -8.3996  -8.3807  -8.3807  -8.2337  -8.2322  -8.2322
    -8.2322  -8.2322   2.7765   2.7816   2.9182   2.9182   2.9321   2.9321
     2.9321   2.9321   2.9621   2.9621   2.9684   2.9684   3.0092   3.0092
     3.0092   3.0092   3.0818   3.0818   3.6465   3.6465   3.6604   3.6605
     3.7371   3.7371   3.7389   3.7389   3.7511   3.7511   3.7778   3.7778
     3.7778   3.7778   3.8170   3.8170   3.9024   3.9024   3.9024   3.9024
     3.9613   3.9613   3.9708   4.0458   4.0774   4.0774   4.1854   4.2485
     4.2485   4.2485   4.2485   4.3216   4.3216   4.3216   4.3216   4.3291
     5.3334   5.3334   5.3549   5.3549   5.3740   5.3740   5.3740   5.3740
     5.3883   5.3883   5.4334   5.4334   5.5086   5.5086   5.5086   5.5086
     5.5638   5.5689   5.5689   5.5702   5.5854   5.5854   5.5975   5.5975
     5.6204   5.6640   5.6640   5.6954   5.6954   5.6954   5.6954   5.7569
     5.8668   5.8668   5.8668   5.8668   6.1357   6.1789   6.1789   6.1789
     6.1789   6.1800   6.6126   6.6126   6.6126   6.6126   7.0023   7.0023
     7.1062   7.1062   7.2975   7.2975   7.2975   7.2975   7.6847   7.6847
     7.8439   7.8439   7.8646   7.9801   7.9801   7.9801   7.9801   7.9852
     8.2863   8.2863   8.3806   8.3806   8.3806   8.3806   8.4229   8.4229
     8.6761   8.6761   8.7854   8.9110   8.9517   8.9517   8.9517   8.9517
     9.0782   9.0782   9.0832   9.0832   9.2826   9.2826   9.5214   9.5214
     9.7218   9.7218

     occupation numbers 
     1.0000   1.0000   1.0000   1.0000   1.0000   1.0000   1.0000   1.0000
     1.0000   1.0000   1.0000   1.0000   1.0000   1.0000   1.0000   1.0000
     1.0000   1.0000   1.0000   1.0000   1.0000   1.0000   1.0000   1.0000
     1.0000   1.0000   1.0000   1.0000   1.0000   1.0000   1.0000   1.0000
     1.0000   1.0000   1.0000   1.0000   1.0000   1.0000   1.0000   1.0000
     1.0000   1.0000   1.0000   1.0000   1.0000   1.0000   1.0000   1.0000
     1.0000   1.0000   1.0000   1.0000   1.0000   1.0000   1.0000   1.0000
     1.0000   1.0000   1.0000   1.0000   1.0000   1.0000   1.0000   1.0000
     1.0000   1.0000   1.0000   1.0000   1.0000   1.0000   1.0000   1.0000
     1.0000   1.0000   1.0000   1.0000   1.0000   1.0000   1.0000   1.0000
     1.0000   1.0000   1.0000   1.0000   1.0000   1.0000   1.0000   1.0000
     1.0000   1.0000   1.0000   1.0000   1.0000   1.0000   1.0000   1.0000
     1.0000   1.0000   1.0000   1.0000   1.0000   1.0000   1.0000   1.0000
     1.0000   1.0000   1.0000   1.0000   1.0000   1.0000   1.0000   1.0000
     1.0000   1.0000   1.0000   1.0000   1.0000   1.0000   1.0000   1.0000
     1.0000   1.0000   1.0000   1.0000   1.0000   1.0000   1.0000   1.0000
     1.0000   1.0000   1.0000   1.0000   1.0000   1.0000   1.0000   1.0000
     1.0000   1.0000   1.0000   1.0000   1.0000   1.0000   1.0000   1.0000
     1.0000   1.0000   1.0000   1.0000   1.0000   1.0000   1.0000   1.0000
     1.0000   1.0000   1.0000   1.0000   1.0000   1.0000   1.0000   1.0000
     1.0000   1.0000

          k = 0.0000-0.5774-0.9481 ( 14400 PWs)   bands (ev):

    -8.7970  -8.7969  -8.7969  -8.7969  -8.5613  -8.5613  -8.5613  -8.5613
    -8.3157  -8.3157  -8.3157  -8.3157  -8.3157  -8.3157  -8.3157  -8.3157
    -8.3119  -8.3118   2.6880   2.6880   2.8505   2.8505   2.8505   2.8505
     2.8726   2.8726   2.8726   2.8726   2.8726   2.8726   2.8726   2.8726
     2.9501   2.9501   2.9501   2.9501   3.6795   3.6795   3.6795   3.6795
     3.7286   3.7286   3.7286   3.7286   3.7458   3.7458   3.7458   3.7458
     3.8434   3.8434   3.8434   3.8434   3.8434   3.8434   3.8434   3.8434
     3.9842   3.9842   3.9842   3.9843   4.0933   4.0933   4.1335   4.1335
     4.2332   4.2332   4.2332   4.2332   4.2332   4.2332   4.2332   4.2332
     5.4763   5.4763   5.4763   5.4763   5.4763   5.4763   5.4763   5.4763
     5.4848   5.4848   5.4848   5.4848   5.4886   5.4886   5.4886   5.4886
     5.4915   5.4915   5.4915   5.4915   5.5340   5.5340   5.5340   5.5340
     5.5863   5.5863   5.6901   5.6901   5.7593   5.7593   5.7593   5.7593
     5.7593   5.7593   5.7593   5.7593   6.1518   6.1518   6.4213   6.4213
     6.4213   6.4214   6.4214   6.4214   6.4214   6.4214   7.4123   7.4123
     7.4123   7.4123   7.7903   7.7903   7.7904   7.7904   7.7904   7.7904
     7.7904   7.7904   7.9084   7.9084   7.9084   7.9084   8.3433   8.3433
     8.5289   8.5289   8.5289   8.5289   8.6336   8.6336   8.7024   8.7024
     8.7024   8.7024   8.7024   8.7024   8.7024   8.7024   8.7866   8.7866
     8.7866   8.7866   9.0198   9.0198   9.0198   9.0198   9.4056   9.4057
     9.4057   9.4057

     occupation numbers 
     1.0000   1.0000   1.0000   1.0000   1.0000   1.0000   1.0000   1.0000
     1.0000   1.0000   1.0000   1.0000   1.0000   1.0000   1.0000   1.0000
     1.0000   1.0000   1.0000   1.0000   1.0000   1.0000   1.0000   1.0000
     1.0000   1.0000   1.0000   1.0000   1.0000   1.0000   1.0000   1.0000
     1.0000   1.0000   1.0000   1.0000   1.0000   1.0000   1.0000   1.0000
     1.0000   1.0000   1.0000   1.0000   1.0000   1.0000   1.0000   1.0000
     1.0000   1.0000   1.0000   1.0000   1.0000   1.0000   1.0000   1.0000
     1.0000   1.0000   1.0000   1.0000   1.0000   1.0000   1.0000   1.0000
     1.0000   1.0000   1.0000   1.0000   1.0000   1.0000   1.0000   1.0000
     1.0000   1.0000   1.0000   1.0000   1.0000   1.0000   1.0000   1.0000
     1.0000   1.0000   1.0000   1.0000   1.0000   1.0000   1.0000   1.0000
     1.0000   1.0000   1.0000   1.0000   1.0000   1.0000   1.0000   1.0000
     1.0000   1.0000   1.0000   1.0000   1.0000   1.0000   1.0000   1.0000
     1.0000   1.0000   1.0000   1.0000   1.0000   1.0000   1.0000   1.0000
     1.0000   1.0000   1.0000   1.0000   1.0000   1.0000   1.0000   1.0000
     1.0000   1.0000   1.0000   1.0000   1.0000   1.0000   1.0000   1.0000
     1.0000   1.0000   1.0000   1.0000   1.0000   1.0000   1.0000   1.0000
     1.0000   1.0000   1.0000   1.0000   1.0000   1.0000   1.0000   1.0000
[...]
     The ionic contribution  to forces
     atom    1 type  1   force =     0.00000001    0.00000001   -0.40542190
     atom    2 type  1   force =     0.00000000    0.00000002   -0.40542190
     atom    3 type  2   force =     0.00000001    0.00000001    0.40542190
     atom    4 type  2   force =     0.00000000    0.00000001    0.40542190
     atom    5 type  1   force =     0.00000000    0.00000001   -0.40542190
     atom    6 type  1   force =     0.00000001   -0.00000000   -0.40542190
     atom    7 type  2   force =    -0.00000000    0.00000001    0.40542190
     atom    8 type  2   force =     0.00000001   -0.00000000    0.40542190
     atom    9 type  1   force =     0.00000001   -0.00000001   -0.40542190
     atom   10 type  1   force =     0.00000001   -0.00000000   -0.40542190
     atom   11 type  2   force =     0.00000001   -0.00000000    0.40542190
     atom   12 type  2   force =     0.00000000   -0.00000000    0.40542190
     atom   13 type  1   force =    -0.00000001    0.00000001   -0.40542190
     atom   14 type  1   force =     0.00000001    0.00000001   -0.40542190
     atom   15 type  2   force =    -0.00000001    0.00000001    0.40542190
     atom   16 type  2   force =     0.00000001    0.00000000    0.40542190
     atom   17 type  1   force =    -0.00000002    0.00000001   -0.40542190
     atom   18 type  1   force =     0.00000002   -0.00000001   -0.40542190
     atom   19 type  2   force =    -0.00000001    0.00000001    0.40542190
     atom   20 type  2   force =     0.00000001   -0.00000001    0.40542190
     atom   21 type  1   force =    -0.00000001   -0.00000001   -0.40542190
     atom   22 type  1   force =     0.00000001   -0.00000001   -0.40542190
     atom   23 type  2   force =    -0.00000001   -0.00000000    0.40542190
     atom   24 type  2   force =     0.00000001   -0.00000001    0.40542190
     atom   25 type  1   force =    -0.00000001    0.00000000   -0.40542190
     atom   26 type  1   force =    -0.00000001    0.00000001   -0.40542190
     atom   27 type  2   force =    -0.00000000    0.00000000    0.40542190
     atom   28 type  2   force =    -0.00000001    0.00000000    0.40542190
     atom   29 type  1   force =    -0.00000001    0.00000000   -0.40542190
     atom   30 type  1   force =    -0.00000000   -0.00000001   -0.40542190
     atom   31 type  2   force =    -0.00000001    0.00000000    0.40542190
     atom   32 type  2   force =     0.00000000   -0.00000001    0.40542190
     atom   33 type  1   force =    -0.00000000   -0.00000002   -0.40542190
     atom   34 type  1   force =    -0.00000001   -0.00000001   -0.40542190
     atom   35 type  2   force =    -0.00000000   -0.00000001    0.40542190
     atom   36 type  2   force =    -0.00000001   -0.00000001    0.40542190
     The local contribution  to forces
     atom    1 type  1   force =    -0.00001649   -0.00000952    0.45228563
     atom    2 type  1   force =     0.00000000   -0.00001173    0.45230682
     atom    3 type  2   force =    -0.00000760   -0.00000439   -0.34754794
     atom    4 type  2   force =     0.00000000   -0.00000635   -0.34754433
     atom    5 type  1   force =     0.00000000   -0.00002576    0.45229273
     atom    6 type  1   force =    -0.00001527   -0.00000896    0.45229341
     atom    7 type  2   force =     0.00000000   -0.00000230   -0.34754791
     atom    8 type  2   force =    -0.00000998   -0.00000580   -0.34754903
     atom    9 type  1   force =    -0.00002231    0.00001288    0.45229273
     atom   10 type  1   force =    -0.00001016    0.00000586    0.45230682
     atom   11 type  2   force =    -0.00000199    0.00000115   -0.34754791
     atom   12 type  2   force =    -0.00000550    0.00000317   -0.34754433
     atom   13 type  1   force =    -0.00000012    0.00000059    0.45229796
     atom   14 type  1   force =     0.00000955    0.00000551    0.45229228
     atom   15 type  2   force =    -0.00000003    0.00000330   -0.34755216
     atom   16 type  2   force =    -0.00000439   -0.00000253   -0.34754059
     atom   17 type  1   force =     0.00000034   -0.00000019    0.45229796
     atom   18 type  1   force =     0.00001551   -0.00000896    0.45229341
     atom   19 type  2   force =     0.00000281   -0.00000162   -0.34755216
     atom   20 type  2   force =     0.00001005   -0.00000580   -0.34754903
     atom   21 type  1   force =     0.00002231    0.00001288    0.45229273
     atom   22 type  1   force =     0.00000012    0.00001771    0.45229341
     atom   23 type  2   force =     0.00000199    0.00000115   -0.34754791
     atom   24 type  2   force =     0.00000003    0.00001154   -0.34754903
     atom   25 type  1   force =     0.00001649   -0.00000952    0.45228563
     atom   26 type  1   force =    -0.00000955    0.00000551    0.45229228
     atom   27 type  2   force =     0.00000760   -0.00000439   -0.34754794
     atom   28 type  2   force =     0.00000439   -0.00000253   -0.34754059
     atom   29 type  1   force =    -0.00000057   -0.00000019    0.45229796
     atom   30 type  1   force =     0.00000000   -0.00001103    0.45229228
     atom   31 type  2   force =    -0.00000287   -0.00000162   -0.34755216
     atom   32 type  2   force =     0.00000000    0.00000507   -0.34754059
     atom   33 type  1   force =     0.00000000    0.00001904    0.45228563
     atom   34 type  1   force =     0.00001016    0.00000586    0.45230682
     atom   35 type  2   force =     0.00000000    0.00000878   -0.34754794
     atom   36 type  2   force =     0.00000550    0.00000317   -0.34754433
     The core correction contribution to forces
     atom    1 type  1   force =     0.00000029    0.00000017    0.00650945
     atom    2 type  1   force =    -0.00000000   -0.00000012    0.00650859
     atom    3 type  2   force =    -0.00000001   -0.00000001    0.00024422
     atom    4 type  2   force =    -0.00000000    0.00000005    0.00024416
     atom    5 type  1   force =     0.00000000    0.00000035    0.00650927
     atom    6 type  1   force =     0.00000014    0.00000006    0.00650909
     atom    7 type  2   force =    -0.00000000    0.00000001    0.00024418
     atom    8 type  2   force =     0.00000002    0.00000001    0.00024417
     atom    9 type  1   force =     0.00000031   -0.00000018    0.00650927
     atom   10 type  1   force =    -0.00000010    0.00000006    0.00650859
     atom   11 type  2   force =     0.00000001   -0.00000001    0.00024418
     atom   12 type  2   force =     0.00000004   -0.00000002    0.00024416
     atom   13 type  1   force =    -0.00000002   -0.00000009    0.00650887
     atom   14 type  1   force =    -0.00000021   -0.00000012    0.00650912
     atom   15 type  2   force =     0.00000000    0.00000001    0.00024414
     atom   16 type  2   force =    -0.00000001   -0.00000000    0.00024421
     atom   17 type  1   force =    -0.00000010    0.00000006    0.00650887
     atom   18 type  1   force =    -0.00000011    0.00000006    0.00650909
     atom   19 type  2   force =     0.00000001   -0.00000000    0.00024414
     atom   20 type  2   force =    -0.00000002    0.00000001    0.00024417
     atom   21 type  1   force =    -0.00000031   -0.00000018    0.00650927
     atom   22 type  1   force =     0.00000002   -0.00000016    0.00650909
     atom   23 type  2   force =    -0.00000001   -0.00000001    0.00024418
     atom   24 type  2   force =    -0.00000000   -0.00000003    0.00024417
     atom   25 type  1   force =    -0.00000029    0.00000017    0.00650945
     atom   26 type  1   force =     0.00000021   -0.00000012    0.00650912
     atom   27 type  2   force =     0.00000001   -0.00000001    0.00024422
     atom   28 type  2   force =     0.00000001   -0.00000000    0.00024421
     atom   29 type  1   force =     0.00000007    0.00000006    0.00650887
     atom   30 type  1   force =     0.00000000    0.00000024    0.00650912
     atom   31 type  2   force =    -0.00000001   -0.00000000    0.00024414
     atom   32 type  2   force =     0.00000000    0.00000001    0.00024421
     atom   33 type  1   force =     0.00000000   -0.00000033    0.00650945
     atom   34 type  1   force =     0.00000010    0.00000006    0.00650859
     atom   35 type  2   force =     0.00000000    0.00000001    0.00024422
     atom   36 type  2   force =    -0.00000004   -0.00000002    0.00024416
     The Hubbard contrib.    to forces
     atom    1 type  1   force =     0.00000000    0.00000000    0.00000000
     atom    2 type  1   force =     0.00000000    0.00000000    0.00000000
     atom    3 type  2   force =     0.00000000    0.00000000    0.00000000
     atom    4 type  2   force =     0.00000000    0.00000000    0.00000000
     atom    5 type  1   force =     0.00000000    0.00000000    0.00000000
     atom    6 type  1   force =     0.00000000    0.00000000    0.00000000
     atom    7 type  2   force =     0.00000000    0.00000000    0.00000000
     atom    8 type  2   force =     0.00000000    0.00000000    0.00000000
     atom    9 type  1   force =     0.00000000    0.00000000    0.00000000
     atom   10 type  1   force =     0.00000000    0.00000000    0.00000000
     atom   11 type  2   force =     0.00000000    0.00000000    0.00000000
     atom   12 type  2   force =     0.00000000    0.00000000    0.00000000
     atom   13 type  1   force =     0.00000000    0.00000000    0.00000000
     atom   14 type  1   force =     0.00000000    0.00000000    0.00000000
     atom   15 type  2   force =     0.00000000    0.00000000    0.00000000
     atom   16 type  2   force =     0.00000000    0.00000000    0.00000000
     atom   17 type  1   force =     0.00000000    0.00000000    0.00000000
     atom   18 type  1   force =     0.00000000    0.00000000    0.00000000
     atom   19 type  2   force =     0.00000000    0.00000000    0.00000000
     atom   20 type  2   force =     0.00000000    0.00000000    0.00000000
     atom   21 type  1   force =     0.00000000    0.00000000    0.00000000
     atom   22 type  1   force =     0.00000000    0.00000000    0.00000000
     atom   23 type  2   force =     0.00000000    0.00000000    0.00000000
     atom   24 type  2   force =     0.00000000    0.00000000    0.00000000
     atom   25 type  1   force =     0.00000000    0.00000000    0.00000000
     atom   26 type  1   force =     0.00000000    0.00000000    0.00000000
     atom   27 type  2   force =     0.00000000    0.00000000    0.00000000
     atom   28 type  2   force =     0.00000000    0.00000000    0.00000000
     atom   29 type  1   force =     0.00000000    0.00000000    0.00000000
     atom   30 type  1   force =     0.00000000    0.00000000    0.00000000
     atom   31 type  2   force =     0.00000000    0.00000000    0.00000000
     atom   32 type  2   force =     0.00000000    0.00000000    0.00000000
     atom   33 type  1   force =     0.00000000    0.00000000    0.00000000
     atom   34 type  1   force =     0.00000000    0.00000000    0.00000000
     atom   35 type  2   force =     0.00000000    0.00000000    0.00000000
     atom   36 type  2   force =     0.00000000    0.00000000    0.00000000
     The SCF correction term to forces
     atom    1 type  1   force =     0.00001606    0.00000927    0.00000087
     atom    2 type  1   force =    -0.00000000    0.00001858   -0.00002109
     atom    3 type  2   force =     0.00000733    0.00000423   -0.00000127
     atom    4 type  2   force =    -0.00000000    0.00001004   -0.00000714
     atom    5 type  1   force =    -0.00000000    0.00003094   -0.00000260
     atom    6 type  1   force =     0.00002080    0.00001201   -0.00000475
     atom    7 type  2   force =     0.00000000    0.00000408   -0.00000337
     atom    8 type  2   force =     0.00001318    0.00000761   -0.00000202
     atom    9 type  1   force =     0.00002679   -0.00001547   -0.00000260
     atom   10 type  1   force =     0.00001609   -0.00000929   -0.00002109
     atom   11 type  2   force =     0.00000353   -0.00000204   -0.00000337
     atom   12 type  2   force =     0.00000870   -0.00000502   -0.00000714
     atom   13 type  1   force =     0.00000000   -0.00000213   -0.00000620
     atom   14 type  1   force =    -0.00001060   -0.00000612   -0.00000584
     atom   15 type  2   force =     0.00000000   -0.00000472   -0.00000032
     atom   16 type  2   force =     0.00000449    0.00000259   -0.00000957
     atom   17 type  1   force =    -0.00000184    0.00000106   -0.00000620
     atom   18 type  1   force =    -0.00002080    0.00001201   -0.00000475
     atom   19 type  2   force =    -0.00000409    0.00000236   -0.00000032
     atom   20 type  2   force =    -0.00001318    0.00000761   -0.00000202
     atom   21 type  1   force =    -0.00002679   -0.00001547   -0.00000260
     atom   22 type  1   force =    -0.00000000   -0.00002402   -0.00000475
     atom   23 type  2   force =    -0.00000353   -0.00000204   -0.00000337
     atom   24 type  2   force =    -0.00000000   -0.00001521   -0.00000202
     atom   25 type  1   force =    -0.00001606    0.00000927    0.00000087
     atom   26 type  1   force =     0.00001060   -0.00000612   -0.00000584
     atom   27 type  2   force =    -0.00000733    0.00000423   -0.00000127
     atom   28 type  2   force =    -0.00000449    0.00000259   -0.00000957
     atom   29 type  1   force =     0.00000184    0.00000106   -0.00000620
     atom   30 type  1   force =     0.00000000    0.00001224   -0.00000584
     atom   31 type  2   force =     0.00000409    0.00000236   -0.00000032
     atom   32 type  2   force =    -0.00000000   -0.00000518   -0.00000957
     atom   33 type  1   force =     0.00000000   -0.00001854    0.00000087
     atom   34 type  1   force =    -0.00001609   -0.00000929   -0.00002109
     atom   35 type  2   force =     0.00000000   -0.00000847   -0.00000127
     atom   36 type  2   force =    -0.00000870   -0.00000502   -0.00000714

     Total force =     0.100504     Total SCF correction =     0.000103

     init_run     :     29.50s CPU     26.61s WALL (       1 calls)
     electrons    :   1555.45s CPU   1238.74s WALL (       1 calls)
     forces       :     30.41s CPU     19.68s WALL (       1 calls)

     Called by init_run:
     wfcinit      :     21.75s CPU     18.47s WALL (       1 calls)
     wfcinit:atom :      0.41s CPU      0.65s WALL (       5 calls)
     wfcinit:wfcr :     18.73s CPU     14.91s WALL (       5 calls)
     potinit      :      3.19s CPU      3.41s WALL (       1 calls)
     hinit0       :      3.87s CPU      3.95s WALL (       1 calls)

     Called by electrons:
     c_bands      :   1428.23s CPU   1122.01s WALL (      17 calls)
     sum_band     :     96.51s CPU     84.25s WALL (      17 calls)
     v_of_rho     :     18.46s CPU     19.96s WALL (      18 calls)
     v_h          :      1.07s CPU      1.10s WALL (      18 calls)
     v_xc         :     18.36s CPU     19.95s WALL (      19 calls)
     newd         :      9.01s CPU      9.20s WALL (      18 calls)
     mix_rho      :      2.34s CPU      2.52s WALL (      17 calls)

     Called by c_bands:
     init_us_2    :     12.59s CPU     11.87s WALL (     180 calls)
     init_us_2:cp :     12.59s CPU     11.87s WALL (     180 calls)
     cegterg      :   1308.74s CPU   1002.53s WALL (      85 calls)

     Called by sum_band:
     sum_band:wei :      0.02s CPU      0.03s WALL (      17 calls)
     sum_band:loo :     88.72s CPU     76.48s WALL (      17 calls)
     sum_band:buf :      2.07s CPU      1.85s WALL (      85 calls)
     sum_band:ini :      6.38s CPU      5.62s WALL (      85 calls)
     sum_band:cal :     24.23s CPU     13.10s WALL (      85 calls)
     sum_band:bec :      0.05s CPU      0.04s WALL (      85 calls)
     addusdens    :      3.00s CPU      2.77s WALL (      17 calls)
                                        0.00s GPU  (      17 calls)
     addusd:skk   :      0.08s CPU      0.09s WALL (      34 calls)
                                        0.00s GPU  (      34 calls)

     Called by *egterg:
     cdiaghg      :     86.73s CPU     62.51s WALL (     649 calls)
     cegterg:over :     99.80s CPU     53.16s WALL (     564 calls)
     cegterg:upda :     92.52s CPU     70.48s WALL (     564 calls)
     cegterg:last :    249.05s CPU    190.95s WALL (     342 calls)
     h_psi        :    607.61s CPU    497.97s WALL (     654 calls)
     s_psi        :    120.95s CPU     63.98s WALL (     654 calls)
     g_psi        :      7.82s CPU      6.99s WALL (     564 calls)

     Called by h_psi:
     h_psi:calbec :    110.85s CPU     60.69s WALL (     654 calls)
     vloc_psi     :    367.74s CPU    366.23s WALL (     654 calls)
     add_vuspsi   :    127.26s CPU     67.82s WALL (     654 calls)

     General routines
     calbec       :    156.90s CPU     85.08s WALL (     759 calls)
     fft          :      9.98s CPU      9.98s WALL (     243 calls)
     ffts         :      1.26s CPU      1.25s WALL (      35 calls)
     fftw         :    307.59s CPU    306.15s WALL (   32419 calls)
     interpolate  :      1.99s CPU      1.99s WALL (      18 calls)

     Parallel routines

     PWSCF        :  26m56.12s CPU  21m25.89s WALL


   This run was terminated on:  22:44:35  24Aug2025            

=------------------------------------------------------------------------------=
   JOB DONE.
=------------------------------------------------------------------------------=
Note: The following floating-point exceptions are signalling: IEEE_INVALID_FLAG
Note: The following floating-point exceptions are signalling: IEEE_INVALID_FLAG
Note: The following floating-point exceptions are signalling: IEEE_INVALID_FLAG
Note: The following floating-point exceptions are signalling: IEEE_INVALID_FLAG
Note: The following floating-point exceptions are signalling: IEEE_INVALID_FLAG
Note: The following floating-point exceptions are signalling: IEEE_INVALID_FLAG
Note: The following floating-point exceptions are signalling: IEEE_INVALID_FLAG
Note: The following floating-point exceptions are signalling: IEEE_INVALID_FLAG
Note: The following floating-point exceptions are signalling: IEEE_INVALID_FLAG
Note: The following floating-point exceptions are signalling: IEEE_INVALID_FLAG
Note: The following floating-point exceptions are signalling: IEEE_INVALID_FLAG
Note: The following floating-point exceptions are signalling: IEEE_INVALID_FLAG
Note: The following floating-point exceptions are signalling: IEEE_INVALID_FLAG
Note: The following floating-point exceptions are signalling: IEEE_INVALID_FLAG
Note: The following floating-point exceptions are signalling: IEEE_INVALID_FLAG
Note: The following floating-point exceptions are signalling: IEEE_INVALID_FLAG
Note: The following floating-point exceptions are signalling: IEEE_INVALID_FLAG
Note: The following floating-point exceptions are signalling: IEEE_INVALID_FLAG
Note: The following floating-point exceptions are signalling: IEEE_INVALID_FLAG
Note: The following floating-point exceptions are signalling: IEEE_INVALID_FLAG
Note: The following floating-point exceptions are signalling: IEEE_INVALID_FLAG
Note: The following floating-point exceptions are signalling: IEEE_INVALID_FLAG
Note: The following floating-point exceptions are signalling: IEEE_INVALID_FLAG
Note: The following floating-point exceptions are signalling: IEEE_INVALID_FLAG
Note: The following floating-point exceptions are signalling: IEEE_INVALID_FLAG
Note: The following floating-point exceptions are signalling: IEEE_INVALID_FLAG
Note: The following floating-point exceptions are signalling: IEEE_INVALID_FLAG
Note: The following floating-point exceptions are signalling: IEEE_INVALID_FLAG
Note: The following floating-point exceptions are signalling: IEEE_INVALID_FLAG
Note: The following floating-point exceptions are signalling: IEEE_INVALID_FLAG
Note: The following floating-point exceptions are signalling: IEEE_INVALID_FLAG
Note: The following floating-point exceptions are signalling: IEEE_INVALID_FLAG
