
     Program PWSCF v.7.2 starts on 25Aug2025 at 15:57:41 

     This program is part of the open-source Quantum ESPRESSO suite
     for quantum simulation of materials; please cite
         "P. Giannozzi et al., J. Phys.:Condens. Matter 21 395502 (2009);
         "P. Giannozzi et al., J. Phys.:Condens. Matter 29 465901 (2017);
         "P. Giannozzi et al., J. Chem. Phys. 152 154105 (2020);
          URL http://www.quantum-espresso.org", 
     in publications or presentations arising from this work. More details at
     http://www.quantum-espresso.org/quote

     Parallel version (MPI), running on    32 processors

     MPI processes distributed on     1 nodes
     119460 MiB available memory on the printing compute node when the environment starts

     Reading input from /home/jvc/QEspresso7.2/ZnO_database/scripts/cell331.in/ZnO-3.27-1.49-331.in
Warning: card &CELL ignored
Warning: card / ignored
Warning: card &FCP ignored
Warning: card / ignored
Warning: card &RISM ignored
Warning: card / ignored

     Current dimensions of program PWSCF are:
     Max number of different atomic species (ntypx) = 10
     Max number of k-points (npk) =  40000
     Max angular momentum in pseudopotentials (lmaxx) =  4
     file Zn.upf: wavefunction(s)  3D renormalized
     Found identity + (  0.0000  0.3333  0.0000) symmetry
     This is a supercell, fractional translations are disabled
     Message from routine setup:
     using ibrav=0 with symmetry is DISCOURAGED, use correct ibrav instead

     K-points division:     npool     =       8
     band groups division:  nbgrp     =       4
     Subspace diagonalization in iterative solution of the eigenvalue problem:
     a serial algorithm will be used


     G-vector sticks info
     --------------------
     sticks:   dense  smooth     PW     G-vecs:    dense   smooth      PW
     Sum        9469    4741   1333               368771   130517   19281

     Using Slab Decomposition



     bravais-lattice index     =            0
     lattice parameter (alat)  =      18.5366  a.u.
     unit-cell volume          =    2730.7674 (a.u.)^3
     number of atoms/cell      =           36
     number of atomic types    =            2
     number of electrons       =       324.00
     number of Kohn-Sham states=          162
     kinetic-energy cutoff     =      50.0000  Ry
     charge density cutoff     =     400.0000  Ry
     scf convergence threshold =      1.0E-08
     mixing beta               =       0.3000
     number of iterations used =            8  plain     mixing
     Exchange-correlation= PBE
                           (   1   4   3   4   0   0   0)

     celldm(1)=  18.536562  celldm(2)=   0.000000  celldm(3)=   0.000000
     celldm(4)=   0.000000  celldm(5)=   0.000000  celldm(6)=   0.000000

     crystal axes: (cart. coord. in units of alat)
               a(1) = (   1.000000   0.000000   0.000000 )  
               a(2) = (  -0.500000   0.866025   0.000000 )  
               a(3) = (   0.000000   0.000000   0.495070 )  

     reciprocal axes: (cart. coord. in units 2 pi/alat)
               b(1) = (  1.000000  0.577350 -0.000000 )  
               b(2) = (  0.000000  1.154701  0.000000 )  
               b(3) = (  0.000000 -0.000000  2.019917 )  


     PseudoPot. # 1 for Zn read from file:
     /home/jvc/QEspresso7.2/ZnO_database/pseudos/Zn.upf
     MD5 check sum: 7f56cabf9682ed8c977c2f7d0c5985c5
     Pseudo is Ultrasoft + core correction, Zval = 12.0
     Generated using &quot;atomic&quot; code by A. Dal Corso  v.6.2.2
     Using radial grid of 1201 points,  6 beta functions with: 
                l(1) =   0
                l(2) =   0
                l(3) =   1
                l(4) =   1
                l(5) =   2
                l(6) =   2
     Q(r) pseudized with 0 coefficients 


     PseudoPot. # 2 for O  read from file:
     /home/jvc/QEspresso7.2/ZnO_database/pseudos/O.upf
     MD5 check sum: 91400c9766925bcf19f520983a725ff0
     Pseudo is Ultrasoft + core correction, Zval =  6.0
     Generated using &quot;atomic&quot; code by A. Dal Corso  v.6.3MaX
     Using radial grid of 1095 points,  4 beta functions with: 
                l(1) =   0
                l(2) =   0
                l(3) =   1
                l(4) =   1
     Q(r) pseudized with 0 coefficients 


     atomic species   valence    mass     pseudopotential
        Zn            12.00    65.38000     Zn( 1.00)
        O              6.00    15.99900     O ( 1.00)

      6 Sym. Ops. (no inversion) found


                                    s                        frac. trans.

      isym =  1     identity                                     

 cryst.   s( 1) = (     1          0          0      )
                  (     0          1          0      )
                  (     0          0          1      )

 cart.    s( 1) = (  1.0000000  0.0000000  0.0000000 )
                  (  0.0000000  1.0000000  0.0000000 )
                  (  0.0000000  0.0000000  1.0000000 )


      isym =  2     120 deg rotation - cryst. axis [0,0,1]       

 cryst.   s( 2) = (     0          1          0      )
                  (    -1         -1          0      )
                  (     0          0          1      )

 cart.    s( 2) = ( -0.5000000 -0.8660254  0.0000000 )
                  (  0.8660254 -0.5000000  0.0000000 )
                  (  0.0000000  0.0000000  1.0000000 )


      isym =  3     120 deg rotation - cryst. axis [0,0,-1]      

 cryst.   s( 3) = (    -1         -1          0      )
                  (     1          0          0      )
                  (     0          0          1      )

 cart.    s( 3) = ( -0.5000000  0.8660254  0.0000000 )
                  ( -0.8660254 -0.5000000  0.0000000 )
                  (  0.0000000  0.0000000  1.0000000 )


      isym =  4     inv. 180 deg rotation - cart. axis [1,0,0]   

 cryst.   s( 4) = (    -1          0          0      )
                  (     1          1          0      )
                  (     0          0          1      )

 cart.    s( 4) = ( -1.0000000  0.0000000  0.0000000 )
                  (  0.0000000  1.0000000  0.0000000 )
                  (  0.0000000  0.0000000  1.0000000 )


      isym =  5     inv. 180 deg rotation - cryst. axis [0,1,0]  

 cryst.   s( 5) = (     1          1          0      )
                  (     0         -1          0      )
                  (     0          0          1      )

 cart.    s( 5) = (  0.5000000  0.8660254  0.0000000 )
                  (  0.8660254 -0.5000000  0.0000000 )
                  (  0.0000000  0.0000000  1.0000000 )


      isym =  6     inv. 180 deg rotation - cryst. axis [1,1,0]  

 cryst.   s( 6) = (     0         -1          0      )
                  (    -1          0          0      )
                  (     0          0          1      )

 cart.    s( 6) = (  0.5000000 -0.8660254  0.0000000 )
                  ( -0.8660254 -0.5000000  0.0000000 )
                  (  0.0000000  0.0000000  1.0000000 )


   Cartesian axes

     site n.     atom                  positions (alat units)
         1           Zn  tau(   1) = (   0.1666667   0.0962250   0.2478486  )
         2           Zn  tau(   2) = (   0.0000000   0.1924501   0.0003137  )
         3           O   tau(   3) = (   0.1666667   0.0962250   0.4355013  )
         4           O   tau(   4) = (   0.0000000   0.1924501   0.1879664  )
         5           Zn  tau(   5) = (   0.0000000   0.3849002   0.2478486  )
         6           Zn  tau(   6) = (  -0.1666667   0.4811252   0.0003137  )
         7           O   tau(   7) = (   0.0000000   0.3849002   0.4355013  )
         8           O   tau(   8) = (  -0.1666667   0.4811252   0.1879664  )
         9           Zn  tau(   9) = (  -0.1666667   0.6735753   0.2478486  )
        10           Zn  tau(  10) = (  -0.3333333   0.7698004   0.0003137  )
        11           O   tau(  11) = (  -0.1666667   0.6735753   0.4355013  )
        12           O   tau(  12) = (  -0.3333333   0.7698004   0.1879664  )
        13           Zn  tau(  13) = (   0.5000000   0.0962250   0.2478486  )
        14           Zn  tau(  14) = (   0.3333333   0.1924501   0.0003137  )
        15           O   tau(  15) = (   0.5000000   0.0962250   0.4355013  )
        16           O   tau(  16) = (   0.3333333   0.1924501   0.1879664  )
        17           Zn  tau(  17) = (   0.3333333   0.3849002   0.2478486  )
        18           Zn  tau(  18) = (   0.1666667   0.4811252   0.0003137  )
        19           O   tau(  19) = (   0.3333333   0.3849002   0.4355013  )
        20           O   tau(  20) = (   0.1666667   0.4811252   0.1879664  )
        21           Zn  tau(  21) = (   0.1666667   0.6735753   0.2478486  )
        22           Zn  tau(  22) = (  -0.0000000   0.7698004   0.0003137  )
        23           O   tau(  23) = (   0.1666667   0.6735753   0.4355013  )
        24           O   tau(  24) = (  -0.0000000   0.7698004   0.1879664  )
        25           Zn  tau(  25) = (   0.8333333   0.0962250   0.2478486  )
        26           Zn  tau(  26) = (   0.6666667   0.1924501   0.0003137  )
        27           O   tau(  27) = (   0.8333333   0.0962250   0.4355013  )
        28           O   tau(  28) = (   0.6666667   0.1924501   0.1879664  )
        29           Zn  tau(  29) = (   0.6666667   0.3849002   0.2478486  )
        30           Zn  tau(  30) = (   0.5000000   0.4811252   0.0003137  )
        31           O   tau(  31) = (   0.6666667   0.3849002   0.4355013  )
        32           O   tau(  32) = (   0.5000000   0.4811252   0.1879664  )
        33           Zn  tau(  33) = (   0.5000000   0.6735753   0.2478486  )
        34           Zn  tau(  34) = (   0.3333333   0.7698004   0.0003137  )
        35           O   tau(  35) = (   0.5000000   0.6735753   0.4355013  )
        36           O   tau(  36) = (   0.3333333   0.7698004   0.1879664  )

   Crystallographic axes

     site n.     atom                  positions (cryst. coord.)
         1           Zn  tau(   1) = (  0.2222222  0.1111111  0.5006336  )
         2           Zn  tau(   2) = (  0.1111111  0.2222222  0.0006336  )
         3           O   tau(   3) = (  0.2222222  0.1111111  0.8796764  )
         4           O   tau(   4) = (  0.1111111  0.2222222  0.3796764  )
         5           Zn  tau(   5) = (  0.2222222  0.4444444  0.5006336  )
         6           Zn  tau(   6) = (  0.1111111  0.5555556  0.0006336  )
         7           O   tau(   7) = (  0.2222222  0.4444444  0.8796764  )
         8           O   tau(   8) = (  0.1111111  0.5555556  0.3796764  )
         9           Zn  tau(   9) = (  0.2222222  0.7777778  0.5006336  )
        10           Zn  tau(  10) = (  0.1111111  0.8888889  0.0006336  )
        11           O   tau(  11) = (  0.2222222  0.7777778  0.8796764  )
        12           O   tau(  12) = (  0.1111111  0.8888889  0.3796764  )
        13           Zn  tau(  13) = (  0.5555556  0.1111111  0.5006336  )
        14           Zn  tau(  14) = (  0.4444444  0.2222222  0.0006336  )
        15           O   tau(  15) = (  0.5555556  0.1111111  0.8796764  )
        16           O   tau(  16) = (  0.4444444  0.2222222  0.3796764  )
        17           Zn  tau(  17) = (  0.5555556  0.4444444  0.5006336  )
        18           Zn  tau(  18) = (  0.4444444  0.5555556  0.0006336  )
        19           O   tau(  19) = (  0.5555556  0.4444444  0.8796764  )
        20           O   tau(  20) = (  0.4444444  0.5555556  0.3796764  )
        21           Zn  tau(  21) = (  0.5555556  0.7777778  0.5006336  )
        22           Zn  tau(  22) = (  0.4444444  0.8888889  0.0006336  )
        23           O   tau(  23) = (  0.5555556  0.7777778  0.8796764  )
        24           O   tau(  24) = (  0.4444444  0.8888889  0.3796764  )
        25           Zn  tau(  25) = (  0.8888889  0.1111111  0.5006336  )
        26           Zn  tau(  26) = (  0.7777778  0.2222222  0.0006336  )
        27           O   tau(  27) = (  0.8888889  0.1111111  0.8796764  )
        28           O   tau(  28) = (  0.7777778  0.2222222  0.3796764  )
        29           Zn  tau(  29) = (  0.8888889  0.4444444  0.5006336  )
        30           Zn  tau(  30) = (  0.7777778  0.5555556  0.0006336  )
        31           O   tau(  31) = (  0.8888889  0.4444444  0.8796764  )
        32           O   tau(  32) = (  0.7777778  0.5555556  0.3796764  )
        33           Zn  tau(  33) = (  0.8888889  0.7777778  0.5006336  )
        34           Zn  tau(  34) = (  0.7777778  0.8888889  0.0006336  )
        35           O   tau(  35) = (  0.8888889  0.7777778  0.8796764  )
        36           O   tau(  36) = (  0.7777778  0.8888889  0.3796764  )

     number of k points=    34
                       cart. coord. in units 2pi/alat
        k(    1) = (   0.0000000   0.0000000   0.0000000), wk =   0.0092593
        k(    2) = (   0.0000000   0.0000000   0.3366528), wk =   0.0185185
        k(    3) = (   0.0000000   0.0000000   0.6733056), wk =   0.0185185
        k(    4) = (   0.0000000   0.0000000  -1.0099584), wk =   0.0092593
        k(    5) = (   0.0000000   0.1924501   0.0000000), wk =   0.0555556
        k(    6) = (   0.0000000   0.1924501   0.3366528), wk =   0.0555556
        k(    7) = (   0.0000000   0.1924501   0.6733056), wk =   0.0555556
        k(    8) = (   0.0000000   0.1924501  -1.0099584), wk =   0.0555556
        k(    9) = (   0.0000000   0.3849002   0.0000000), wk =   0.0555556
        k(   10) = (   0.0000000   0.3849002   0.3366528), wk =   0.0555556
        k(   11) = (   0.0000000   0.3849002   0.6733056), wk =   0.0555556
        k(   12) = (   0.0000000   0.3849002  -1.0099584), wk =   0.0555556
        k(   13) = (   0.0000000  -0.5773503   0.0000000), wk =   0.0277778
        k(   14) = (   0.0000000  -0.5773503   0.3366528), wk =   0.0555556
        k(   15) = (   0.0000000  -0.5773503   0.6733056), wk =   0.0555556
        k(   16) = (   0.0000000  -0.5773503  -1.0099584), wk =   0.0277778
        k(   17) = (   0.1666667   0.2886751   0.0000000), wk =   0.0555556
        k(   18) = (   0.1666667   0.2886751   0.3366528), wk =   0.1111111
        k(   19) = (   0.1666667   0.2886751   0.6733056), wk =   0.1111111
        k(   20) = (   0.1666667   0.2886751  -1.0099584), wk =   0.0555556
        k(   21) = (   0.1666667   0.4811252   0.0000000), wk =   0.1111111
        k(   22) = (   0.1666667   0.4811252   0.3366528), wk =   0.1111111
        k(   23) = (   0.1666667   0.4811252   0.6733056), wk =   0.1111111
        k(   24) = (   0.1666667   0.4811252  -1.0099584), wk =   0.1111111
        k(   25) = (   0.3333333   0.5773503   0.0000000), wk =   0.0185185
        k(   26) = (   0.3333333   0.5773503   0.3366528), wk =   0.0370370
        k(   27) = (   0.3333333   0.5773503   0.6733056), wk =   0.0370370
        k(   28) = (   0.3333333   0.5773503  -1.0099584), wk =   0.0185185
        k(   29) = (   0.0000000  -0.1924501   0.3366528), wk =   0.0555556
        k(   30) = (   0.0000000  -0.1924501   0.6733056), wk =   0.0555556
        k(   31) = (   0.0000000  -0.3849002   0.3366528), wk =   0.0555556
        k(   32) = (   0.0000000  -0.3849002   0.6733056), wk =   0.0555556
        k(   33) = (  -0.1666667  -0.4811252   0.3366528), wk =   0.1111111
        k(   34) = (  -0.1666667  -0.4811252   0.6733056), wk =   0.1111111

                       cryst. coord.
        k(    1) = (   0.0000000   0.0000000   0.0000000), wk =   0.0092593
        k(    2) = (   0.0000000   0.0000000   0.1666667), wk =   0.0185185
        k(    3) = (   0.0000000   0.0000000   0.3333333), wk =   0.0185185
        k(    4) = (   0.0000000   0.0000000  -0.5000000), wk =   0.0092593
        k(    5) = (   0.0000000   0.1666667   0.0000000), wk =   0.0555556
        k(    6) = (   0.0000000   0.1666667   0.1666667), wk =   0.0555556
        k(    7) = (   0.0000000   0.1666667   0.3333333), wk =   0.0555556
        k(    8) = (   0.0000000   0.1666667  -0.5000000), wk =   0.0555556
        k(    9) = (   0.0000000   0.3333333   0.0000000), wk =   0.0555556
        k(   10) = (   0.0000000   0.3333333   0.1666667), wk =   0.0555556
        k(   11) = (   0.0000000   0.3333333   0.3333333), wk =   0.0555556
        k(   12) = (   0.0000000   0.3333333  -0.5000000), wk =   0.0555556
        k(   13) = (   0.0000000  -0.5000000   0.0000000), wk =   0.0277778
        k(   14) = (   0.0000000  -0.5000000   0.1666667), wk =   0.0555556
        k(   15) = (   0.0000000  -0.5000000   0.3333333), wk =   0.0555556
        k(   16) = (   0.0000000  -0.5000000  -0.5000000), wk =   0.0277778
        k(   17) = (   0.1666667   0.1666667   0.0000000), wk =   0.0555556
        k(   18) = (   0.1666667   0.1666667   0.1666667), wk =   0.1111111
        k(   19) = (   0.1666667   0.1666667   0.3333333), wk =   0.1111111
        k(   20) = (   0.1666667   0.1666667  -0.5000000), wk =   0.0555556
        k(   21) = (   0.1666667   0.3333333   0.0000000), wk =   0.1111111
        k(   22) = (   0.1666667   0.3333333   0.1666667), wk =   0.1111111
        k(   23) = (   0.1666667   0.3333333   0.3333333), wk =   0.1111111
        k(   24) = (   0.1666667   0.3333333  -0.5000000), wk =   0.1111111
        k(   25) = (   0.3333333   0.3333333   0.0000000), wk =   0.0185185
        k(   26) = (   0.3333333   0.3333333   0.1666667), wk =   0.0370370
        k(   27) = (   0.3333333   0.3333333   0.3333333), wk =   0.0370370
        k(   28) = (   0.3333333   0.3333333  -0.5000000), wk =   0.0185185
        k(   29) = (   0.0000000  -0.1666667   0.1666667), wk =   0.0555556
        k(   30) = (   0.0000000  -0.1666667   0.3333333), wk =   0.0555556
        k(   31) = (   0.0000000  -0.3333333   0.1666667), wk =   0.0555556
        k(   32) = (   0.0000000  -0.3333333   0.3333333), wk =   0.0555556
        k(   33) = (  -0.1666667  -0.3333333   0.1666667), wk =   0.1111111
        k(   34) = (  -0.1666667  -0.3333333   0.3333333), wk =   0.1111111

     Dense  grid:   368771 G-vectors     FFT dimensions: ( 120, 120,  60)

     Smooth grid:   130517 G-vectors     FFT dimensions: (  90,  90,  45)

     Dynamical RAM for                 wfc:      40.30 MB

     Dynamical RAM for     wfc (w. buffer):     241.81 MB

     Dynamical RAM for           str. fact:      11.25 MB

     Dynamical RAM for           local pot:       0.00 MB

     Dynamical RAM for          nlocal pot:     116.43 MB

     Dynamical RAM for                qrad:       3.21 MB

     Dynamical RAM for          rho,v,vnew:      36.66 MB

     Dynamical RAM for               rhoin:      12.22 MB

     Dynamical RAM for            rho*nmix:      90.03 MB

     Dynamical RAM for           G-vectors:      22.10 MB

     Dynamical RAM for          h,s,v(r/c):       4.81 MB

     Dynamical RAM for          <psi|beta>:       1.16 MB

     Dynamical RAM for                 psi:      80.60 MB

     Dynamical RAM for                hpsi:      80.60 MB

     Dynamical RAM for                spsi:      80.60 MB

     Dynamical RAM for      wfcinit/wfcrot:     117.68 MB

     Dynamical RAM for           addusdens:     148.41 MB

     Dynamical RAM for          addusforce:     170.29 MB

     Estimated static dynamical RAM per process >     493.52 MB

     Estimated max dynamical RAM per process >     831.33 MB

     Estimated total dynamical RAM >      23.52 GB

     Check: negative core charge=   -0.000002

     Initial potential from superposition of free atoms

     starting charge     323.9329, renormalised to     324.0000
     Starting wfcs are  234 randomized atomic wfcs

     total cpu time spent up to now is       30.2 secs

     Self-consistent Calculation

     iteration #  1     ecut=    50.00 Ry     beta= 0.30
     Davidson diagonalization with overlap

---- Real-time Memory Report at c_bands before calling an iterative solver
           600 MiB given to the printing process from OS
             0 MiB allocation reported by mallinfo(arena+hblkhd)
        104263 MiB available memory on the node where the printing process lives
------------------
     ethr =  1.00E-02,  avg # of iterations =  2.0

     total cpu time spent up to now is       74.7 secs

     total energy              =   -3253.12729856 Ry
     estimated scf accuracy    <       6.20857301 Ry

     iteration #  2     ecut=    50.00 Ry     beta= 0.30
     Davidson diagonalization with overlap

---- Real-time Memory Report at c_bands before calling an iterative solver
           778 MiB given to the printing process from OS
             0 MiB allocation reported by mallinfo(arena+hblkhd)
        100532 MiB available memory on the node where the printing process lives
------------------
     ethr =  1.92E-03,  avg # of iterations =  2.1

     total cpu time spent up to now is      126.9 secs

     total energy              =   -3253.82639252 Ry
     estimated scf accuracy    <       0.95544843 Ry

     iteration #  3     ecut=    50.00 Ry     beta= 0.30
     Davidson diagonalization with overlap

---- Real-time Memory Report at c_bands before calling an iterative solver
           827 MiB given to the printing process from OS
             0 MiB allocation reported by mallinfo(arena+hblkhd)
        100156 MiB available memory on the node where the printing process lives
------------------
     ethr =  2.95E-04,  avg # of iterations =  8.1

     total cpu time spent up to now is      223.6 secs

     total energy              =   -3254.19806114 Ry
     estimated scf accuracy    <       0.65810000 Ry

     iteration #  4     ecut=    50.00 Ry     beta= 0.30
     Davidson diagonalization with overlap

---- Real-time Memory Report at c_bands before calling an iterative solver
           832 MiB given to the printing process from OS
             0 MiB allocation reported by mallinfo(arena+hblkhd)
        100832 MiB available memory on the node where the printing process lives
------------------
     ethr =  2.03E-04,  avg # of iterations =  7.8

     total cpu time spent up to now is      320.7 secs

     total energy              =   -3254.68610886 Ry
     estimated scf accuracy    <       0.81153386 Ry

     iteration #  5     ecut=    50.00 Ry     beta= 0.30
     Davidson diagonalization with overlap

---- Real-time Memory Report at c_bands before calling an iterative solver
           836 MiB given to the printing process from OS
             0 MiB allocation reported by mallinfo(arena+hblkhd)
        100871 MiB available memory on the node where the printing process lives
------------------
     ethr =  2.03E-04,  avg # of iterations =  1.4

     total cpu time spent up to now is      362.3 secs

     total energy              =   -3254.29340282 Ry
     estimated scf accuracy    <       0.75030232 Ry

     iteration #  6     ecut=    50.00 Ry     beta= 0.30
     Davidson diagonalization with overlap

---- Real-time Memory Report at c_bands before calling an iterative solver
           840 MiB given to the printing process from OS
             0 MiB allocation reported by mallinfo(arena+hblkhd)
         99886 MiB available memory on the node where the printing process lives
------------------
     ethr =  2.03E-04,  avg # of iterations =  3.2

     total cpu time spent up to now is      412.9 secs

     total energy              =   -3254.40964808 Ry
     estimated scf accuracy    <       0.08947786 Ry

     iteration #  7     ecut=    50.00 Ry     beta= 0.30
     Davidson diagonalization with overlap

---- Real-time Memory Report at c_bands before calling an iterative solver
           844 MiB given to the printing process from OS
             0 MiB allocation reported by mallinfo(arena+hblkhd)
        100048 MiB available memory on the node where the printing process lives
------------------
     ethr =  2.76E-05,  avg # of iterations =  6.5

     total cpu time spent up to now is      500.2 secs

     total energy              =   -3254.47863239 Ry
     estimated scf accuracy    <       0.00132075 Ry

     iteration #  8     ecut=    50.00 Ry     beta= 0.30
     Davidson diagonalization with overlap

---- Real-time Memory Report at c_bands before calling an iterative solver
           847 MiB given to the printing process from OS
             0 MiB allocation reported by mallinfo(arena+hblkhd)
        101112 MiB available memory on the node where the printing process lives
------------------
     c_bands:  1 eigenvalues not converged
     ethr =  4.08E-07,  avg # of iterations = 11.4

     total cpu time spent up to now is      622.9 secs

     total energy              =   -3254.48184239 Ry
     estimated scf accuracy    <       0.00042738 Ry

     iteration #  9     ecut=    50.00 Ry     beta= 0.30
     Davidson diagonalization with overlap

---- Real-time Memory Report at c_bands before calling an iterative solver
           852 MiB given to the printing process from OS
             0 MiB allocation reported by mallinfo(arena+hblkhd)
        100914 MiB available memory on the node where the printing process lives
------------------
     ethr =  1.32E-07,  avg # of iterations =  2.0

     total cpu time spent up to now is      665.9 secs

     total energy              =   -3254.51355121 Ry
     estimated scf accuracy    <       0.00047084 Ry

     iteration # 10     ecut=    50.00 Ry     beta= 0.30
     Davidson diagonalization with overlap

---- Real-time Memory Report at c_bands before calling an iterative solver
           856 MiB given to the printing process from OS
             0 MiB allocation reported by mallinfo(arena+hblkhd)
         99935 MiB available memory on the node where the printing process lives
------------------
     c_bands:  1 eigenvalues not converged
     c_bands:  1 eigenvalues not converged
     c_bands:  2 eigenvalues not converged
     ethr =  1.32E-07,  avg # of iterations = 18.9

     total cpu time spent up to now is      900.4 secs

     total energy              =   -3254.53863932 Ry
     estimated scf accuracy    <       0.35309365 Ry

     iteration # 11     ecut=    50.00 Ry     beta= 0.30
     Davidson diagonalization with overlap

---- Real-time Memory Report at c_bands before calling an iterative solver
           860 MiB given to the printing process from OS
             0 MiB allocation reported by mallinfo(arena+hblkhd)
        100985 MiB available memory on the node where the printing process lives
------------------
     ethr =  1.32E-07,  avg # of iterations = 12.0

     total cpu time spent up to now is     1048.2 secs

     total energy              =   -3254.57878425 Ry
     estimated scf accuracy    <       0.22718620 Ry

     iteration # 12     ecut=    50.00 Ry     beta= 0.30
     Davidson diagonalization with overlap

---- Real-time Memory Report at c_bands before calling an iterative solver
           860 MiB given to the printing process from OS
             0 MiB allocation reported by mallinfo(arena+hblkhd)
        101161 MiB available memory on the node where the printing process lives
------------------
     c_bands:  1 eigenvalues not converged
     ethr =  1.32E-07,  avg # of iterations = 15.5

     total cpu time spent up to now is     1212.1 secs

     total energy              =   -3254.53601457 Ry
     estimated scf accuracy    <       0.38133703 Ry

     iteration # 13     ecut=    50.00 Ry     beta= 0.30
     Davidson diagonalization with overlap

---- Real-time Memory Report at c_bands before calling an iterative solver
           860 MiB given to the printing process from OS
             0 MiB allocation reported by mallinfo(arena+hblkhd)
        101301 MiB available memory on the node where the printing process lives
------------------
     c_bands:  1 eigenvalues not converged
     ethr =  1.32E-07,  avg # of iterations = 15.1

     total cpu time spent up to now is     1376.8 secs

     total energy              =   -3254.52665348 Ry
     estimated scf accuracy    <       0.22235520 Ry

     iteration # 14     ecut=    50.00 Ry     beta= 0.30
     Davidson diagonalization with overlap

---- Real-time Memory Report at c_bands before calling an iterative solver
           860 MiB given to the printing process from OS
             0 MiB allocation reported by mallinfo(arena+hblkhd)
        100840 MiB available memory on the node where the printing process lives
------------------
     ethr =  1.32E-07,  avg # of iterations =  9.9

     total cpu time spent up to now is     1489.3 secs

     total energy              =   -3254.50718516 Ry
     estimated scf accuracy    <       0.17415013 Ry

     iteration # 15     ecut=    50.00 Ry     beta= 0.30
     Davidson diagonalization with overlap

---- Real-time Memory Report at c_bands before calling an iterative solver
           860 MiB given to the printing process from OS
             0 MiB allocation reported by mallinfo(arena+hblkhd)
        101113 MiB available memory on the node where the printing process lives
------------------
     ethr =  1.32E-07,  avg # of iterations = 12.7

     total cpu time spent up to now is     1633.2 secs

     total energy              =   -3254.47777397 Ry
     estimated scf accuracy    <       0.10380009 Ry

     iteration # 16     ecut=    50.00 Ry     beta= 0.30
     Davidson diagonalization with overlap

---- Real-time Memory Report at c_bands before calling an iterative solver
           860 MiB given to the printing process from OS
             0 MiB allocation reported by mallinfo(arena+hblkhd)
        101129 MiB available memory on the node where the printing process lives
------------------
     c_bands:  1 eigenvalues not converged
     c_bands:  1 eigenvalues not converged
     ethr =  1.32E-07,  avg # of iterations = 16.7

     total cpu time spent up to now is     1814.9 secs

     total energy              =   -3254.47936545 Ry
     estimated scf accuracy    <       0.01394303 Ry

     iteration # 17     ecut=    50.00 Ry     beta= 0.30
     Davidson diagonalization with overlap

---- Real-time Memory Report at c_bands before calling an iterative solver
           860 MiB given to the printing process from OS
             0 MiB allocation reported by mallinfo(arena+hblkhd)
        100971 MiB available memory on the node where the printing process lives
------------------
     ethr =  1.32E-07,  avg # of iterations = 14.6

     total cpu time spent up to now is     1969.1 secs

     total energy              =   -3254.48172607 Ry
     estimated scf accuracy    <       0.00002337 Ry

     iteration # 18     ecut=    50.00 Ry     beta= 0.30
     Davidson diagonalization with overlap

---- Real-time Memory Report at c_bands before calling an iterative solver
           860 MiB given to the printing process from OS
             0 MiB allocation reported by mallinfo(arena+hblkhd)
        101090 MiB available memory on the node where the printing process lives
------------------
     ethr =  7.21E-09,  avg # of iterations = 10.4

     total cpu time spent up to now is     2077.5 secs

     total energy              =   -3254.48175016 Ry
     estimated scf accuracy    <       0.00002012 Ry

     iteration # 19     ecut=    50.00 Ry     beta= 0.30
     Davidson diagonalization with overlap

---- Real-time Memory Report at c_bands before calling an iterative solver
           860 MiB given to the printing process from OS
             0 MiB allocation reported by mallinfo(arena+hblkhd)
        101027 MiB available memory on the node where the printing process lives
------------------
     ethr =  6.21E-09,  avg # of iterations =  1.4

     total cpu time spent up to now is     2119.3 secs

     total energy              =   -3254.48174675 Ry
     estimated scf accuracy    <       0.00000907 Ry

     iteration # 20     ecut=    50.00 Ry     beta= 0.30
     Davidson diagonalization with overlap

---- Real-time Memory Report at c_bands before calling an iterative solver
           860 MiB given to the printing process from OS
             0 MiB allocation reported by mallinfo(arena+hblkhd)
        100353 MiB available memory on the node where the printing process lives
------------------
     ethr =  2.80E-09,  avg # of iterations =  4.2

     total cpu time spent up to now is     2185.7 secs

     total energy              =   -3254.48175001 Ry
     estimated scf accuracy    <       0.00000003 Ry

     iteration # 21     ecut=    50.00 Ry     beta= 0.30
     Davidson diagonalization with overlap

---- Real-time Memory Report at c_bands before calling an iterative solver
           860 MiB given to the printing process from OS
             0 MiB allocation reported by mallinfo(arena+hblkhd)
        100557 MiB available memory on the node where the printing process lives
------------------
     c_bands:  1 eigenvalues not converged
     c_bands:  2 eigenvalues not converged
     ethr =  7.88E-12,  avg # of iterations = 14.2

     total cpu time spent up to now is     2367.3 secs

     total energy              =   -3254.48175050 Ry
     estimated scf accuracy    <       0.00000077 Ry

     iteration # 22     ecut=    50.00 Ry     beta= 0.30
     Davidson diagonalization with overlap

---- Real-time Memory Report at c_bands before calling an iterative solver
           860 MiB given to the printing process from OS
             0 MiB allocation reported by mallinfo(arena+hblkhd)
        101011 MiB available memory on the node where the printing process lives
------------------
     ethr =  7.88E-12,  avg # of iterations =  9.1

     total cpu time spent up to now is     2479.0 secs

     total energy              =   -3254.48175045 Ry
     estimated scf accuracy    <       0.00000019 Ry

     iteration # 23     ecut=    50.00 Ry     beta= 0.30
     Davidson diagonalization with overlap

---- Real-time Memory Report at c_bands before calling an iterative solver
           860 MiB given to the printing process from OS
             0 MiB allocation reported by mallinfo(arena+hblkhd)
        100853 MiB available memory on the node where the printing process lives
------------------
     ethr =  7.88E-12,  avg # of iterations = 10.7

     total cpu time spent up to now is     2604.5 secs

     End of self-consistent calculation

          k = 0.0000 0.0000 0.0000 ( 16281 PWs)   bands (ev):

   -10.4337  -9.9353  -9.9353  -9.9353  -9.9353  -9.9353  -9.9353  -9.5068
    -9.5068  -9.5068  -9.5068  -9.4802  -9.3851  -9.3851  -9.3851  -9.3851
    -9.3851  -9.3851   1.8294   1.8294   1.8294   1.8294   1.8294   1.8294
     2.1290   2.1290   2.2088   2.2088   2.2116   2.2349   2.2416   2.2416
     2.2416   2.2416   2.2416   2.2416   2.3886   2.3886   2.3886   2.3886
     2.3940   2.3940   2.3940   2.3940   2.3940   2.3940   2.4727   2.4727
     2.5173   2.5173   2.5173   2.5173   2.5173   2.5173   2.9111   2.9111
     2.9111   2.9111   2.9111   2.9111   2.9609   2.9609   2.9609   2.9609
     2.9609   2.9609   3.0124   3.0124   3.1601   3.1601   3.1601   3.1601
     3.4388   3.4388   3.4524   3.4524   3.4524   3.4524   3.4524   3.4524
     3.4916   3.4916   3.5914   3.5914   3.5914   3.5914   3.5914   3.5914
     3.6333   3.6333   3.6545   3.6545   3.6545   3.6545   3.7931   3.7931
     3.8096   3.8096   3.8096   3.8096   3.8096   3.8096   3.8429   3.8429
     3.8429   3.8429   3.8429   3.8429   4.0301   4.0407   4.0407   4.2415
     4.2415   4.2415   4.2415   4.2415   4.2415   4.6108   4.6108   4.6108
     4.6108   4.9320   4.9320   4.9320   4.9320   4.9320   4.9320   5.8477
     5.8477   5.8477   5.8477   5.8477   5.8477   5.8477   5.8477   5.8477
     5.8477   5.8477   5.8477   6.1539   6.1539   6.1539   6.1539   6.5141
     6.5141   7.0053   7.0053   7.3237   7.3237   7.3237   7.3237   7.3237
     7.3237   7.5292   7.5292   7.5292   7.5292   7.5292   7.5292   8.0896
     8.0896   8.1521

     occupation numbers 
     1.0000   1.0000   1.0000   1.0000   1.0000   1.0000   1.0000   1.0000
     1.0000   1.0000   1.0000   1.0000   1.0000   1.0000   1.0000   1.0000
     1.0000   1.0000   1.0000   1.0000   1.0000   1.0000   1.0000   1.0000
     1.0000   1.0000   1.0000   1.0000   1.0000   1.0000   1.0000   1.0000
     1.0000   1.0000   1.0000   1.0000   1.0000   1.0000   1.0000   1.0000
     1.0000   1.0000   1.0000   1.0000   1.0000   1.0000   1.0000   1.0000
     1.0000   1.0000   1.0000   1.0000   1.0000   1.0000   1.0000   1.0000
     1.0000   1.0000   1.0000   1.0000   1.0000   1.0000   1.0000   1.0000
     1.0000   1.0000   1.0000   1.0000   1.0000   1.0000   1.0000   1.0000
     1.0000   1.0000   1.0000   1.0000   1.0000   1.0000   1.0000   1.0000
     1.0000   1.0000   1.0000   1.0000   1.0000   1.0000   1.0000   1.0000
     1.0000   1.0000   1.0000   1.0000   1.0000   1.0000   1.0000   1.0000
     1.0000   1.0000   1.0000   1.0000   1.0000   1.0000   1.0000   1.0000
     1.0000   1.0000   1.0000   1.0000   1.0000   1.0000   1.0000   1.0000
     1.0000   1.0000   1.0000   1.0000   1.0000   1.0000   1.0000   1.0000
     1.0000   1.0000   1.0000   1.0000   1.0000   1.0000   1.0000   1.0000
     1.0000   1.0000   1.0000   1.0000   1.0000   1.0000   1.0000   1.0000
     1.0000   1.0000   1.0000   1.0000   1.0000   1.0000   1.0000   1.0000
     1.0000   1.0000   1.0000   1.0000   1.0000   1.0000   1.0000   1.0000
     1.0000   1.0000   1.0000   1.0000   1.0000   1.0000   1.0000   1.0000
     1.0000   1.0000

          k = 0.0000 0.0000 0.3367 ( 16305 PWs)   bands (ev):

   -10.3723  -9.8955  -9.8955  -9.8955  -9.8955  -9.8955  -9.8955  -9.5462
    -9.5007  -9.5007  -9.5007  -9.5007  -9.4181  -9.4181  -9.4181  -9.4181
    -9.4181  -9.4181   1.7672   1.7672   1.7672   1.7672   1.7672   1.7672
     2.0507   2.0690   2.0690   2.0690   2.0690   2.0690   2.0690   2.1271
     2.1565   2.1565   2.2125   2.2125   2.2484   2.2484   2.2484   2.2484
     2.4155   2.4155   2.4155   2.4155   2.4155   2.4155   2.4390   2.4390
     2.4851   2.4851   2.4851   2.4851   2.4851   2.4851   2.7782   2.7782
     2.7782   2.7782   2.7782   2.7782   2.8577   2.8577   2.8577   2.8577
     2.8577   2.8577   2.8591   2.8591   3.0213   3.0213   3.0213   3.0213
     3.4624   3.4624   3.4914   3.4914   3.4914   3.4914   3.4914   3.4914
     3.5238   3.5238   3.6076   3.6076   3.6076   3.6076   3.6076   3.6076
     3.6219   3.6219   3.7874   3.7874   3.8223   3.8223   3.8223   3.8223
     3.8223   3.8223   3.8329   3.8329   3.8329   3.8329   3.8988   3.8988
     3.8988   3.8988   3.8988   3.8988   4.2726   4.2726   4.4287   4.4596
     4.4596   4.4596   4.4596   4.4596   4.4596   4.5642   4.5642   4.5642
     4.5642   5.1427   5.1427   5.1427   5.1427   5.1427   5.1427   5.7871
     5.7871   5.7871   5.7871   5.7871   5.7871   5.9808   5.9808   5.9808
     5.9808   5.9808   5.9808   6.3555   6.3555   6.4011   6.4011   6.4011
     6.4011   7.0809   7.0809   7.4180   7.4180   7.4180   7.4180   7.4180
     7.4180   7.4282   7.4282   7.4282   7.4282   7.4282   7.4282   7.6181
     8.0209   8.0209

     occupation numbers 
     1.0000   1.0000   1.0000   1.0000   1.0000   1.0000   1.0000   1.0000
     1.0000   1.0000   1.0000   1.0000   1.0000   1.0000   1.0000   1.0000
     1.0000   1.0000   1.0000   1.0000   1.0000   1.0000   1.0000   1.0000
     1.0000   1.0000   1.0000   1.0000   1.0000   1.0000   1.0000   1.0000
     1.0000   1.0000   1.0000   1.0000   1.0000   1.0000   1.0000   1.0000
     1.0000   1.0000   1.0000   1.0000   1.0000   1.0000   1.0000   1.0000
     1.0000   1.0000   1.0000   1.0000   1.0000   1.0000   1.0000   1.0000
     1.0000   1.0000   1.0000   1.0000   1.0000   1.0000   1.0000   1.0000
     1.0000   1.0000   1.0000   1.0000   1.0000   1.0000   1.0000   1.0000
     1.0000   1.0000   1.0000   1.0000   1.0000   1.0000   1.0000   1.0000
     1.0000   1.0000   1.0000   1.0000   1.0000   1.0000   1.0000   1.0000
     1.0000   1.0000   1.0000   1.0000   1.0000   1.0000   1.0000   1.0000
     1.0000   1.0000   1.0000   1.0000   1.0000   1.0000   1.0000   1.0000
     1.0000   1.0000   1.0000   1.0000   1.0000   1.0000   1.0000   1.0000
     1.0000   1.0000   1.0000   1.0000   1.0000   1.0000   1.0000   1.0000
     1.0000   1.0000   1.0000   1.0000   1.0000   1.0000   1.0000   1.0000
     1.0000   1.0000   1.0000   1.0000   1.0000   1.0000   1.0000   1.0000
     1.0000   1.0000   1.0000   1.0000   1.0000   1.0000   1.0000   1.0000
     1.0000   1.0000   1.0000   1.0000   1.0000   1.0000   1.0000   1.0000
     1.0000   1.0000   1.0000   1.0000   1.0000   1.0000   1.0000   1.0000
     1.0000   1.0000

          k = 0.0000 0.0000 0.6733 ( 16304 PWs)   bands (ev):

   -10.2026  -9.7884  -9.7884  -9.7884  -9.7884  -9.7884  -9.7884  -9.7253
    -9.5117  -9.5117  -9.5117  -9.5117  -9.5117  -9.5117  -9.4885  -9.4885
    -9.4885  -9.4885   1.6382   1.6382   1.6382   1.6382   1.6382   1.6382
     1.7542   1.7542   1.7542   1.7542   1.7542   1.7542   1.8271   1.9416
     1.9793   1.9793   1.9793   1.9793   2.2330   2.2330   2.2419   2.2419
     2.3613   2.3613   2.4626   2.4626   2.4626   2.4626   2.4626   2.4626
     2.4815   2.4815   2.4815   2.4815   2.4815   2.4815   2.6005   2.6005
     2.6005   2.6005   2.6005   2.6005   2.6049   2.6049   2.7308   2.7308
     2.7308   2.7308   2.7308   2.7308   2.9097   2.9097   2.9097   2.9097
     3.5021   3.5021   3.5912   3.5912   3.6042   3.6042   3.6151   3.6151
     3.6151   3.6151   3.6151   3.6151   3.6511   3.6511   3.6511   3.6511
     3.6511   3.6511   3.7590   3.7590   3.7722   3.7722   3.7722   3.7722
     3.7722   3.7722   3.8569   3.8569   3.8569   3.8569   3.8569   3.8569
     4.0364   4.0364   4.0364   4.0364   4.4886   4.4886   4.4886   4.4886
     4.7769   4.7769   4.7809   4.7809   4.7809   4.7809   4.7809   4.7809
     5.2401   5.2668   5.2668   5.2668   5.2668   5.2668   5.2668   5.9336
     5.9336   6.1835   6.1835   6.1835   6.1835   6.1835   6.1835   6.3205
     6.3205   6.3205   6.3205   6.3205   6.3205   6.8656   6.8656   6.8656
     6.8656   6.8769   7.1470   7.1470   7.1470   7.1470   7.1470   7.1470
     7.2862   7.2862   7.3960   7.3960   7.3960   7.3960   7.3960   7.3960
     7.8300   7.8300

     occupation numbers 
     1.0000   1.0000   1.0000   1.0000   1.0000   1.0000   1.0000   1.0000
     1.0000   1.0000   1.0000   1.0000   1.0000   1.0000   1.0000   1.0000
     1.0000   1.0000   1.0000   1.0000   1.0000   1.0000   1.0000   1.0000
     1.0000   1.0000   1.0000   1.0000   1.0000   1.0000   1.0000   1.0000
     1.0000   1.0000   1.0000   1.0000   1.0000   1.0000   1.0000   1.0000
     1.0000   1.0000   1.0000   1.0000   1.0000   1.0000   1.0000   1.0000
     1.0000   1.0000   1.0000   1.0000   1.0000   1.0000   1.0000   1.0000
     1.0000   1.0000   1.0000   1.0000   1.0000   1.0000   1.0000   1.0000
     1.0000   1.0000   1.0000   1.0000   1.0000   1.0000   1.0000   1.0000
     1.0000   1.0000   1.0000   1.0000   1.0000   1.0000   1.0000   1.0000
     1.0000   1.0000   1.0000   1.0000   1.0000   1.0000   1.0000   1.0000
     1.0000   1.0000   1.0000   1.0000   1.0000   1.0000   1.0000   1.0000
     1.0000   1.0000   1.0000   1.0000   1.0000   1.0000   1.0000   1.0000
     1.0000   1.0000   1.0000   1.0000   1.0000   1.0000   1.0000   1.0000
     1.0000   1.0000   1.0000   1.0000   1.0000   1.0000   1.0000   1.0000
     1.0000   1.0000   1.0000   1.0000   1.0000   1.0000   1.0000   1.0000
     1.0000   1.0000   1.0000   1.0000   1.0000   1.0000   1.0000   1.0000
     1.0000   1.0000   1.0000   1.0000   1.0000   1.0000   1.0000   1.0000
     1.0000   1.0000   1.0000   1.0000   1.0000   1.0000   1.0000   1.0000
     1.0000   1.0000   1.0000   1.0000   1.0000   1.0000   1.0000   1.0000
     1.0000   1.0000

          k = 0.0000 0.0000-1.0100 ( 16292 PWs)   bands (ev):

    -9.9664  -9.9664  -9.6467  -9.6467  -9.6467  -9.6467  -9.6467  -9.6467
    -9.6467  -9.6467  -9.6467  -9.6467  -9.6467  -9.6467  -9.4823  -9.4823
    -9.4823  -9.4823   1.5957   1.5957   1.5957   1.5957   1.5957   1.5957
     1.5957   1.5957   1.5957   1.5957   1.5957   1.5957   1.7988   1.7988
     1.8559   1.8559   1.8559   1.8559   2.2835   2.2835   2.2835   2.2835
     2.3912   2.3912   2.3912   2.3912   2.4994   2.4994   2.4994   2.4994
     2.4994   2.4994   2.4994   2.4994   2.4994   2.4994   2.4994   2.4994
     2.5916   2.5916   2.5916   2.5916   2.5916   2.5916   2.5916   2.5916
     2.5916   2.5916   2.5916   2.5916   2.8791   2.8791   2.8791   2.8791
     3.5482   3.5482   3.5482   3.5482   3.6940   3.6940   3.6940   3.6940
     3.7107   3.7107   3.7107   3.7107   3.7107   3.7107   3.7107   3.7107
     3.7107   3.7107   3.7107   3.7107   3.7492   3.7492   3.7492   3.7492
     3.7492   3.7492   3.7492   3.7492   3.7492   3.7492   3.7492   3.7492
     4.1153   4.1153   4.1153   4.1153   4.4524   4.4524   4.4524   4.4524
     5.0481   5.0481   5.0481   5.0481   5.0481   5.0481   5.0481   5.0481
     5.0481   5.0481   5.0481   5.0481   5.3677   5.3677   5.3677   5.3677
     6.0931   6.0931   6.7472   6.7472   6.7472   6.7472   6.7472   6.7472
     6.7472   6.7472   6.7472   6.7472   6.7472   6.7472   6.9414   6.9414
     6.9414   6.9414   6.9414   6.9414   6.9414   6.9414   6.9414   6.9414
     6.9414   6.9414   7.0897   7.0897   7.0897   7.0897   7.5618   7.5618
     7.5618   7.5618

     occupation numbers 
     1.0000   1.0000   1.0000   1.0000   1.0000   1.0000   1.0000   1.0000
     1.0000   1.0000   1.0000   1.0000   1.0000   1.0000   1.0000   1.0000
     1.0000   1.0000   1.0000   1.0000   1.0000   1.0000   1.0000   1.0000
     1.0000   1.0000   1.0000   1.0000   1.0000   1.0000   1.0000   1.0000
     1.0000   1.0000   1.0000   1.0000   1.0000   1.0000   1.0000   1.0000
     1.0000   1.0000   1.0000   1.0000   1.0000   1.0000   1.0000   1.0000
     1.0000   1.0000   1.0000   1.0000   1.0000   1.0000   1.0000   1.0000
     1.0000   1.0000   1.0000   1.0000   1.0000   1.0000   1.0000   1.0000
     1.0000   1.0000   1.0000   1.0000   1.0000   1.0000   1.0000   1.0000
     1.0000   1.0000   1.0000   1.0000   1.0000   1.0000   1.0000   1.0000
     1.0000   1.0000   1.0000   1.0000   1.0000   1.0000   1.0000   1.0000
     1.0000   1.0000   1.0000   1.0000   1.0000   1.0000   1.0000   1.0000
     1.0000   1.0000   1.0000   1.0000   1.0000   1.0000   1.0000   1.0000
     1.0000   1.0000   1.0000   1.0000   1.0000   1.0000   1.0000   1.0000
     1.0000   1.0000   1.0000   1.0000   1.0000   1.0000   1.0000   1.0000
     1.0000   1.0000   1.0000   1.0000   1.0000   1.0000   1.0000   1.0000
     1.0000   1.0000   1.0000   1.0000   1.0000   1.0000   1.0000   1.0000
     1.0000   1.0000   1.0000   1.0000   1.0000   1.0000   1.0000   1.0000
     1.0000   1.0000   1.0000   1.0000   1.0000   1.0000   1.0000   1.0000
     1.0000   1.0000   1.0000   1.0000   1.0000   1.0000   1.0000   1.0000
     1.0000   1.0000

          k = 0.0000 0.1925 0.0000 ( 16338 PWs)   bands (ev):

   -10.4160 -10.0581  -9.9873  -9.9873  -9.8688  -9.8688  -9.8229  -9.5667
    -9.5667  -9.4749  -9.4593  -9.4593  -9.3952  -9.3878  -9.3878  -9.3877
    -9.3847  -9.3847   1.8315   1.8426   1.8426   1.8556   1.8556   1.8641
     2.1165   2.1165   2.1633   2.1971   2.2178   2.2261   2.2261   2.2435
     2.2526   2.2526   2.2557   2.2786   2.3260   2.3260   2.3635   2.3735
     2.3735   2.3954   2.3954   2.4139   2.4460   2.4469   2.4469   2.4757
     2.4867   2.4951   2.4951   2.5582   2.5582   2.5862   2.7950   2.8344
     2.8344   2.8614   2.8614   2.8879   2.9364   2.9473   2.9473   2.9514
     2.9514   2.9916   2.9916   3.0184   3.1104   3.1104   3.2537   3.2537
     3.3893   3.4085   3.4085   3.4433   3.4433   3.4839   3.4905   3.4909
     3.4909   3.5282   3.5448   3.5619   3.5619   3.5775   3.5775   3.6016
     3.6016   3.6441   3.7219   3.7219   3.7777   3.7777   3.7850   3.7956
     3.7971   3.7988   3.7988   3.8340   3.8393   3.8393   3.8470   3.8470
     3.8495   3.8806   3.8806   3.9457   4.0339   4.0982   4.0982   4.1208
     4.1897   4.1897   4.2313   4.2536   4.2536   4.4827   4.4827   4.7460
     4.7460   4.8296   4.8751   4.8751   5.0737   5.0737   5.2419   5.5013
     5.6180   5.6379   5.6379   5.6757   5.6757   5.8639   5.8639   5.8908
     5.8908   6.0559   6.0559   6.1116   6.2254   6.3873   6.3873   6.6018
     6.6018   6.8976   6.9593   7.0990   7.1926   7.1926   7.4168   7.4232
     7.4232   7.4274   7.4274   7.5508   7.5508   7.5554   7.6617   7.8422
     8.0696   8.1328

     occupation numbers 
     1.0000   1.0000   1.0000   1.0000   1.0000   1.0000   1.0000   1.0000
     1.0000   1.0000   1.0000   1.0000   1.0000   1.0000   1.0000   1.0000
     1.0000   1.0000   1.0000   1.0000   1.0000   1.0000   1.0000   1.0000
     1.0000   1.0000   1.0000   1.0000   1.0000   1.0000   1.0000   1.0000
     1.0000   1.0000   1.0000   1.0000   1.0000   1.0000   1.0000   1.0000
     1.0000   1.0000   1.0000   1.0000   1.0000   1.0000   1.0000   1.0000
     1.0000   1.0000   1.0000   1.0000   1.0000   1.0000   1.0000   1.0000
     1.0000   1.0000   1.0000   1.0000   1.0000   1.0000   1.0000   1.0000
     1.0000   1.0000   1.0000   1.0000   1.0000   1.0000   1.0000   1.0000
     1.0000   1.0000   1.0000   1.0000   1.0000   1.0000   1.0000   1.0000
     1.0000   1.0000   1.0000   1.0000   1.0000   1.0000   1.0000   1.0000
     1.0000   1.0000   1.0000   1.0000   1.0000   1.0000   1.0000   1.0000
     1.0000   1.0000   1.0000   1.0000   1.0000   1.0000   1.0000   1.0000
     1.0000   1.0000   1.0000   1.0000   1.0000   1.0000   1.0000   1.0000
     1.0000   1.0000   1.0000   1.0000   1.0000   1.0000   1.0000   1.0000
     1.0000   1.0000   1.0000   1.0000   1.0000   1.0000   1.0000   1.0000
     1.0000   1.0000   1.0000   1.0000   1.0000   1.0000   1.0000   1.0000
     1.0000   1.0000   1.0000   1.0000   1.0000   1.0000   1.0000   1.0000
     1.0000   1.0000   1.0000   1.0000   1.0000   1.0000   1.0000   1.0000
     1.0000   1.0000   1.0000   1.0000   1.0000   1.0000   1.0000   1.0000
     1.0000   1.0000

          k = 0.0000 0.1925 0.3367 ( 16302 PWs)   bands (ev):

   -10.3552 -10.0120  -9.9447  -9.9447  -9.8328  -9.8328  -9.7897  -9.5536
    -9.5536  -9.5398  -9.4604  -9.4604  -9.4370  -9.4246  -9.4246  -9.4127
    -9.4127  -9.4120   1.7623   1.7763   1.7763   1.7945   1.7945   1.8055
     2.0284   2.0586   2.0586   2.0592   2.0856   2.0856   2.0987   2.1016
     2.1051   2.1051   2.2150   2.2150   2.2223   2.2289   2.3080   2.3080
     2.3798   2.3867   2.3867   2.4165   2.4165   2.4194   2.4402   2.4432
     2.4529   2.4642   2.4642   2.5242   2.5242   2.5507   2.6965   2.7446
     2.7446   2.7489   2.7512   2.7512   2.8057   2.8057   2.8113   2.8113
     2.8121   2.9163   2.9163   2.9573   2.9917   2.9917   3.0738   3.0738
     3.4574   3.4645   3.4645   3.4785   3.4785   3.5122   3.5122   3.5181
     3.5230   3.5584   3.5670   3.5918   3.5918   3.6288   3.6288   3.6364
     3.6364   3.6542   3.7896   3.7928   3.8170   3.8206   3.8206   3.8253
     3.8257   3.8257   3.8426   3.8426   3.8673   3.8703   3.8703   3.8860
     3.8860   3.9326   3.9326   3.9512   4.2755   4.3423   4.3423   4.3618
     4.3618   4.4357   4.4589   4.4589   4.5233   4.5233   4.5537   4.6915
     4.6915   4.9819   5.0758   5.0758   5.2598   5.2598   5.3964   5.5940
     5.6579   5.6579   5.7675   5.8049   5.8049   5.8916   5.8916   6.0624
     6.0624   6.1070   6.1566   6.1566   6.2292   6.4257   6.4257   6.6362
     6.6362   6.9760   7.0370   7.2270   7.2864   7.2864   7.3108   7.3374
     7.3374   7.4439   7.4439   7.4787   7.5110   7.5110   7.5668   7.6088
     7.9995   8.0230

     occupation numbers 
     1.0000   1.0000   1.0000   1.0000   1.0000   1.0000   1.0000   1.0000
     1.0000   1.0000   1.0000   1.0000   1.0000   1.0000   1.0000   1.0000
     1.0000   1.0000   1.0000   1.0000   1.0000   1.0000   1.0000   1.0000
     1.0000   1.0000   1.0000   1.0000   1.0000   1.0000   1.0000   1.0000
     1.0000   1.0000   1.0000   1.0000   1.0000   1.0000   1.0000   1.0000
     1.0000   1.0000   1.0000   1.0000   1.0000   1.0000   1.0000   1.0000
     1.0000   1.0000   1.0000   1.0000   1.0000   1.0000   1.0000   1.0000
     1.0000   1.0000   1.0000   1.0000   1.0000   1.0000   1.0000   1.0000
     1.0000   1.0000   1.0000   1.0000   1.0000   1.0000   1.0000   1.0000
     1.0000   1.0000   1.0000   1.0000   1.0000   1.0000   1.0000   1.0000
     1.0000   1.0000   1.0000   1.0000   1.0000   1.0000   1.0000   1.0000
     1.0000   1.0000   1.0000   1.0000   1.0000   1.0000   1.0000   1.0000
     1.0000   1.0000   1.0000   1.0000   1.0000   1.0000   1.0000   1.0000
     1.0000   1.0000   1.0000   1.0000   1.0000   1.0000   1.0000   1.0000
     1.0000   1.0000   1.0000   1.0000   1.0000   1.0000   1.0000   1.0000
     1.0000   1.0000   1.0000   1.0000   1.0000   1.0000   1.0000   1.0000
     1.0000   1.0000   1.0000   1.0000   1.0000   1.0000   1.0000   1.0000
     1.0000   1.0000   1.0000   1.0000   1.0000   1.0000   1.0000   1.0000
     1.0000   1.0000   1.0000   1.0000   1.0000   1.0000   1.0000   1.0000
     1.0000   1.0000   1.0000   1.0000   1.0000   1.0000   1.0000   1.0000
     1.0000   1.0000

          k = 0.0000 0.1925 0.6733 ( 16280 PWs)   bands (ev):

   -10.1874  -9.8868  -9.8296  -9.8296  -9.7365  -9.7365  -9.7161  -9.7014
    -9.5538  -9.5283  -9.5283  -9.5220  -9.5220  -9.4929  -9.4929  -9.4824
    -9.4679  -9.4679   1.6215   1.6400   1.6400   1.6651   1.6651   1.6788
     1.7252   1.7499   1.7499   1.7728   1.7728   1.7817   1.8259   1.9263
     1.9274   1.9274   1.9610   1.9610   2.2401   2.2437   2.2798   2.2798
     2.3660   2.3743   2.3996   2.4180   2.4180   2.4317   2.4591   2.4591
     2.4737   2.4737   2.5067   2.5067   2.5194   2.5271   2.5314   2.5741
     2.5741   2.5900   2.5900   2.6398   2.6409   2.6409   2.6570   2.6930
     2.6930   2.7771   2.7771   2.8107   2.8815   2.8815   2.9059   2.9059
     3.5266   3.5266   3.5890   3.5949   3.5949   3.6015   3.6031   3.6108
     3.6108   3.6249   3.6256   3.6256   3.6436   3.6436   3.6659   3.6770
     3.6770   3.6831   3.7597   3.7626   3.7686   3.7730   3.7730   3.7760
     3.7802   3.7802   3.8316   3.8475   3.8475   3.8765   3.8765   3.8839
     3.9852   3.9852   4.0595   4.0595   4.4091   4.4091   4.5148   4.5668
     4.5668   4.6380   4.6380   4.8842   4.8842   4.9168   4.9168   4.9292
     5.0502   5.0929   5.0929   5.2462   5.4373   5.4373   5.6235   6.0055
     6.0055   6.1108   6.1108   6.1389   6.1813   6.1813   6.2188   6.2324
     6.2546   6.2546   6.3707   6.3707   6.5360   6.7263   6.7263   6.8234
     7.0001   7.0001   7.0138   7.0138   7.0157   7.1656   7.1656   7.1949
     7.2475   7.3031   7.3032   7.3527   7.3527   7.4460   7.4460   7.4841
     7.7956   7.8042

     occupation numbers 
     1.0000   1.0000   1.0000   1.0000   1.0000   1.0000   1.0000   1.0000
     1.0000   1.0000   1.0000   1.0000   1.0000   1.0000   1.0000   1.0000
     1.0000   1.0000   1.0000   1.0000   1.0000   1.0000   1.0000   1.0000
     1.0000   1.0000   1.0000   1.0000   1.0000   1.0000   1.0000   1.0000
     1.0000   1.0000   1.0000   1.0000   1.0000   1.0000   1.0000   1.0000
     1.0000   1.0000   1.0000   1.0000   1.0000   1.0000   1.0000   1.0000
     1.0000   1.0000   1.0000   1.0000   1.0000   1.0000   1.0000   1.0000
     1.0000   1.0000   1.0000   1.0000   1.0000   1.0000   1.0000   1.0000
     1.0000   1.0000   1.0000   1.0000   1.0000   1.0000   1.0000   1.0000
     1.0000   1.0000   1.0000   1.0000   1.0000   1.0000   1.0000   1.0000
     1.0000   1.0000   1.0000   1.0000   1.0000   1.0000   1.0000   1.0000
     1.0000   1.0000   1.0000   1.0000   1.0000   1.0000   1.0000   1.0000
     1.0000   1.0000   1.0000   1.0000   1.0000   1.0000   1.0000   1.0000
     1.0000   1.0000   1.0000   1.0000   1.0000   1.0000   1.0000   1.0000
     1.0000   1.0000   1.0000   1.0000   1.0000   1.0000   1.0000   1.0000
     1.0000   1.0000   1.0000   1.0000   1.0000   1.0000   1.0000   1.0000
     1.0000   1.0000   1.0000   1.0000   1.0000   1.0000   1.0000   1.0000
     1.0000   1.0000   1.0000   1.0000   1.0000   1.0000   1.0000   1.0000
     1.0000   1.0000   1.0000   1.0000   1.0000   1.0000   1.0000   1.0000
     1.0000   1.0000   1.0000   1.0000   1.0000   1.0000   1.0000   1.0000
     1.0000   1.0000

          k = 0.0000 0.1925-1.0100 ( 16306 PWs)   bands (ev):

    -9.9539  -9.9539  -9.7182  -9.7182  -9.6761  -9.6761  -9.6761  -9.6761
    -9.6107  -9.6107  -9.6107  -9.6107  -9.5875  -9.5875  -9.4889  -9.4889
    -9.4889  -9.4889   1.5719   1.5719   1.5932   1.5932   1.5932   1.5932
     1.6188   1.6188   1.6188   1.6188   1.6315   1.6315   1.7897   1.7897
     1.8254   1.8254   1.8254   1.8254   2.2885   2.2885   2.2953   2.2953
     2.4097   2.4097   2.4097   2.4097   2.4361   2.4361   2.4559   2.4559
     2.4559   2.4559   2.5171   2.5171   2.5171   2.5171   2.5221   2.5221
     2.5614   2.5614   2.5706   2.5706   2.5706   2.5706   2.6341   2.6341
     2.6341   2.6341   2.6489   2.6489   2.8551   2.8551   2.8551   2.8551
     3.5718   3.5718   3.5718   3.5718   3.6934   3.6934   3.6946   3.6946
     3.6992   3.6992   3.7014   3.7014   3.7014   3.7014   3.7111   3.7111
     3.7111   3.7111   3.7259   3.7259   3.7259   3.7259   3.7437   3.7437
     3.7437   3.7437   3.7776   3.7776   3.7776   3.7776   3.7842   3.7842
     4.0819   4.0819   4.0819   4.0819   4.4678   4.4678   4.4678   4.4678
     4.7349   4.7349   4.8832   4.8832   4.8832   4.8832   5.2107   5.2107
     5.2107   5.2107   5.3877   5.3877   5.4559   5.4559   5.4559   5.4559
     6.0821   6.0821   6.5845   6.5845   6.5845   6.5845   6.5943   6.5943
     6.7560   6.7560   6.7560   6.7560   6.9297   6.9297   6.9488   6.9488
     6.9520   6.9520   6.9684   6.9684   6.9684   6.9684   6.9689   6.9689
     6.9689   6.9689   7.0842   7.0842   7.0842   7.0842   7.4933   7.4933
     7.5297   7.5297

     occupation numbers 
     1.0000   1.0000   1.0000   1.0000   1.0000   1.0000   1.0000   1.0000
     1.0000   1.0000   1.0000   1.0000   1.0000   1.0000   1.0000   1.0000
     1.0000   1.0000   1.0000   1.0000   1.0000   1.0000   1.0000   1.0000
     1.0000   1.0000   1.0000   1.0000   1.0000   1.0000   1.0000   1.0000
     1.0000   1.0000   1.0000   1.0000   1.0000   1.0000   1.0000   1.0000
     1.0000   1.0000   1.0000   1.0000   1.0000   1.0000   1.0000   1.0000
     1.0000   1.0000   1.0000   1.0000   1.0000   1.0000   1.0000   1.0000
     1.0000   1.0000   1.0000   1.0000   1.0000   1.0000   1.0000   1.0000
     1.0000   1.0000   1.0000   1.0000   1.0000   1.0000   1.0000   1.0000
     1.0000   1.0000   1.0000   1.0000   1.0000   1.0000   1.0000   1.0000
     1.0000   1.0000   1.0000   1.0000   1.0000   1.0000   1.0000   1.0000
     1.0000   1.0000   1.0000   1.0000   1.0000   1.0000   1.0000   1.0000
     1.0000   1.0000   1.0000   1.0000   1.0000   1.0000   1.0000   1.0000
     1.0000   1.0000   1.0000   1.0000   1.0000   1.0000   1.0000   1.0000
     1.0000   1.0000   1.0000   1.0000   1.0000   1.0000   1.0000   1.0000
     1.0000   1.0000   1.0000   1.0000   1.0000   1.0000   1.0000   1.0000
     1.0000   1.0000   1.0000   1.0000   1.0000   1.0000   1.0000   1.0000
     1.0000   1.0000   1.0000   1.0000   1.0000   1.0000   1.0000   1.0000
     1.0000   1.0000   1.0000   1.0000   1.0000   1.0000   1.0000   1.0000
     1.0000   1.0000   1.0000   1.0000   1.0000   1.0000   1.0000   1.0000
     1.0000   1.0000

          k = 0.0000 0.3849 0.0000 ( 16306 PWs)   bands (ev):

   -10.3643 -10.1775 -10.0202 -10.0202  -9.7931  -9.7931  -9.7382  -9.6368
    -9.6368  -9.4598  -9.4245  -9.4245  -9.4148  -9.3999  -9.3905  -9.3905
    -9.3894  -9.3894   1.8610   1.8992   1.8992   1.9051   1.9051   1.9301
     2.0703   2.0703   2.0962   2.1491   2.2114   2.2114   2.2271   2.2271
     2.2439   2.2745   2.2745   2.2760   2.3019   2.3075   2.3243   2.3803
     2.3887   2.3887   2.3994   2.3994   2.4247   2.4795   2.4795   2.4818
     2.4818   2.4996   2.5282   2.5841   2.5841   2.6399   2.6399   2.6409
     2.6865   2.7341   2.8322   2.8322   2.8856   2.9212   2.9212   2.9645
     2.9645   3.0550   3.0550   3.0730   3.0730   3.0960   3.2312   3.2312
     3.3873   3.3873   3.3977   3.4629   3.4857   3.4857   3.4903   3.5110
     3.5110   3.5125   3.5375   3.5375   3.5437   3.5437   3.5499   3.5787
     3.5787   3.6890   3.7960   3.8031   3.8055   3.8055   3.8056   3.8240
     3.8366   3.8366   3.8424   3.8424   3.8526   3.8526   3.8535   3.8547
     3.8547   3.9636   4.0139   4.0139   4.0511   4.0950   4.0950   4.1595
     4.2137   4.2508   4.2508   4.2994   4.2994   4.4084   4.4084   4.7607
     4.8644   4.8644   4.9029   4.9029   5.2589   5.2689   5.2689   5.3787
     5.3787   5.4569   5.4852   5.4852   5.6433   5.6433   5.6858   5.7509
     5.7509   6.2212   6.2212   6.3802   6.5962   6.5983   6.5983   6.6149
     6.8060   6.8060   6.8277   6.9267   7.0260   7.0260   7.2461   7.2461
     7.3411   7.4267   7.4958   7.4958   7.5196   7.5196   7.7648   7.7964
     8.0109   8.0590

     occupation numbers 
     1.0000   1.0000   1.0000   1.0000   1.0000   1.0000   1.0000   1.0000
     1.0000   1.0000   1.0000   1.0000   1.0000   1.0000   1.0000   1.0000
     1.0000   1.0000   1.0000   1.0000   1.0000   1.0000   1.0000   1.0000
     1.0000   1.0000   1.0000   1.0000   1.0000   1.0000   1.0000   1.0000
     1.0000   1.0000   1.0000   1.0000   1.0000   1.0000   1.0000   1.0000
     1.0000   1.0000   1.0000   1.0000   1.0000   1.0000   1.0000   1.0000
     1.0000   1.0000   1.0000   1.0000   1.0000   1.0000   1.0000   1.0000
     1.0000   1.0000   1.0000   1.0000   1.0000   1.0000   1.0000   1.0000
     1.0000   1.0000   1.0000   1.0000   1.0000   1.0000   1.0000   1.0000
     1.0000   1.0000   1.0000   1.0000   1.0000   1.0000   1.0000   1.0000
     1.0000   1.0000   1.0000   1.0000   1.0000   1.0000   1.0000   1.0000
     1.0000   1.0000   1.0000   1.0000   1.0000   1.0000   1.0000   1.0000
     1.0000   1.0000   1.0000   1.0000   1.0000   1.0000   1.0000   1.0000
     1.0000   1.0000   1.0000   1.0000   1.0000   1.0000   1.0000   1.0000
     1.0000   1.0000   1.0000   1.0000   1.0000   1.0000   1.0000   1.0000
     1.0000   1.0000   1.0000   1.0000   1.0000   1.0000   1.0000   1.0000
     1.0000   1.0000   1.0000   1.0000   1.0000   1.0000   1.0000   1.0000
     1.0000   1.0000   1.0000   1.0000   1.0000   1.0000   1.0000   1.0000
     1.0000   1.0000   1.0000   1.0000   1.0000   1.0000   1.0000   1.0000
     1.0000   1.0000   1.0000   1.0000   1.0000   1.0000   1.0000   1.0000
     1.0000   1.0000

          k = 0.0000 0.3849 0.3367 ( 16328 PWs)   bands (ev):

   -10.3054 -10.1260  -9.9760  -9.9760  -9.7617  -9.7617  -9.7107  -9.6171
    -9.6171  -9.5216  -9.4646  -9.4328  -9.4328  -9.4297  -9.4297  -9.4171
    -9.4113  -9.4113   1.7837   1.8269   1.8269   1.8417   1.8417   1.8720
     1.9836   2.0120   2.0120   2.0326   2.0722   2.0722   2.0799   2.0799
     2.0890   2.1136   2.1713   2.1713   2.2493   2.2638   2.3359   2.3600
     2.3626   2.3626   2.3737   2.3737   2.4062   2.4062   2.4452   2.4452
     2.4540   2.4613   2.4931   2.5513   2.5513   2.5941   2.6046   2.6233
     2.6233   2.6458   2.7096   2.7096   2.7834   2.7834   2.8095   2.8378
     2.8378   2.9414   2.9414   2.9805   2.9805   3.0283   3.0789   3.0789
     3.4493   3.4493   3.4601   3.5016   3.5016   3.5019   3.5173   3.5173
     3.5219   3.5396   3.5845   3.5845   3.6172   3.6460   3.6460   3.6603
     3.6603   3.6946   3.7950   3.8066   3.8099   3.8196   3.8196   3.8255
     3.8329   3.8329   3.8459   3.8538   3.8538   3.8824   3.8824   3.9448
     3.9448   3.9492   3.9940   3.9940   4.2491   4.2569   4.2569   4.3113
     4.3113   4.4572   4.5371   4.5531   4.5531   4.6066   4.6066   4.7496
     4.8544   4.8544   4.9972   4.9972   5.4353   5.4353   5.4555   5.4555
     5.5674   5.6202   5.6737   5.6737   5.8019   5.8290   5.8290   5.9326
     5.9326   6.1583   6.1583   6.4675   6.4842   6.6002   6.6002   6.6806
     6.8552   6.8552   6.9112   7.0758   7.0851   7.0851   7.1790   7.2073
     7.2073   7.2319   7.4093   7.4093   7.5700   7.5700   7.7085   7.7753
     7.9364   7.9889

     occupation numbers 
     1.0000   1.0000   1.0000   1.0000   1.0000   1.0000   1.0000   1.0000
     1.0000   1.0000   1.0000   1.0000   1.0000   1.0000   1.0000   1.0000
     1.0000   1.0000   1.0000   1.0000   1.0000   1.0000   1.0000   1.0000
     1.0000   1.0000   1.0000   1.0000   1.0000   1.0000   1.0000   1.0000
     1.0000   1.0000   1.0000   1.0000   1.0000   1.0000   1.0000   1.0000
     1.0000   1.0000   1.0000   1.0000   1.0000   1.0000   1.0000   1.0000
     1.0000   1.0000   1.0000   1.0000   1.0000   1.0000   1.0000   1.0000
     1.0000   1.0000   1.0000   1.0000   1.0000   1.0000   1.0000   1.0000
     1.0000   1.0000   1.0000   1.0000   1.0000   1.0000   1.0000   1.0000
     1.0000   1.0000   1.0000   1.0000   1.0000   1.0000   1.0000   1.0000
     1.0000   1.0000   1.0000   1.0000   1.0000   1.0000   1.0000   1.0000
     1.0000   1.0000   1.0000   1.0000   1.0000   1.0000   1.0000   1.0000
     1.0000   1.0000   1.0000   1.0000   1.0000   1.0000   1.0000   1.0000
     1.0000   1.0000   1.0000   1.0000   1.0000   1.0000   1.0000   1.0000
     1.0000   1.0000   1.0000   1.0000   1.0000   1.0000   1.0000   1.0000
     1.0000   1.0000   1.0000   1.0000   1.0000   1.0000   1.0000   1.0000
     1.0000   1.0000   1.0000   1.0000   1.0000   1.0000   1.0000   1.0000
     1.0000   1.0000   1.0000   1.0000   1.0000   1.0000   1.0000   1.0000
     1.0000   1.0000   1.0000   1.0000   1.0000   1.0000   1.0000   1.0000
     1.0000   1.0000   1.0000   1.0000   1.0000   1.0000   1.0000   1.0000
     1.0000   1.0000

          k = 0.0000 0.3849 0.6733 ( 16287 PWs)   bands (ev):

   -10.1430  -9.9852  -9.8561  -9.8561  -9.6899  -9.6788  -9.6788  -9.6388
    -9.6024  -9.5670  -9.5670  -9.5396  -9.5396  -9.4756  -9.4756  -9.4684
    -9.4600  -9.4600   1.6259   1.6774   1.6774   1.6965   1.7043   1.7043
     1.7373   1.7722   1.7722   1.7872   1.7872   1.8069   1.8196   1.8380
     1.8380   1.8842   1.8965   1.8965   2.2614   2.2740   2.3435   2.3515
     2.3515   2.3752   2.3810   2.3810   2.3818   2.4120   2.4266   2.4266
     2.4587   2.4587   2.4653   2.5207   2.5207   2.5425   2.5503   2.5599
     2.5599   2.5600   2.5600   2.5813   2.6711   2.6711   2.6895   2.6962
     2.6962   2.8211   2.8211   2.8267   2.8267   2.8656   2.8846   2.8846
     3.5725   3.5725   3.5824   3.5829   3.5829   3.5948   3.6012   3.6085
     3.6219   3.6219   3.6417   3.6417   3.6531   3.6531   3.6992   3.6992
     3.7117   3.7302   3.7612   3.7655   3.7727   3.7755   3.7755   3.7776
     3.8076   3.8076   3.8086   3.8432   3.8432   3.9010   3.9175   3.9175
     3.9199   3.9199   4.0418   4.0418   4.3595   4.3730   4.3730   4.5087
     4.5087   4.6391   4.6592   4.6592   4.9286   4.9286   5.0179   5.0179
     5.1459   5.1459   5.2154   5.2599   5.5788   5.5788   5.8300   5.8300
     5.9930   6.0162   6.1926   6.1926   6.1988   6.1988   6.2980   6.3157
     6.3157   6.3399   6.3399   6.3925   6.5976   6.5976   6.6520   6.7597
     6.7894   6.7894   6.9278   6.9595   7.1208   7.1208   7.1229   7.1229
     7.1366   7.2251   7.2988   7.2988   7.4642   7.4862   7.4862   7.5625
     7.7184   7.7290

     occupation numbers 
     1.0000   1.0000   1.0000   1.0000   1.0000   1.0000   1.0000   1.0000
     1.0000   1.0000   1.0000   1.0000   1.0000   1.0000   1.0000   1.0000
     1.0000   1.0000   1.0000   1.0000   1.0000   1.0000   1.0000   1.0000
     1.0000   1.0000   1.0000   1.0000   1.0000   1.0000   1.0000   1.0000
     1.0000   1.0000   1.0000   1.0000   1.0000   1.0000   1.0000   1.0000
     1.0000   1.0000   1.0000   1.0000   1.0000   1.0000   1.0000   1.0000
     1.0000   1.0000   1.0000   1.0000   1.0000   1.0000   1.0000   1.0000
     1.0000   1.0000   1.0000   1.0000   1.0000   1.0000   1.0000   1.0000
     1.0000   1.0000   1.0000   1.0000   1.0000   1.0000   1.0000   1.0000
     1.0000   1.0000   1.0000   1.0000   1.0000   1.0000   1.0000   1.0000
     1.0000   1.0000   1.0000   1.0000   1.0000   1.0000   1.0000   1.0000
     1.0000   1.0000   1.0000   1.0000   1.0000   1.0000   1.0000   1.0000
     1.0000   1.0000   1.0000   1.0000   1.0000   1.0000   1.0000   1.0000
     1.0000   1.0000   1.0000   1.0000   1.0000   1.0000   1.0000   1.0000
     1.0000   1.0000   1.0000   1.0000   1.0000   1.0000   1.0000   1.0000
     1.0000   1.0000   1.0000   1.0000   1.0000   1.0000   1.0000   1.0000
     1.0000   1.0000   1.0000   1.0000   1.0000   1.0000   1.0000   1.0000
     1.0000   1.0000   1.0000   1.0000   1.0000   1.0000   1.0000   1.0000
     1.0000   1.0000   1.0000   1.0000   1.0000   1.0000   1.0000   1.0000
     1.0000   1.0000   1.0000   1.0000   1.0000   1.0000   1.0000   1.0000
     1.0000   1.0000

          k = 0.0000 0.3849-1.0100 ( 16288 PWs)   bands (ev):

    -9.9180  -9.9180  -9.7931  -9.7931  -9.6953  -9.6953  -9.6953  -9.6953
    -9.5725  -9.5725  -9.5725  -9.5725  -9.5484  -9.5484  -9.5077  -9.5077
    -9.5077  -9.5077   1.5594   1.5594   1.6207   1.6207   1.6207   1.6207
     1.6458   1.6458   1.6458   1.6458   1.6763   1.6763   1.7545   1.7545
     1.7545   1.7545   1.7632   1.7632   2.3050   2.3050   2.3292   2.3292
     2.3796   2.3796   2.4109   2.4109   2.4109   2.4109   2.4494   2.4494
     2.4502   2.4502   2.4502   2.4502   2.5121   2.5121   2.5121   2.5121
     2.5635   2.5635   2.5635   2.5635   2.6088   2.6088   2.6859   2.6859
     2.6859   2.6859   2.6864   2.6864   2.8008   2.8008   2.8008   2.8008
     3.6227   3.6227   3.6227   3.6227   3.6918   3.6918   3.6927   3.6927
     3.6945   3.6945   3.6945   3.6945   3.6971   3.6971   3.6981   3.6981
     3.6981   3.6981   3.7111   3.7111   3.7393   3.7393   3.7447   3.7447
     3.7447   3.7447   3.8280   3.8280   3.8337   3.8337   3.8337   3.8337
     4.0026   4.0026   4.0026   4.0026   4.4996   4.4996   4.5192   4.5192
     4.5192   4.5192   4.7334   4.7334   4.7334   4.7334   5.3399   5.3399
     5.3399   5.3399   5.6869   5.6869   5.6869   5.6869   5.6973   5.6973
     6.0363   6.0363   6.3143   6.3143   6.3144   6.3144   6.4919   6.4919
     6.7008   6.7008   6.7008   6.7008   6.9637   6.9637   7.0000   7.0000
     7.0000   7.0000   7.0029   7.0029   7.0081   7.0081   7.0081   7.0081
     7.0681   7.0681   7.0681   7.0681   7.1196   7.1196   7.3227   7.3227
     7.4372   7.4372

     occupation numbers 
     1.0000   1.0000   1.0000   1.0000   1.0000   1.0000   1.0000   1.0000
     1.0000   1.0000   1.0000   1.0000   1.0000   1.0000   1.0000   1.0000
     1.0000   1.0000   1.0000   1.0000   1.0000   1.0000   1.0000   1.0000
     1.0000   1.0000   1.0000   1.0000   1.0000   1.0000   1.0000   1.0000
     1.0000   1.0000   1.0000   1.0000   1.0000   1.0000   1.0000   1.0000
     1.0000   1.0000   1.0000   1.0000   1.0000   1.0000   1.0000   1.0000
     1.0000   1.0000   1.0000   1.0000   1.0000   1.0000   1.0000   1.0000
     1.0000   1.0000   1.0000   1.0000   1.0000   1.0000   1.0000   1.0000
     1.0000   1.0000   1.0000   1.0000   1.0000   1.0000   1.0000   1.0000
     1.0000   1.0000   1.0000   1.0000   1.0000   1.0000   1.0000   1.0000
     1.0000   1.0000   1.0000   1.0000   1.0000   1.0000   1.0000   1.0000
     1.0000   1.0000   1.0000   1.0000   1.0000   1.0000   1.0000   1.0000
     1.0000   1.0000   1.0000   1.0000   1.0000   1.0000   1.0000   1.0000
     1.0000   1.0000   1.0000   1.0000   1.0000   1.0000   1.0000   1.0000
     1.0000   1.0000   1.0000   1.0000   1.0000   1.0000   1.0000   1.0000
     1.0000   1.0000   1.0000   1.0000   1.0000   1.0000   1.0000   1.0000
     1.0000   1.0000   1.0000   1.0000   1.0000   1.0000   1.0000   1.0000
     1.0000   1.0000   1.0000   1.0000   1.0000   1.0000   1.0000   1.0000
     1.0000   1.0000   1.0000   1.0000   1.0000   1.0000   1.0000   1.0000
     1.0000   1.0000   1.0000   1.0000   1.0000   1.0000   1.0000   1.0000
     1.0000   1.0000

          k = 0.0000-0.5774 0.0000 ( 16312 PWs)   bands (ev):

   -10.2826 -10.2826 -10.0316 -10.0316  -9.7139  -9.7139  -9.7139  -9.7139
    -9.7049  -9.4382  -9.4382  -9.4078  -9.4018  -9.4018  -9.4018  -9.4018
    -9.3915  -9.3915   1.8820   1.9359   1.9359   1.9868   1.9868   1.9868
     1.9868   2.0133   2.0133   2.1235   2.1757   2.1757   2.2435   2.2435
     2.2435   2.2435   2.2819   2.2819   2.3148   2.3148   2.3294   2.3294
     2.4158   2.4158   2.4280   2.4374   2.4374   2.4374   2.4374   2.4655
     2.4655   2.5860   2.5860   2.5872   2.5872   2.5872   2.5872   2.5959
     2.5959   2.6632   2.8231   2.8231   2.8616   2.9068   2.9068   2.9998
     2.9998   2.9998   2.9998   3.1244   3.1590   3.1590   3.1590   3.1590
     3.3838   3.3838   3.4312   3.4312   3.4957   3.4957   3.5199   3.5199
     3.5199   3.5199   3.5277   3.5277   3.5411   3.5411   3.5411   3.5411
     3.5522   3.7075   3.8065   3.8065   3.8093   3.8093   3.8132   3.8132
     3.8354   3.8354   3.8548   3.8588   3.8588   3.8588   3.8588   3.9062
     3.9701   3.9701   3.9701   3.9701   4.0923   4.0923   4.1744   4.1744
     4.1744   4.1744   4.2486   4.2486   4.4496   4.5901   4.7173   4.7173
     4.7173   4.7173   5.0969   5.0969   5.0969   5.0969   5.1964   5.3980
     5.4153   5.4153   5.4760   5.4760   5.4760   5.4760   5.6283   5.6283
     6.1642   6.1642   6.2874   6.2874   6.6272   6.6273   6.8197   6.8197
     6.8197   6.8197   6.8602   7.0136   7.0136   7.0320   7.0320   7.0320
     7.0320   7.3143   7.4914   7.4914   7.5252   7.5252   7.9171   7.9171
     7.9353   7.9353

     occupation numbers 
     1.0000   1.0000   1.0000   1.0000   1.0000   1.0000   1.0000   1.0000
     1.0000   1.0000   1.0000   1.0000   1.0000   1.0000   1.0000   1.0000
     1.0000   1.0000   1.0000   1.0000   1.0000   1.0000   1.0000   1.0000
     1.0000   1.0000   1.0000   1.0000   1.0000   1.0000   1.0000   1.0000
     1.0000   1.0000   1.0000   1.0000   1.0000   1.0000   1.0000   1.0000
     1.0000   1.0000   1.0000   1.0000   1.0000   1.0000   1.0000   1.0000
     1.0000   1.0000   1.0000   1.0000   1.0000   1.0000   1.0000   1.0000
     1.0000   1.0000   1.0000   1.0000   1.0000   1.0000   1.0000   1.0000
     1.0000   1.0000   1.0000   1.0000   1.0000   1.0000   1.0000   1.0000
     1.0000   1.0000   1.0000   1.0000   1.0000   1.0000   1.0000   1.0000
     1.0000   1.0000   1.0000   1.0000   1.0000   1.0000   1.0000   1.0000
     1.0000   1.0000   1.0000   1.0000   1.0000   1.0000   1.0000   1.0000
     1.0000   1.0000   1.0000   1.0000   1.0000   1.0000   1.0000   1.0000
     1.0000   1.0000   1.0000   1.0000   1.0000   1.0000   1.0000   1.0000
     1.0000   1.0000   1.0000   1.0000   1.0000   1.0000   1.0000   1.0000
     1.0000   1.0000   1.0000   1.0000   1.0000   1.0000   1.0000   1.0000
     1.0000   1.0000   1.0000   1.0000   1.0000   1.0000   1.0000   1.0000
     1.0000   1.0000   1.0000   1.0000   1.0000   1.0000   1.0000   1.0000
     1.0000   1.0000   1.0000   1.0000   1.0000   1.0000   1.0000   1.0000
     1.0000   1.0000   1.0000   1.0000   1.0000   1.0000   1.0000   1.0000
     1.0000   1.0000

          k = 0.0000-0.5774 0.3367 ( 16324 PWs)   bands (ev):

   -10.2268 -10.2268  -9.9867  -9.9867  -9.6880  -9.6880  -9.6880  -9.6880
    -9.6799  -9.4948  -9.4948  -9.4315  -9.4315  -9.4221  -9.4172  -9.4172
    -9.4172  -9.4172   1.8011   1.8700   1.8700   1.9121   1.9121   1.9121
     1.9121   1.9536   1.9536   1.9593   2.0643   2.0643   2.1091   2.1091
     2.1142   2.1142   2.1142   2.1142   2.2897   2.2897   2.3085   2.3085
     2.3901   2.3901   2.3924   2.3924   2.3924   2.3924   2.4218   2.4218
     2.4584   2.5091   2.5091   2.5585   2.5585   2.5685   2.5685   2.5685
     2.5685   2.6273   2.6943   2.6943   2.7745   2.7745   2.8025   2.8844
     2.8844   2.8844   2.8844   3.0399   3.0399   3.0399   3.0399   3.0543
     3.4452   3.4452   3.4799   3.4799   3.5134   3.5134   3.5134   3.5134
     3.5258   3.5258   3.5823   3.5823   3.6393   3.6614   3.6614   3.6614
     3.6614   3.7116   3.8024   3.8024   3.8192   3.8192   3.8247   3.8259
     3.8259   3.8449   3.8449   3.8449   3.8449   3.8817   3.8817   3.9062
     4.0179   4.0179   4.0179   4.0179   4.2234   4.2234   4.2234   4.2234
     4.3846   4.4934   4.4934   4.5512   4.5611   4.5611   4.8505   4.8505
     4.8505   4.8505   5.1160   5.1160   5.1160   5.1160   5.5671   5.5816
     5.6004   5.6004   5.6907   5.6907   5.7554   5.7554   5.7554   5.7554
     6.2091   6.2091   6.2599   6.2599   6.7196   6.7196   6.8313   6.8313
     6.8385   6.8385   6.8385   6.8385   7.0162   7.0469   7.0469   7.0469
     7.0469   7.2041   7.3850   7.3850   7.5909   7.5909   7.8363   7.8363
     7.9044   7.9044

     occupation numbers 
     1.0000   1.0000   1.0000   1.0000   1.0000   1.0000   1.0000   1.0000
     1.0000   1.0000   1.0000   1.0000   1.0000   1.0000   1.0000   1.0000
     1.0000   1.0000   1.0000   1.0000   1.0000   1.0000   1.0000   1.0000
     1.0000   1.0000   1.0000   1.0000   1.0000   1.0000   1.0000   1.0000
     1.0000   1.0000   1.0000   1.0000   1.0000   1.0000   1.0000   1.0000
     1.0000   1.0000   1.0000   1.0000   1.0000   1.0000   1.0000   1.0000
     1.0000   1.0000   1.0000   1.0000   1.0000   1.0000   1.0000   1.0000
     1.0000   1.0000   1.0000   1.0000   1.0000   1.0000   1.0000   1.0000
     1.0000   1.0000   1.0000   1.0000   1.0000   1.0000   1.0000   1.0000
     1.0000   1.0000   1.0000   1.0000   1.0000   1.0000   1.0000   1.0000
     1.0000   1.0000   1.0000   1.0000   1.0000   1.0000   1.0000   1.0000
     1.0000   1.0000   1.0000   1.0000   1.0000   1.0000   1.0000   1.0000
     1.0000   1.0000   1.0000   1.0000   1.0000   1.0000   1.0000   1.0000
     1.0000   1.0000   1.0000   1.0000   1.0000   1.0000   1.0000   1.0000
     1.0000   1.0000   1.0000   1.0000   1.0000   1.0000   1.0000   1.0000
     1.0000   1.0000   1.0000   1.0000   1.0000   1.0000   1.0000   1.0000
     1.0000   1.0000   1.0000   1.0000   1.0000   1.0000   1.0000   1.0000
     1.0000   1.0000   1.0000   1.0000   1.0000   1.0000   1.0000   1.0000
     1.0000   1.0000   1.0000   1.0000   1.0000   1.0000   1.0000   1.0000
     1.0000   1.0000   1.0000   1.0000   1.0000   1.0000   1.0000   1.0000
     1.0000   1.0000

          k = 0.0000-0.5774 0.6733 ( 16282 PWs)   bands (ev):

   -10.0735 -10.0735  -9.8652  -9.8652  -9.6501  -9.6501  -9.6206  -9.6206
    -9.6206  -9.6206  -9.6150  -9.5436  -9.5436  -9.4654  -9.4635  -9.4635
    -9.4635  -9.4635   1.6350   1.6801   1.7263   1.7263   1.7477   1.7477
     1.7477   1.7477   1.7889   1.7889   1.7952   1.7952   1.8243   1.8243
     1.8243   1.8243   1.8352   1.8352   2.2966   2.2966   2.3200   2.3200
     2.3706   2.3706   2.4064   2.4064   2.4140   2.4140   2.4168   2.4168
     2.4168   2.4168   2.4720   2.4720   2.5353   2.5353   2.5353   2.5353
     2.5504   2.5560   2.5560   2.6045   2.6643   2.6643   2.6983   2.7604
     2.7604   2.7604   2.7604   2.8571   2.8571   2.8571   2.8571   2.8854
     3.5794   3.5794   3.5867   3.5867   3.6016   3.6016   3.6059   3.6059
     3.6059   3.6059   3.6411   3.6411   3.6896   3.6896   3.6896   3.6896
     3.7241   3.7631   3.7631   3.7679   3.7766   3.7766   3.7775   3.7885
     3.7885   3.8420   3.8420   3.8571   3.8571   3.8571   3.8571   3.8948
     3.9824   3.9824   3.9824   3.9824   4.3608   4.4118   4.4118   4.4118
     4.4118   4.4774   4.7818   4.7818   4.7818   4.7818   5.0556   5.0556
     5.2639   5.2639   5.4839   5.4839   5.4839   5.4839   5.6396   5.6396
     5.9726   6.2105   6.2105   6.3110   6.3110   6.3278   6.3583   6.3583
     6.3650   6.3650   6.3650   6.3650   6.5665   6.5665   6.5665   6.5665
     6.6660   6.6660   6.8968   6.9674   6.9674   7.0962   7.0962   7.1930
     7.2217   7.2217   7.2217   7.2217   7.5006   7.5006   7.6116   7.6116
     7.6375   7.6375

     occupation numbers 
     1.0000   1.0000   1.0000   1.0000   1.0000   1.0000   1.0000   1.0000
     1.0000   1.0000   1.0000   1.0000   1.0000   1.0000   1.0000   1.0000
     1.0000   1.0000   1.0000   1.0000   1.0000   1.0000   1.0000   1.0000
     1.0000   1.0000   1.0000   1.0000   1.0000   1.0000   1.0000   1.0000
     1.0000   1.0000   1.0000   1.0000   1.0000   1.0000   1.0000   1.0000
[...]
     The ionic contribution  to forces
     atom    1 type  1   force =     0.00000001    0.00000001   -1.74836659
     atom    2 type  1   force =     0.00000000    0.00000002   -1.74836659
     atom    3 type  2   force =     0.00000001    0.00000001    1.74836659
     atom    4 type  2   force =     0.00000000    0.00000001    1.74836659
     atom    5 type  1   force =     0.00000000    0.00000001   -1.74836659
     atom    6 type  1   force =     0.00000001   -0.00000000   -1.74836659
     atom    7 type  2   force =    -0.00000000    0.00000001    1.74836659
     atom    8 type  2   force =     0.00000001   -0.00000000    1.74836659
     atom    9 type  1   force =     0.00000001   -0.00000001   -1.74836659
     atom   10 type  1   force =     0.00000001   -0.00000000   -1.74836659
     atom   11 type  2   force =     0.00000001   -0.00000000    1.74836659
     atom   12 type  2   force =     0.00000000   -0.00000000    1.74836659
     atom   13 type  1   force =    -0.00000001    0.00000001   -1.74836659
     atom   14 type  1   force =     0.00000001    0.00000001   -1.74836659
     atom   15 type  2   force =    -0.00000001    0.00000001    1.74836659
     atom   16 type  2   force =     0.00000001    0.00000000    1.74836659
     atom   17 type  1   force =    -0.00000002    0.00000001   -1.74836660
     atom   18 type  1   force =     0.00000002   -0.00000001   -1.74836660
     atom   19 type  2   force =    -0.00000001    0.00000001    1.74836660
     atom   20 type  2   force =     0.00000001   -0.00000001    1.74836660
     atom   21 type  1   force =    -0.00000001   -0.00000001   -1.74836659
     atom   22 type  1   force =     0.00000001   -0.00000001   -1.74836659
     atom   23 type  2   force =    -0.00000001   -0.00000000    1.74836659
     atom   24 type  2   force =     0.00000001   -0.00000001    1.74836659
     atom   25 type  1   force =    -0.00000001    0.00000000   -1.74836659
     atom   26 type  1   force =    -0.00000001    0.00000001   -1.74836659
     atom   27 type  2   force =    -0.00000000    0.00000000    1.74836659
     atom   28 type  2   force =    -0.00000001    0.00000000    1.74836659
     atom   29 type  1   force =    -0.00000001    0.00000000   -1.74836659
     atom   30 type  1   force =    -0.00000000   -0.00000001   -1.74836659
     atom   31 type  2   force =    -0.00000001    0.00000000    1.74836659
     atom   32 type  2   force =     0.00000000   -0.00000001    1.74836659
     atom   33 type  1   force =    -0.00000000   -0.00000002   -1.74836659
     atom   34 type  1   force =    -0.00000001   -0.00000001   -1.74836659
     atom   35 type  2   force =    -0.00000000   -0.00000001    1.74836659
     atom   36 type  2   force =    -0.00000001   -0.00000001    1.74836659
     The local contribution  to forces
     atom    1 type  1   force =    -0.00000032   -0.00000018    1.93338250
     atom    2 type  1   force =    -0.00000000    0.00000030    1.93338284
     atom    3 type  2   force =     0.00000001    0.00000001   -1.51744780
     atom    4 type  2   force =    -0.00000000    0.00000145   -1.51744610
     atom    5 type  1   force =    -0.00000000   -0.00000179    1.93338388
     atom    6 type  1   force =     0.00000023   -0.00000002    1.93338091
     atom    7 type  2   force =    -0.00000000    0.00000070   -1.51744755
     atom    8 type  2   force =    -0.00000104   -0.00000064   -1.51744553
     atom    9 type  1   force =    -0.00000155    0.00000089    1.93338388
     atom   10 type  1   force =     0.00000026   -0.00000015    1.93338284
     atom   11 type  2   force =     0.00000060   -0.00000035   -1.51744755
     atom   12 type  2   force =     0.00000125   -0.00000072   -1.51744610
     atom   13 type  1   force =    -0.00000013   -0.00000141    1.93338255
     atom   14 type  1   force =     0.00000139    0.00000080    1.93338265
     atom   15 type  2   force =    -0.00000003    0.00000188   -1.51744633
     atom   16 type  2   force =    -0.00000055   -0.00000032   -1.51744395
     atom   17 type  1   force =    -0.00000142    0.00000082    1.93338255
     atom   18 type  1   force =     0.00000003   -0.00000002    1.93338091
     atom   19 type  2   force =     0.00000158   -0.00000091   -1.51744633
     atom   20 type  2   force =     0.00000111   -0.00000064   -1.51744553
     atom   21 type  1   force =     0.00000155    0.00000089    1.93338388
     atom   22 type  1   force =     0.00000013   -0.00000019    1.93338091
     atom   23 type  2   force =    -0.00000060   -0.00000035   -1.51744755
     atom   24 type  2   force =     0.00000003    0.00000123   -1.51744553
     atom   25 type  1   force =     0.00000032   -0.00000018    1.93338250
     atom   26 type  1   force =    -0.00000139    0.00000080    1.93338265
     atom   27 type  2   force =    -0.00000001    0.00000001   -1.51744780
     atom   28 type  2   force =     0.00000055   -0.00000032   -1.51744395
     atom   29 type  1   force =     0.00000116    0.00000082    1.93338255
     atom   30 type  1   force =    -0.00000000   -0.00000161    1.93338265
     atom   31 type  2   force =    -0.00000164   -0.00000091   -1.51744633
     atom   32 type  2   force =    -0.00000000    0.00000064   -1.51744395
     atom   33 type  1   force =    -0.00000000    0.00000037    1.93338250
     atom   34 type  1   force =    -0.00000026   -0.00000015    1.93338284
     atom   35 type  2   force =    -0.00000000   -0.00000001   -1.51744780
     atom   36 type  2   force =    -0.00000125   -0.00000072   -1.51744610
     The core correction contribution to forces
     atom    1 type  1   force =     0.00000003    0.00000002    0.02108847
     atom    2 type  1   force =     0.00000000   -0.00000003    0.02108845
     atom    3 type  2   force =     0.00000001    0.00000001    0.00122214
     atom    4 type  2   force =     0.00000000    0.00000000    0.00122215
     atom    5 type  1   force =     0.00000000   -0.00000001    0.02108844
     atom    6 type  1   force =     0.00000001   -0.00000001    0.02108848
     atom    7 type  2   force =     0.00000000    0.00000000    0.00122214
     atom    8 type  2   force =     0.00000000    0.00000000    0.00122215
     atom    9 type  1   force =    -0.00000001    0.00000001    0.02108844
     atom   10 type  1   force =    -0.00000002    0.00000001    0.02108845
     atom   11 type  2   force =     0.00000000   -0.00000000    0.00122214
     atom   12 type  2   force =     0.00000000   -0.00000000    0.00122215
     atom   13 type  1   force =    -0.00000002    0.00000000    0.02108841
     atom   14 type  1   force =    -0.00000001   -0.00000000    0.02108851
     atom   15 type  2   force =     0.00000000    0.00000001    0.00122214
     atom   16 type  2   force =    -0.00000000   -0.00000000    0.00122217
     atom   17 type  1   force =    -0.00000002    0.00000001    0.02108841
     atom   18 type  1   force =     0.00000002   -0.00000001    0.02108848
     atom   19 type  2   force =     0.00000001   -0.00000001    0.00122214
     atom   20 type  2   force =    -0.00000000    0.00000000    0.00122215
     atom   21 type  1   force =     0.00000001    0.00000001    0.02108844
     atom   22 type  1   force =     0.00000002   -0.00000000    0.02108848
     atom   23 type  2   force =    -0.00000000   -0.00000000    0.00122214
     atom   24 type  2   force =    -0.00000000   -0.00000000    0.00122215
     atom   25 type  1   force =    -0.00000003    0.00000002    0.02108847
     atom   26 type  1   force =     0.00000001   -0.00000000    0.02108851
     atom   27 type  2   force =    -0.00000001    0.00000001    0.00122214
     atom   28 type  2   force =     0.00000000   -0.00000000    0.00122217
     atom   29 type  1   force =    -0.00000001    0.00000001    0.02108841
     atom   30 type  1   force =    -0.00000000    0.00000001    0.02108851
     atom   31 type  2   force =    -0.00000001   -0.00000001    0.00122214
     atom   32 type  2   force =    -0.00000000    0.00000000    0.00122217
     atom   33 type  1   force =    -0.00000000   -0.00000003    0.02108847
     atom   34 type  1   force =     0.00000002    0.00000001    0.02108845
     atom   35 type  2   force =    -0.00000000   -0.00000001    0.00122214
     atom   36 type  2   force =    -0.00000000   -0.00000000    0.00122215
     The Hubbard contrib.    to forces
     atom    1 type  1   force =     0.00000000    0.00000000    0.00000000
     atom    2 type  1   force =     0.00000000    0.00000000    0.00000000
     atom    3 type  2   force =     0.00000000    0.00000000    0.00000000
     atom    4 type  2   force =     0.00000000    0.00000000    0.00000000
     atom    5 type  1   force =     0.00000000    0.00000000    0.00000000
     atom    6 type  1   force =     0.00000000    0.00000000    0.00000000
     atom    7 type  2   force =     0.00000000    0.00000000    0.00000000
     atom    8 type  2   force =     0.00000000    0.00000000    0.00000000
     atom    9 type  1   force =     0.00000000    0.00000000    0.00000000
     atom   10 type  1   force =     0.00000000    0.00000000    0.00000000
     atom   11 type  2   force =     0.00000000    0.00000000    0.00000000
     atom   12 type  2   force =     0.00000000    0.00000000    0.00000000
     atom   13 type  1   force =     0.00000000    0.00000000    0.00000000
     atom   14 type  1   force =     0.00000000    0.00000000    0.00000000
     atom   15 type  2   force =     0.00000000    0.00000000    0.00000000
     atom   16 type  2   force =     0.00000000    0.00000000    0.00000000
     atom   17 type  1   force =     0.00000000    0.00000000    0.00000000
     atom   18 type  1   force =     0.00000000    0.00000000    0.00000000
     atom   19 type  2   force =     0.00000000    0.00000000    0.00000000
     atom   20 type  2   force =     0.00000000    0.00000000    0.00000000
     atom   21 type  1   force =     0.00000000    0.00000000    0.00000000
     atom   22 type  1   force =     0.00000000    0.00000000    0.00000000
     atom   23 type  2   force =     0.00000000    0.00000000    0.00000000
     atom   24 type  2   force =     0.00000000    0.00000000    0.00000000
     atom   25 type  1   force =     0.00000000    0.00000000    0.00000000
     atom   26 type  1   force =     0.00000000    0.00000000    0.00000000
     atom   27 type  2   force =     0.00000000    0.00000000    0.00000000
     atom   28 type  2   force =     0.00000000    0.00000000    0.00000000
     atom   29 type  1   force =     0.00000000    0.00000000    0.00000000
     atom   30 type  1   force =     0.00000000    0.00000000    0.00000000
     atom   31 type  2   force =     0.00000000    0.00000000    0.00000000
     atom   32 type  2   force =     0.00000000    0.00000000    0.00000000
     atom   33 type  1   force =     0.00000000    0.00000000    0.00000000
     atom   34 type  1   force =     0.00000000    0.00000000    0.00000000
     atom   35 type  2   force =     0.00000000    0.00000000    0.00000000
     atom   36 type  2   force =     0.00000000    0.00000000    0.00000000
     The SCF correction term to forces
     atom    1 type  1   force =    -0.00000008   -0.00000005   -0.00002260
     atom    2 type  1   force =    -0.00000000   -0.00000030   -0.00002305
     atom    3 type  2   force =     0.00000049    0.00000029    0.00000720
     atom    4 type  2   force =    -0.00000000   -0.00000147    0.00000575
     atom    5 type  1   force =    -0.00000000    0.00000293   -0.00002450
     atom    6 type  1   force =    -0.00000018   -0.00000010   -0.00002025
     atom    7 type  2   force =     0.00000000   -0.00000077    0.00000699
     atom    8 type  2   force =     0.00000127    0.00000073    0.00000501
     atom    9 type  1   force =     0.00000254   -0.00000147   -0.00002450
     atom   10 type  1   force =    -0.00000026    0.00000015   -0.00002305
     atom   11 type  2   force =    -0.00000067    0.00000039    0.00000699
     atom   12 type  2   force =    -0.00000127    0.00000073    0.00000575
     atom   13 type  1   force =     0.00000000    0.00000216   -0.00002222
     atom   14 type  1   force =    -0.00000166   -0.00000096   -0.00002419
     atom   15 type  2   force =     0.00000000   -0.00000129    0.00000563
     atom   16 type  2   force =     0.00000057    0.00000033    0.00000395
     atom   17 type  1   force =     0.00000187   -0.00000108   -0.00002222
     atom   18 type  1   force =     0.00000018   -0.00000010   -0.00002025
     atom   19 type  2   force =    -0.00000112    0.00000065    0.00000563
     atom   20 type  2   force =    -0.00000127    0.00000073    0.00000501
     atom   21 type  1   force =    -0.00000254   -0.00000147   -0.00002450
     atom   22 type  1   force =    -0.00000000    0.00000020   -0.00002025
     atom   23 type  2   force =     0.00000067    0.00000039    0.00000699
     atom   24 type  2   force =    -0.00000000   -0.00000147    0.00000501
     atom   25 type  1   force =     0.00000008   -0.00000005   -0.00002260
     atom   26 type  1   force =     0.00000166   -0.00000096   -0.00002419
     atom   27 type  2   force =    -0.00000049    0.00000029    0.00000720
     atom   28 type  2   force =    -0.00000057    0.00000033    0.00000395
     atom   29 type  1   force =    -0.00000187   -0.00000108   -0.00002222
     atom   30 type  1   force =     0.00000000    0.00000191   -0.00002419
     atom   31 type  2   force =     0.00000112    0.00000065    0.00000563
     atom   32 type  2   force =    -0.00000000   -0.00000066    0.00000395
     atom   33 type  1   force =     0.00000000    0.00000010   -0.00002260
     atom   34 type  1   force =     0.00000026    0.00000015   -0.00002305
     atom   35 type  2   force =     0.00000000   -0.00000057    0.00000720
     atom   36 type  2   force =     0.00000127    0.00000073    0.00000575

     Total force =     0.312231     Total SCF correction =     0.000100

     init_run     :     33.69s CPU     29.82s WALL (       1 calls)
     electrons    :   3249.51s CPU   2574.31s WALL (       1 calls)
     forces       :     34.17s CPU     21.96s WALL (       1 calls)

     Called by init_run:
     wfcinit      :     25.87s CPU     21.63s WALL (       1 calls)
     wfcinit:atom :      0.42s CPU      0.69s WALL (       5 calls)
     wfcinit:wfcr :     22.44s CPU     17.59s WALL (       5 calls)
     potinit      :      2.87s CPU      3.08s WALL (       1 calls)
     hinit0       :      4.02s CPU      4.09s WALL (       1 calls)

     Called by electrons:
     c_bands      :   3053.18s CPU   2395.12s WALL (      23 calls)
     sum_band     :    152.47s CPU    132.94s WALL (      23 calls)
     v_of_rho     :     24.79s CPU     26.86s WALL (      24 calls)
     v_h          :      1.49s CPU      1.80s WALL (      24 calls)
     v_xc         :     24.29s CPU     26.16s WALL (      25 calls)
     newd         :     13.56s CPU     13.68s WALL (      24 calls)
     mix_rho      :      3.57s CPU      3.85s WALL (      23 calls)

     Called by c_bands:
     init_us_2    :     18.78s CPU     17.77s WALL (     240 calls)
     init_us_2:cp :     18.77s CPU     17.77s WALL (     240 calls)
     cegterg      :   2820.00s CPU   2161.73s WALL (     115 calls)

     Called by sum_band:
     sum_band:wei :      0.05s CPU      0.05s WALL (      23 calls)
     sum_band:loo :    143.27s CPU    123.51s WALL (      23 calls)
     sum_band:buf :      3.15s CPU      2.85s WALL (     115 calls)
     sum_band:ini :      9.65s CPU      8.57s WALL (     115 calls)
     sum_band:cal :     38.57s CPU     20.16s WALL (     115 calls)
     sum_band:bec :      0.06s CPU      0.05s WALL (     115 calls)
     addusdens    :      4.37s CPU      4.25s WALL (      23 calls)
                                        0.00s GPU  (      23 calls)
     addusd:skk   :      0.11s CPU      0.12s WALL (      46 calls)
                                        0.00s GPU  (      46 calls)

     Called by *egterg:
     cdiaghg      :    166.37s CPU    119.80s WALL (    1229 calls)
     cegterg:over :    224.20s CPU    120.00s WALL (    1114 calls)
     cegterg:upda :    204.82s CPU    154.76s WALL (    1114 calls)
     cegterg:last :    573.33s CPU    445.62s WALL (     653 calls)
     h_psi        :   1281.54s CPU   1050.51s WALL (    1234 calls)
     s_psi        :    249.87s CPU    132.11s WALL (    1234 calls)
     g_psi        :     16.93s CPU     15.59s WALL (    1114 calls)

     Called by h_psi:
     h_psi:calbec :    228.68s CPU    122.35s WALL (    1234 calls)
     vloc_psi     :    785.10s CPU    782.62s WALL (    1234 calls)
     add_vuspsi   :    264.04s CPU    139.67s WALL (    1234 calls)

     General routines
     calbec       :    291.92s CPU    155.25s WALL (    1369 calls)
     fft          :     12.67s CPU     12.69s WALL (     321 calls)
     ffts         :      1.38s CPU      1.32s WALL (      47 calls)
     fftw         :    650.23s CPU    647.96s WALL (   56677 calls)
     interpolate  :      2.26s CPU      2.26s WALL (      24 calls)

     Parallel routines

     PWSCF        :  55m18.25s CPU  43m47.06s WALL


   This run was terminated on:  16:41:28  25Aug2025            

=------------------------------------------------------------------------------=
   JOB DONE.
=------------------------------------------------------------------------------=
Note: The following floating-point exceptions are signalling: IEEE_INVALID_FLAG
Note: The following floating-point exceptions are signalling: IEEE_INVALID_FLAG
Note: The following floating-point exceptions are signalling: IEEE_INVALID_FLAG
Note: The following floating-point exceptions are signalling: IEEE_INVALID_FLAG
Note: The following floating-point exceptions are signalling: IEEE_INVALID_FLAG
Note: The following floating-point exceptions are signalling: IEEE_INVALID_FLAG
Note: The following floating-point exceptions are signalling: IEEE_INVALID_FLAG
Note: The following floating-point exceptions are signalling: IEEE_INVALID_FLAG
Note: The following floating-point exceptions are signalling: IEEE_INVALID_FLAG
Note: The following floating-point exceptions are signalling: IEEE_INVALID_FLAG
Note: The following floating-point exceptions are signalling: IEEE_INVALID_FLAG
Note: The following floating-point exceptions are signalling: IEEE_INVALID_FLAG
Note: The following floating-point exceptions are signalling: IEEE_INVALID_FLAG
Note: The following floating-point exceptions are signalling: IEEE_INVALID_FLAG
Note: The following floating-point exceptions are signalling: IEEE_INVALID_FLAG
Note: The following floating-point exceptions are signalling: IEEE_INVALID_FLAG
Note: The following floating-point exceptions are signalling: IEEE_INVALID_FLAG
Note: The following floating-point exceptions are signalling: IEEE_INVALID_FLAG
Note: The following floating-point exceptions are signalling: IEEE_INVALID_FLAG
Note: The following floating-point exceptions are signalling: IEEE_INVALID_FLAG
Note: The following floating-point exceptions are signalling: IEEE_INVALID_FLAG
Note: The following floating-point exceptions are signalling: IEEE_INVALID_FLAG
Note: The following floating-point exceptions are signalling: IEEE_INVALID_FLAG
Note: The following floating-point exceptions are signalling: IEEE_INVALID_FLAG
Note: The following floating-point exceptions are signalling: IEEE_INVALID_FLAG
Note: The following floating-point exceptions are signalling: IEEE_INVALID_FLAG
Note: The following floating-point exceptions are signalling: IEEE_INVALID_FLAG
Note: The following floating-point exceptions are signalling: IEEE_INVALID_FLAG
Note: The following floating-point exceptions are signalling: IEEE_INVALID_FLAG
Note: The following floating-point exceptions are signalling: IEEE_INVALID_FLAG
Note: The following floating-point exceptions are signalling: IEEE_INVALID_FLAG
Note: The following floating-point exceptions are signalling: IEEE_INVALID_FLAG
