
     Program PWSCF v.7.2 starts on 29Jul2025 at 11:59:57 

     This program is part of the open-source Quantum ESPRESSO suite
     for quantum simulation of materials; please cite
         "P. Giannozzi et al., J. Phys.:Condens. Matter 21 395502 (2009);
         "P. Giannozzi et al., J. Phys.:Condens. Matter 29 465901 (2017);
         "P. Giannozzi et al., J. Chem. Phys. 152 154105 (2020);
          URL http://www.quantum-espresso.org", 
     in publications or presentations arising from this work. More details at
     http://www.quantum-espresso.org/quote

     Parallel version (MPI), running on    32 processors

     MPI processes distributed on     1 nodes
     125840 MiB available memory on the printing compute node when the environment starts

     Reading input from /home/jvc/QEspresso7.2/ZnO_database/scripts/cell313.in/ZnO-3.47-1.49-313.in
Warning: card &CELL ignored
Warning: card / ignored
Warning: card &FCP ignored
Warning: card / ignored
Warning: card &RISM ignored
Warning: card / ignored

     Current dimensions of program PWSCF are:
     Max number of different atomic species (ntypx) = 10
     Max number of k-points (npk) =  40000
     Max angular momentum in pseudopotentials (lmaxx) =  4
     file Zn.upf: wavefunction(s)  3D renormalized
     Found identity + (  0.0000  0.0000  0.3333) symmetry
     This is a supercell, fractional translations are disabled
     Message from routine setup:
     using ibrav=0 with symmetry is DISCOURAGED, use correct ibrav instead

     K-points division:     npool     =       8
     R & G space division:  proc/nbgrp/npool/nimage =       4
     Subspace diagonalization in iterative solution of the eigenvalue problem:
     one sub-group per band group will be used
     custom distributed-memory algorithm (size of sub-group:  2*  2 procs)


     Parallelization info
     --------------------
     sticks:   dense  smooth     PW     G-vecs:    dense   smooth      PW
     Min         787     393    115               100242    35425    5659
     Max         790     394    116               100245    35430    5668
     Sum        3153    1573    461               400971   141707   22649

     Using Slab Decomposition



     bravais-lattice index     =            0
     lattice parameter (alat)  =      18.5365  a.u.
     unit-cell volume          =    2968.1791 (a.u.)^3
     number of atoms/cell      =           36
     number of atomic types    =            2
     number of electrons       =       324.00
     number of Kohn-Sham states=          162
     kinetic-energy cutoff     =      50.0000  Ry
     charge density cutoff     =     400.0000  Ry
     scf convergence threshold =      1.0E-08
     mixing beta               =       0.3000
     number of iterations used =            8  plain     mixing
     Exchange-correlation= PBE
                           (   1   4   3   4   0   0   0)

     celldm(1)=  18.536466  celldm(2)=   0.000000  celldm(3)=   0.000000
     celldm(4)=   0.000000  celldm(5)=   0.000000  celldm(6)=   0.000000

     crystal axes: (cart. coord. in units of alat)
               a(1) = (   1.000000   0.000000   0.000000 )  
               a(2) = (  -0.166667   0.288675   0.000000 )  
               a(3) = (   0.000000   0.000000   1.614358 )  

     reciprocal axes: (cart. coord. in units 2 pi/alat)
               b(1) = (  1.000000  0.577350 -0.000000 )  
               b(2) = (  0.000000  3.464102  0.000000 )  
               b(3) = (  0.000000 -0.000000  0.619441 )  


     PseudoPot. # 1 for Zn read from file:
     /home/jvc/QEspresso7.2/ZnO_database/pseudos/Zn.upf
     MD5 check sum: 7f56cabf9682ed8c977c2f7d0c5985c5
     Pseudo is Ultrasoft + core correction, Zval = 12.0
     Generated using &quot;atomic&quot; code by A. Dal Corso  v.6.2.2
     Using radial grid of 1201 points,  6 beta functions with: 
                l(1) =   0
                l(2) =   0
                l(3) =   1
                l(4) =   1
                l(5) =   2
                l(6) =   2
     Q(r) pseudized with 0 coefficients 


     PseudoPot. # 2 for O  read from file:
     /home/jvc/QEspresso7.2/ZnO_database/pseudos/O.upf
     MD5 check sum: 91400c9766925bcf19f520983a725ff0
     Pseudo is Ultrasoft + core correction, Zval =  6.0
     Generated using &quot;atomic&quot; code by A. Dal Corso  v.6.3MaX
     Using radial grid of 1095 points,  4 beta functions with: 
                l(1) =   0
                l(2) =   0
                l(3) =   1
                l(4) =   1
     Q(r) pseudized with 0 coefficients 


     atomic species   valence    mass     pseudopotential
        Zn            12.00    65.38000     Zn( 1.00)
        O              6.00    15.99900     O ( 1.00)

      2 Sym. Ops. (no inversion) found


                                    s                        frac. trans.

      isym =  1     identity                                     

 cryst.   s( 1) = (     1          0          0      )
                  (     0          1          0      )
                  (     0          0          1      )

 cart.    s( 1) = (  1.0000000  0.0000000  0.0000000 )
                  (  0.0000000  1.0000000  0.0000000 )
                  (  0.0000000  0.0000000  1.0000000 )


      isym =  2     inv. 180 deg rotation - cryst. axis [0,1,0]  

 cryst.   s( 2) = (     1          3          0      )
                  (     0         -1          0      )
                  (     0          0          1      )

 cart.    s( 2) = (  0.5000000  0.8660254  0.0000000 )
                  (  0.8660254 -0.5000000  0.0000000 )
                  (  0.0000000  0.0000000  1.0000000 )


   Cartesian axes

     site n.     atom                  positions (alat units)
         1           Zn  tau(   1) = (   0.1666667   0.0962250   0.2694007  )
         2           Zn  tau(   2) = (   0.0000000   0.1924501   0.0003409  )
         3           O   tau(   3) = (   0.1666667   0.0962250   0.4733710  )
         4           O   tau(   4) = (   0.0000000   0.1924501   0.2043113  )
         5           Zn  tau(   5) = (   0.1666667   0.0962250   0.8075201  )
         6           Zn  tau(   6) = (   0.0000000   0.1924501   0.5384604  )
         7           O   tau(   7) = (   0.1666667   0.0962250   1.0114904  )
         8           O   tau(   8) = (   0.0000000   0.1924501   0.7424307  )
         9           Zn  tau(   9) = (   0.1666667   0.0962250   1.3456396  )
        10           Zn  tau(  10) = (   0.0000000   0.1924501   1.0765798  )
        11           O   tau(  11) = (   0.1666667   0.0962250   1.5496099  )
        12           O   tau(  12) = (   0.0000000   0.1924501   1.2805502  )
        13           Zn  tau(  13) = (   0.5000000   0.0962250   0.2694007  )
        14           Zn  tau(  14) = (   0.3333333   0.1924501   0.0003409  )
        15           O   tau(  15) = (   0.5000000   0.0962250   0.4733710  )
        16           O   tau(  16) = (   0.3333333   0.1924501   0.2043113  )
        17           Zn  tau(  17) = (   0.5000000   0.0962250   0.8075201  )
        18           Zn  tau(  18) = (   0.3333333   0.1924501   0.5384604  )
        19           O   tau(  19) = (   0.5000000   0.0962250   1.0114904  )
        20           O   tau(  20) = (   0.3333333   0.1924501   0.7424307  )
        21           Zn  tau(  21) = (   0.5000000   0.0962250   1.3456396  )
        22           Zn  tau(  22) = (   0.3333333   0.1924501   1.0765798  )
        23           O   tau(  23) = (   0.5000000   0.0962250   1.5496099  )
        24           O   tau(  24) = (   0.3333333   0.1924501   1.2805502  )
        25           Zn  tau(  25) = (   0.8333333   0.0962250   0.2694007  )
        26           Zn  tau(  26) = (   0.6666667   0.1924501   0.0003409  )
        27           O   tau(  27) = (   0.8333333   0.0962250   0.4733710  )
        28           O   tau(  28) = (   0.6666667   0.1924501   0.2043113  )
        29           Zn  tau(  29) = (   0.8333333   0.0962250   0.8075201  )
        30           Zn  tau(  30) = (   0.6666667   0.1924501   0.5384604  )
        31           O   tau(  31) = (   0.8333333   0.0962250   1.0114904  )
        32           O   tau(  32) = (   0.6666667   0.1924501   0.7424307  )
        33           Zn  tau(  33) = (   0.8333333   0.0962250   1.3456396  )
        34           Zn  tau(  34) = (   0.6666667   0.1924501   1.0765798  )
        35           O   tau(  35) = (   0.8333333   0.0962250   1.5496099  )
        36           O   tau(  36) = (   0.6666667   0.1924501   1.2805502  )

   Crystallographic axes

     site n.     atom                  positions (cryst. coord.)
         1           Zn  tau(   1) = (  0.2222222  0.3333333  0.1668779  )
         2           Zn  tau(   2) = (  0.1111111  0.6666667  0.0002112  )
         3           O   tau(   3) = (  0.2222222  0.3333333  0.2932255  )
         4           O   tau(   4) = (  0.1111111  0.6666667  0.1265588  )
         5           Zn  tau(   5) = (  0.2222222  0.3333333  0.5002112  )
         6           Zn  tau(   6) = (  0.1111111  0.6666667  0.3335445  )
         7           O   tau(   7) = (  0.2222222  0.3333333  0.6265588  )
         8           O   tau(   8) = (  0.1111111  0.6666667  0.4598921  )
         9           Zn  tau(   9) = (  0.2222222  0.3333333  0.8335445  )
        10           Zn  tau(  10) = (  0.1111111  0.6666667  0.6668779  )
        11           O   tau(  11) = (  0.2222222  0.3333333  0.9598921  )
        12           O   tau(  12) = (  0.1111111  0.6666667  0.7932255  )
        13           Zn  tau(  13) = (  0.5555556  0.3333333  0.1668779  )
        14           Zn  tau(  14) = (  0.4444444  0.6666667  0.0002112  )
        15           O   tau(  15) = (  0.5555556  0.3333333  0.2932255  )
        16           O   tau(  16) = (  0.4444444  0.6666667  0.1265588  )
        17           Zn  tau(  17) = (  0.5555556  0.3333333  0.5002112  )
        18           Zn  tau(  18) = (  0.4444444  0.6666667  0.3335445  )
        19           O   tau(  19) = (  0.5555556  0.3333333  0.6265588  )
        20           O   tau(  20) = (  0.4444444  0.6666667  0.4598921  )
        21           Zn  tau(  21) = (  0.5555556  0.3333333  0.8335445  )
        22           Zn  tau(  22) = (  0.4444444  0.6666667  0.6668779  )
        23           O   tau(  23) = (  0.5555556  0.3333333  0.9598921  )
        24           O   tau(  24) = (  0.4444444  0.6666667  0.7932255  )
        25           Zn  tau(  25) = (  0.8888889  0.3333333  0.1668779  )
        26           Zn  tau(  26) = (  0.7777778  0.6666667  0.0002112  )
        27           O   tau(  27) = (  0.8888889  0.3333333  0.2932255  )
        28           O   tau(  28) = (  0.7777778  0.6666667  0.1265588  )
        29           Zn  tau(  29) = (  0.8888889  0.3333333  0.5002112  )
        30           Zn  tau(  30) = (  0.7777778  0.6666667  0.3335445  )
        31           O   tau(  31) = (  0.8888889  0.3333333  0.6265588  )
        32           O   tau(  32) = (  0.7777778  0.6666667  0.4598921  )
        33           Zn  tau(  33) = (  0.8888889  0.3333333  0.8335445  )
        34           Zn  tau(  34) = (  0.7777778  0.6666667  0.6668779  )
        35           O   tau(  35) = (  0.8888889  0.3333333  0.9598921  )
        36           O   tau(  36) = (  0.7777778  0.6666667  0.7932255  )

     number of k points=    12
                       cart. coord. in units 2pi/alat
        k(    1) = (   0.0000000   0.0000000   0.0000000), wk =   0.0833333
        k(    2) = (   0.0000000   0.0000000  -0.3097206), wk =   0.0833333
        k(    3) = (   0.0000000   0.5773503   0.0000000), wk =   0.3333333
        k(    4) = (   0.0000000   0.5773503  -0.3097206), wk =   0.3333333
        k(    5) = (   0.0000000   1.1547005   0.0000000), wk =   0.1666667
        k(    6) = (   0.0000000   1.1547005  -0.3097206), wk =   0.1666667
        k(    7) = (   0.0000000  -1.7320508   0.0000000), wk =   0.1666667
        k(    8) = (   0.0000000  -1.7320508  -0.3097206), wk =   0.1666667
        k(    9) = (  -0.5000000  -0.2886751   0.0000000), wk =   0.0833333
        k(   10) = (  -0.5000000  -0.2886751  -0.3097206), wk =   0.0833333
        k(   11) = (  -0.5000000   0.8660254   0.0000000), wk =   0.1666667
        k(   12) = (  -0.5000000   0.8660254  -0.3097206), wk =   0.1666667

                       cryst. coord.
        k(    1) = (   0.0000000   0.0000000   0.0000000), wk =   0.0833333
        k(    2) = (   0.0000000   0.0000000  -0.5000000), wk =   0.0833333
        k(    3) = (   0.0000000   0.1666667   0.0000000), wk =   0.3333333
        k(    4) = (   0.0000000   0.1666667  -0.5000000), wk =   0.3333333
        k(    5) = (   0.0000000   0.3333333   0.0000000), wk =   0.1666667
        k(    6) = (   0.0000000   0.3333333  -0.5000000), wk =   0.1666667
        k(    7) = (   0.0000000  -0.5000000   0.0000000), wk =   0.1666667
        k(    8) = (   0.0000000  -0.5000000  -0.5000000), wk =   0.1666667
        k(    9) = (  -0.5000000  -0.0000000   0.0000000), wk =   0.0833333
        k(   10) = (  -0.5000000  -0.0000000  -0.5000000), wk =   0.0833333
        k(   11) = (  -0.5000000   0.3333333   0.0000000), wk =   0.1666667
        k(   12) = (  -0.5000000   0.3333333  -0.5000000), wk =   0.1666667

     Dense  grid:   400971 G-vectors     FFT dimensions: ( 120,  40, 192)

     Smooth grid:   141707 G-vectors     FFT dimensions: (  90,  27, 135)

     Dynamical RAM for                 wfc:      10.95 MB

     Dynamical RAM for     wfc (w. buffer):      32.85 MB

     Dynamical RAM for           str. fact:       3.06 MB

     Dynamical RAM for           local pot:       0.00 MB

     Dynamical RAM for          nlocal pot:      31.64 MB

     Dynamical RAM for                qrad:       3.21 MB

     Dynamical RAM for          rho,v,vnew:       9.86 MB

     Dynamical RAM for               rhoin:       3.29 MB

     Dynamical RAM for            rho*nmix:      24.47 MB

     Dynamical RAM for           G-vectors:       6.01 MB

     Dynamical RAM for          h,s,v(r/c):       1.20 MB

     Dynamical RAM for          <psi|beta>:       1.16 MB

     Dynamical RAM for                 psi:      21.90 MB

     Dynamical RAM for                hpsi:      21.90 MB

     Dynamical RAM for                spsi:      21.90 MB

     Dynamical RAM for      wfcinit/wfcrot:      32.89 MB

     Dynamical RAM for           addusdens:      40.34 MB

     Dynamical RAM for          addusforce:      46.34 MB

     Estimated static dynamical RAM per process >     103.29 MB

     Estimated max dynamical RAM per process >     195.83 MB

     Estimated total dynamical RAM >       5.45 GB

     Check: negative core charge=   -0.000002

     Initial potential from superposition of free atoms

     starting charge     323.9329, renormalised to     324.0000
     Starting wfcs are  234 randomized atomic wfcs

     total cpu time spent up to now is       15.1 secs

     Self-consistent Calculation

     iteration #  1     ecut=    50.00 Ry     beta= 0.30
     Davidson diagonalization with overlap

---- Real-time Memory Report at c_bands before calling an iterative solver
           165 MiB given to the printing process from OS
             0 MiB allocation reported by mallinfo(arena+hblkhd)
        121341 MiB available memory on the node where the printing process lives
------------------
     ethr =  1.00E-02,  avg # of iterations =  2.0

     total cpu time spent up to now is       27.0 secs

     total energy              =   -3253.31817553 Ry
     estimated scf accuracy    <       6.21381489 Ry

     iteration #  2     ecut=    50.00 Ry     beta= 0.30
     Davidson diagonalization with overlap

---- Real-time Memory Report at c_bands before calling an iterative solver
           216 MiB given to the printing process from OS
             0 MiB allocation reported by mallinfo(arena+hblkhd)
        120163 MiB available memory on the node where the printing process lives
------------------
     ethr =  1.92E-03,  avg # of iterations =  2.0

     total cpu time spent up to now is       41.8 secs

     total energy              =   -3254.22016217 Ry
     estimated scf accuracy    <       0.78723818 Ry

     iteration #  3     ecut=    50.00 Ry     beta= 0.30
     Davidson diagonalization with overlap

---- Real-time Memory Report at c_bands before calling an iterative solver
           219 MiB given to the printing process from OS
             0 MiB allocation reported by mallinfo(arena+hblkhd)
        120329 MiB available memory on the node where the printing process lives
------------------
     ethr =  2.43E-04,  avg # of iterations =  7.5

     total cpu time spent up to now is       68.5 secs

     total energy              =   -3254.52182419 Ry
     estimated scf accuracy    <       0.47366779 Ry

     iteration #  4     ecut=    50.00 Ry     beta= 0.30
     Davidson diagonalization with overlap

---- Real-time Memory Report at c_bands before calling an iterative solver
           222 MiB given to the printing process from OS
             0 MiB allocation reported by mallinfo(arena+hblkhd)
        120326 MiB available memory on the node where the printing process lives
------------------
     ethr =  1.46E-04,  avg # of iterations =  8.8

     total cpu time spent up to now is      100.9 secs

     total energy              =   -3254.78072539 Ry
     estimated scf accuracy    <       1.73997425 Ry

     iteration #  5     ecut=    50.00 Ry     beta= 0.30
     Davidson diagonalization with overlap

---- Real-time Memory Report at c_bands before calling an iterative solver
           223 MiB given to the printing process from OS
             0 MiB allocation reported by mallinfo(arena+hblkhd)
        120336 MiB available memory on the node where the printing process lives
------------------
     ethr =  1.46E-04,  avg # of iterations =  2.0

     total cpu time spent up to now is      112.9 secs

     total energy              =   -3254.06419358 Ry
     estimated scf accuracy    <       0.94452193 Ry

     iteration #  6     ecut=    50.00 Ry     beta= 0.30
     Davidson diagonalization with overlap

---- Real-time Memory Report at c_bands before calling an iterative solver
           223 MiB given to the printing process from OS
             0 MiB allocation reported by mallinfo(arena+hblkhd)
        120324 MiB available memory on the node where the printing process lives
------------------
     ethr =  1.46E-04,  avg # of iterations = 11.8

     total cpu time spent up to now is      153.1 secs

     total energy              =   -3253.70268451 Ry
     estimated scf accuracy    <       9.87354670 Ry

     iteration #  7     ecut=    50.00 Ry     beta= 0.30
     Davidson diagonalization with overlap

---- Real-time Memory Report at c_bands before calling an iterative solver
           226 MiB given to the printing process from OS
             0 MiB allocation reported by mallinfo(arena+hblkhd)
        120324 MiB available memory on the node where the printing process lives
------------------
     ethr =  1.46E-04,  avg # of iterations = 10.8

     total cpu time spent up to now is      187.9 secs

     total energy              =   -3254.73401588 Ry
     estimated scf accuracy    <       0.47469123 Ry

     iteration #  8     ecut=    50.00 Ry     beta= 0.30
     Davidson diagonalization with overlap

---- Real-time Memory Report at c_bands before calling an iterative solver
           228 MiB given to the printing process from OS
             0 MiB allocation reported by mallinfo(arena+hblkhd)
        120371 MiB available memory on the node where the printing process lives
------------------
     ethr =  1.46E-04,  avg # of iterations =  2.0

     total cpu time spent up to now is      199.7 secs

     total energy              =   -3254.71717849 Ry
     estimated scf accuracy    <       0.29821881 Ry

     iteration #  9     ecut=    50.00 Ry     beta= 0.30
     Davidson diagonalization with overlap

---- Real-time Memory Report at c_bands before calling an iterative solver
           228 MiB given to the printing process from OS
             0 MiB allocation reported by mallinfo(arena+hblkhd)
        120372 MiB available memory on the node where the printing process lives
------------------
     ethr =  9.20E-05,  avg # of iterations =  2.0

     total cpu time spent up to now is      212.0 secs

     total energy              =   -3254.68434260 Ry
     estimated scf accuracy    <       0.16157701 Ry

     iteration # 10     ecut=    50.00 Ry     beta= 0.30
     Davidson diagonalization with overlap

---- Real-time Memory Report at c_bands before calling an iterative solver
           228 MiB given to the printing process from OS
             0 MiB allocation reported by mallinfo(arena+hblkhd)
        120350 MiB available memory on the node where the printing process lives
------------------
     ethr =  4.99E-05,  avg # of iterations =  5.4

     total cpu time spent up to now is      229.5 secs

     total energy              =   -3254.71989235 Ry
     estimated scf accuracy    <       0.01050344 Ry

     iteration # 11     ecut=    50.00 Ry     beta= 0.30
     Davidson diagonalization with overlap

---- Real-time Memory Report at c_bands before calling an iterative solver
           230 MiB given to the printing process from OS
             0 MiB allocation reported by mallinfo(arena+hblkhd)
        120336 MiB available memory on the node where the printing process lives
------------------
     ethr =  3.24E-06,  avg # of iterations =  8.8

     total cpu time spent up to now is      259.6 secs

     total energy              =   -3254.73157220 Ry
     estimated scf accuracy    <       0.00111483 Ry

     iteration # 12     ecut=    50.00 Ry     beta= 0.30
     Davidson diagonalization with overlap

---- Real-time Memory Report at c_bands before calling an iterative solver
           230 MiB given to the printing process from OS
             0 MiB allocation reported by mallinfo(arena+hblkhd)
        120287 MiB available memory on the node where the printing process lives
------------------
     ethr =  3.44E-07,  avg # of iterations =  4.8

     total cpu time spent up to now is      278.2 secs

     total energy              =   -3254.73196799 Ry
     estimated scf accuracy    <       0.00008257 Ry

     iteration # 13     ecut=    50.00 Ry     beta= 0.30
     Davidson diagonalization with overlap

---- Real-time Memory Report at c_bands before calling an iterative solver
           230 MiB given to the printing process from OS
             0 MiB allocation reported by mallinfo(arena+hblkhd)
        120405 MiB available memory on the node where the printing process lives
------------------
     ethr =  2.55E-08,  avg # of iterations =  7.3

     total cpu time spent up to now is      304.5 secs

     total energy              =   -3254.73214887 Ry
     estimated scf accuracy    <       0.00009877 Ry

     iteration # 14     ecut=    50.00 Ry     beta= 0.30
     Davidson diagonalization with overlap

---- Real-time Memory Report at c_bands before calling an iterative solver
           230 MiB given to the printing process from OS
             0 MiB allocation reported by mallinfo(arena+hblkhd)
        120315 MiB available memory on the node where the printing process lives
------------------
     ethr =  2.55E-08,  avg # of iterations = 11.0

     total cpu time spent up to now is      340.8 secs

     total energy              =   -3254.73202180 Ry
     estimated scf accuracy    <       0.00137118 Ry

     iteration # 15     ecut=    50.00 Ry     beta= 0.30
     Davidson diagonalization with overlap

---- Real-time Memory Report at c_bands before calling an iterative solver
           230 MiB given to the printing process from OS
             0 MiB allocation reported by mallinfo(arena+hblkhd)
        120368 MiB available memory on the node where the printing process lives
------------------
     ethr =  2.55E-08,  avg # of iterations =  6.9

     total cpu time spent up to now is      367.2 secs

     total energy              =   -3254.73184285 Ry
     estimated scf accuracy    <       0.00039964 Ry

     iteration # 16     ecut=    50.00 Ry     beta= 0.30
     Davidson diagonalization with overlap

---- Real-time Memory Report at c_bands before calling an iterative solver
           230 MiB given to the printing process from OS
             0 MiB allocation reported by mallinfo(arena+hblkhd)
        120358 MiB available memory on the node where the printing process lives
------------------
     ethr =  2.55E-08,  avg # of iterations = 10.4

     total cpu time spent up to now is      401.6 secs

     total energy              =   -3254.73205001 Ry
     estimated scf accuracy    <       0.00013413 Ry

     iteration # 17     ecut=    50.00 Ry     beta= 0.30
     Davidson diagonalization with overlap

---- Real-time Memory Report at c_bands before calling an iterative solver
           230 MiB given to the printing process from OS
             0 MiB allocation reported by mallinfo(arena+hblkhd)
        120339 MiB available memory on the node where the printing process lives
------------------
     ethr =  2.55E-08,  avg # of iterations =  2.0

     total cpu time spent up to now is      413.4 secs

     total energy              =   -3254.73213341 Ry
     estimated scf accuracy    <       0.00018979 Ry

     iteration # 18     ecut=    50.00 Ry     beta= 0.30
     Davidson diagonalization with overlap

---- Real-time Memory Report at c_bands before calling an iterative solver
           230 MiB given to the printing process from OS
             0 MiB allocation reported by mallinfo(arena+hblkhd)
        120294 MiB available memory on the node where the printing process lives
------------------
     ethr =  2.55E-08,  avg # of iterations =  6.1

     total cpu time spent up to now is      432.8 secs

     total energy              =   -3254.73201658 Ry
     estimated scf accuracy    <       0.00059555 Ry

     iteration # 19     ecut=    50.00 Ry     beta= 0.30
     Davidson diagonalization with overlap

---- Real-time Memory Report at c_bands before calling an iterative solver
           231 MiB given to the printing process from OS
             0 MiB allocation reported by mallinfo(arena+hblkhd)
        120360 MiB available memory on the node where the printing process lives
------------------
     ethr =  2.55E-08,  avg # of iterations =  2.8

     total cpu time spent up to now is      446.8 secs

     total energy              =   -3254.73185891 Ry
     estimated scf accuracy    <       0.00031429 Ry

     iteration # 20     ecut=    50.00 Ry     beta= 0.30
     Davidson diagonalization with overlap

---- Real-time Memory Report at c_bands before calling an iterative solver
           231 MiB given to the printing process from OS
             0 MiB allocation reported by mallinfo(arena+hblkhd)
        120390 MiB available memory on the node where the printing process lives
------------------
     ethr =  2.55E-08,  avg # of iterations =  8.5

     total cpu time spent up to now is      479.6 secs

     total energy              =   -3254.73198749 Ry
     estimated scf accuracy    <       0.00007808 Ry

     iteration # 21     ecut=    50.00 Ry     beta= 0.30
     Davidson diagonalization with overlap

---- Real-time Memory Report at c_bands before calling an iterative solver
           231 MiB given to the printing process from OS
             0 MiB allocation reported by mallinfo(arena+hblkhd)
        120377 MiB available memory on the node where the printing process lives
------------------
     ethr =  2.41E-08,  avg # of iterations =  1.7

     total cpu time spent up to now is      491.1 secs

     total energy              =   -3254.73196822 Ry
     estimated scf accuracy    <       0.00003130 Ry

     iteration # 22     ecut=    50.00 Ry     beta= 0.30
     Davidson diagonalization with overlap

---- Real-time Memory Report at c_bands before calling an iterative solver
           231 MiB given to the printing process from OS
             0 MiB allocation reported by mallinfo(arena+hblkhd)
        120354 MiB available memory on the node where the printing process lives
------------------
     ethr =  9.66E-09,  avg # of iterations =  7.2

     total cpu time spent up to now is      520.3 secs

     total energy              =   -3254.73200146 Ry
     estimated scf accuracy    <       0.00005048 Ry

     iteration # 23     ecut=    50.00 Ry     beta= 0.30
     Davidson diagonalization with overlap

---- Real-time Memory Report at c_bands before calling an iterative solver
           231 MiB given to the printing process from OS
             0 MiB allocation reported by mallinfo(arena+hblkhd)
        120348 MiB available memory on the node where the printing process lives
------------------
     ethr =  9.66E-09,  avg # of iterations =  1.0

     total cpu time spent up to now is      531.1 secs

     total energy              =   -3254.73198765 Ry
     estimated scf accuracy    <       0.00004272 Ry

     iteration # 24     ecut=    50.00 Ry     beta= 0.30
     Davidson diagonalization with overlap

---- Real-time Memory Report at c_bands before calling an iterative solver
           231 MiB given to the printing process from OS
             0 MiB allocation reported by mallinfo(arena+hblkhd)
        120354 MiB available memory on the node where the printing process lives
------------------
     ethr =  9.66E-09,  avg # of iterations =  2.0

     total cpu time spent up to now is      543.3 secs

     total energy              =   -3254.73198539 Ry
     estimated scf accuracy    <       0.00001573 Ry

     iteration # 25     ecut=    50.00 Ry     beta= 0.30
     Davidson diagonalization with overlap

---- Real-time Memory Report at c_bands before calling an iterative solver
           231 MiB given to the printing process from OS
             0 MiB allocation reported by mallinfo(arena+hblkhd)
        120366 MiB available memory on the node where the printing process lives
------------------
     ethr =  4.86E-09,  avg # of iterations =  4.7

     total cpu time spent up to now is      560.9 secs

     total energy              =   -3254.73199026 Ry
     estimated scf accuracy    <       0.00000026 Ry

     iteration # 26     ecut=    50.00 Ry     beta= 0.30
     Davidson diagonalization with overlap

---- Real-time Memory Report at c_bands before calling an iterative solver
           231 MiB given to the printing process from OS
             0 MiB allocation reported by mallinfo(arena+hblkhd)
        120413 MiB available memory on the node where the printing process lives
------------------
     ethr =  8.05E-11,  avg # of iterations = 11.4

     total cpu time spent up to now is      599.0 secs

     total energy              =   -3254.73199115 Ry
     estimated scf accuracy    <       0.00000052 Ry

     iteration # 27     ecut=    50.00 Ry     beta= 0.30
     Davidson diagonalization with overlap

---- Real-time Memory Report at c_bands before calling an iterative solver
           231 MiB given to the printing process from OS
             0 MiB allocation reported by mallinfo(arena+hblkhd)
        120388 MiB available memory on the node where the printing process lives
------------------
     ethr =  8.05E-11,  avg # of iterations =  2.0

     total cpu time spent up to now is      611.9 secs

     total energy              =   -3254.73199109 Ry
     estimated scf accuracy    <       0.00000018 Ry

     iteration # 28     ecut=    50.00 Ry     beta= 0.30
     Davidson diagonalization with overlap

---- Real-time Memory Report at c_bands before calling an iterative solver
           231 MiB given to the printing process from OS
             0 MiB allocation reported by mallinfo(arena+hblkhd)
        120367 MiB available memory on the node where the printing process lives
------------------
     ethr =  5.44E-11,  avg # of iterations =  7.3

     total cpu time spent up to now is      635.3 secs

     total energy              =   -3254.73199124 Ry
     estimated scf accuracy    <       0.00000004 Ry

     iteration # 29     ecut=    50.00 Ry     beta= 0.30
     Davidson diagonalization with overlap

---- Real-time Memory Report at c_bands before calling an iterative solver
           231 MiB given to the printing process from OS
             0 MiB allocation reported by mallinfo(arena+hblkhd)
        120357 MiB available memory on the node where the printing process lives
------------------
     ethr =  1.26E-11,  avg # of iterations =  7.5

     total cpu time spent up to now is      661.7 secs

     total energy              =   -3254.73199123 Ry
     estimated scf accuracy    <       0.00000024 Ry

     iteration # 30     ecut=    50.00 Ry     beta= 0.30
     Davidson diagonalization with overlap

---- Real-time Memory Report at c_bands before calling an iterative solver
           231 MiB given to the printing process from OS
             0 MiB allocation reported by mallinfo(arena+hblkhd)
        120374 MiB available memory on the node where the printing process lives
------------------
     ethr =  1.26E-11,  avg # of iterations =  1.1

     total cpu time spent up to now is      672.7 secs

     total energy              =   -3254.73199115 Ry
     estimated scf accuracy    <       0.00000017 Ry

     iteration # 31     ecut=    50.00 Ry     beta= 0.30
     Davidson diagonalization with overlap

---- Real-time Memory Report at c_bands before calling an iterative solver
           231 MiB given to the printing process from OS
             0 MiB allocation reported by mallinfo(arena+hblkhd)
        120410 MiB available memory on the node where the printing process lives
------------------
     ethr =  1.26E-11,  avg # of iterations =  8.1

     total cpu time spent up to now is      703.3 secs

     End of self-consistent calculation

          k = 0.0000 0.0000 0.0000 ( 17677 PWs)   bands (ev):

   -10.9984 -10.8351 -10.8351 -10.5469 -10.5469 -10.4951 -10.4951 -10.4470
   -10.4470 -10.4470 -10.4470 -10.3181 -10.2519 -10.2519 -10.2519 -10.2518
   -10.1574 -10.1573   0.9559   0.9559   0.9559   0.9559   1.0420   1.0420
     1.0906   1.0906   1.0907   1.0907   1.1614   1.1614   1.2062   1.2062
     1.3159   1.3159   1.3451   1.3451   1.3451   1.3451   1.3565   1.3780
     1.3780   1.4366   1.4366   1.4366   1.4366   1.4392   1.5014   1.5014
     1.5196   1.5196   1.5967   1.5967   1.5967   1.5967   1.6674   1.6674
     1.6674   1.6674   1.7197   1.7197   1.7583   1.7583   1.7583   1.7583
     1.7846   1.7846   1.7846   1.7846   1.9005   1.9005   2.0312   2.0312
     2.3484   2.3484   2.4282   2.4282   2.4787   2.4787   2.4787   2.4787
     2.4918   2.4918   2.4918   2.4918   2.4988   2.4988   2.5338   2.5338
     2.5339   2.5339   2.5917   2.5917   2.5917   2.5917   2.6096   2.6096
     2.6096   2.6096   2.6248   2.6248   2.6552   2.6552   2.6819   2.6819
     2.6819   2.6819   2.8131   2.8131   2.8918   3.0838   3.0838   3.6415
     3.6415   3.6415   3.6415   3.7941   3.7941   3.8753   3.8753   4.0473
     4.0473   4.0473   4.0473   4.6507   4.6507   4.9084   4.9084   4.9084
     4.9084   5.0973   5.0973   5.4186   5.4186   5.4186   5.4186   5.4566
     5.4566   5.9793   5.9793   5.9793   5.9793   6.0155   6.0155   6.0155
     6.0155   6.0931   6.0931   6.1251   6.1251   6.3016   6.3016   6.3190
     6.3190   6.3190   6.3190   6.7004   6.7004   6.7004   6.7004   6.8050
     6.8874   6.8874

     occupation numbers 
     1.0000   1.0000   1.0000   1.0000   1.0000   1.0000   1.0000   1.0000
     1.0000   1.0000   1.0000   1.0000   1.0000   1.0000   1.0000   1.0000
     1.0000   1.0000   1.0000   1.0000   1.0000   1.0000   1.0000   1.0000
     1.0000   1.0000   1.0000   1.0000   1.0000   1.0000   1.0000   1.0000
     1.0000   1.0000   1.0000   1.0000   1.0000   1.0000   1.0000   1.0000
     1.0000   1.0000   1.0000   1.0000   1.0000   1.0000   1.0000   1.0000
     1.0000   1.0000   1.0000   1.0000   1.0000   1.0000   1.0000   1.0000
     1.0000   1.0000   1.0000   1.0000   1.0000   1.0000   1.0000   1.0000
     1.0000   1.0000   1.0000   1.0000   1.0000   1.0000   1.0000   1.0000
     1.0000   1.0000   1.0000   1.0000   1.0000   1.0000   1.0000   1.0000
     1.0000   1.0000   1.0000   1.0000   1.0000   1.0000   1.0000   1.0000
     1.0000   1.0000   1.0000   1.0000   1.0000   1.0000   1.0000   1.0000
     1.0000   1.0000   1.0000   1.0000   1.0000   1.0000   1.0000   1.0000
     1.0000   1.0000   1.0000   1.0000   1.0000   1.0000   1.0000   1.0000
     1.0000   1.0000   1.0000   1.0000   1.0000   1.0000   1.0000   1.0000
     1.0000   1.0000   1.0000   1.0000   1.0000   1.0000   1.0000   1.0000
     1.0000   1.0000   1.0000   1.0000   1.0000   1.0000   1.0000   1.0000
     1.0000   1.0000   1.0000   1.0000   1.0000   1.0000   1.0000   1.0000
     1.0000   1.0000   1.0000   1.0000   1.0000   1.0000   1.0000   1.0000
     1.0000   1.0000   1.0000   1.0000   1.0000   1.0000   1.0000   1.0000
     1.0000   1.0000

          k = 0.0000 0.0000-0.3097 ( 17624 PWs)   bands (ev):

   -10.9551 -10.9550 -10.6674 -10.6673 -10.5200 -10.5200 -10.5200 -10.5200
   -10.3660 -10.3660 -10.3486 -10.3486 -10.3486 -10.3486 -10.1824 -10.1824
   -10.1824 -10.1824   0.9620   0.9620   0.9620   0.9620   1.0114   1.0114
     1.0114   1.0114   1.1297   1.1298   1.2878   1.2878   1.2878   1.2878
     1.3102   1.3102   1.3169   1.3169   1.3225   1.3225   1.3225   1.3225
     1.3852   1.3852   1.3852   1.3852   1.4826   1.4826   1.4826   1.4826
     1.5395   1.5395   1.5395   1.5395   1.6841   1.6841   1.6841   1.6841
     1.6874   1.6874   1.6874   1.6874   1.6945   1.6945   1.6945   1.6945
     1.8679   1.8679   1.8679   1.8679   1.8969   1.8969   1.8970   1.8970
     2.3852   2.3852   2.3853   2.3853   2.4460   2.4460   2.4460   2.4460
     2.5083   2.5083   2.5083   2.5083   2.5468   2.5468   2.5468   2.5468
     2.5701   2.5701   2.5701   2.5701   2.5851   2.5851   2.5851   2.5851
     2.6171   2.6171   2.6172   2.6172   2.6424   2.6424   2.6425   2.6425
     2.7606   2.7606   2.7606   2.7606   3.2007   3.2007   3.3424   3.3424
     3.3424   3.3424   3.8758   3.8758   3.8758   3.8758   3.9351   3.9351
     3.9352   3.9352   4.6229   4.6229   4.6229   4.6229   4.6601   4.6601
     5.1856   5.1856   5.1857   5.1857   5.5304   5.5304   5.5304   5.5304
     5.7225   5.7225   5.7225   5.7225   6.1085   6.1085   6.1085   6.1086
     6.1772   6.1772   6.1773   6.1773   6.2255   6.2255   6.2255   6.2255
     6.2430   6.2430   6.5109   6.5109   6.5109   6.5109   6.8375   6.8375
     6.8375   6.8375

     occupation numbers 
     1.0000   1.0000   1.0000   1.0000   1.0000   1.0000   1.0000   1.0000
     1.0000   1.0000   1.0000   1.0000   1.0000   1.0000   1.0000   1.0000
     1.0000   1.0000   1.0000   1.0000   1.0000   1.0000   1.0000   1.0000
     1.0000   1.0000   1.0000   1.0000   1.0000   1.0000   1.0000   1.0000
     1.0000   1.0000   1.0000   1.0000   1.0000   1.0000   1.0000   1.0000
     1.0000   1.0000   1.0000   1.0000   1.0000   1.0000   1.0000   1.0000
     1.0000   1.0000   1.0000   1.0000   1.0000   1.0000   1.0000   1.0000
     1.0000   1.0000   1.0000   1.0000   1.0000   1.0000   1.0000   1.0000
     1.0000   1.0000   1.0000   1.0000   1.0000   1.0000   1.0000   1.0000
     1.0000   1.0000   1.0000   1.0000   1.0000   1.0000   1.0000   1.0000
     1.0000   1.0000   1.0000   1.0000   1.0000   1.0000   1.0000   1.0000
     1.0000   1.0000   1.0000   1.0000   1.0000   1.0000   1.0000   1.0000
     1.0000   1.0000   1.0000   1.0000   1.0000   1.0000   1.0000   1.0000
     1.0000   1.0000   1.0000   1.0000   1.0000   1.0000   1.0000   1.0000
     1.0000   1.0000   1.0000   1.0000   1.0000   1.0000   1.0000   1.0000
     1.0000   1.0000   1.0000   1.0000   1.0000   1.0000   1.0000   1.0000
     1.0000   1.0000   1.0000   1.0000   1.0000   1.0000   1.0000   1.0000
     1.0000   1.0000   1.0000   1.0000   1.0000   1.0000   1.0000   1.0000
     1.0000   1.0000   1.0000   1.0000   1.0000   1.0000   1.0000   1.0000
     1.0000   1.0000   1.0000   1.0000   1.0000   1.0000   1.0000   1.0000
     1.0000   1.0000

          k = 0.0000 0.5774 0.0000 ( 17707 PWs)   bands (ev):

   -10.8593 -10.7127 -10.7127 -10.6321 -10.5178 -10.5178 -10.4120 -10.4120
   -10.3566 -10.2961 -10.2961 -10.2904 -10.2904 -10.2580 -10.1858 -10.1858
   -10.1781 -10.1366   1.0368   1.0368   1.0821   1.0821   1.1038   1.1038
     1.1268   1.1268   1.1443   1.1443   1.1448   1.1787   1.1968   1.1968
     1.2098   1.3347   1.3939   1.4175   1.4331   1.4332   1.4425   1.4425
     1.4530   1.4978   1.5169   1.5169   1.5221   1.5221   1.5272   1.5381
     1.5381   1.5437   1.5437   1.5839   1.5839   1.5839   1.5845   1.6182
     1.6647   1.6853   1.6853   1.7338   1.7338   1.7417   1.7418   1.7926
     1.8373   1.8904   1.8904   1.9133   1.9133   1.9688   2.0460   2.1149
     2.3225   2.3719   2.4055   2.4269   2.4472   2.4609   2.4609   2.4695
     2.4695   2.4730   2.4884   2.4884   2.4958   2.4958   2.5183   2.5183
     2.5677   2.5677   2.5934   2.5934   2.6056   2.6056   2.6172   2.6172
     2.6358   2.6484   2.6725   2.6725   2.6836   2.6913   2.6913   2.7479
     2.8116   2.8116   2.8198   2.8613   2.8732   3.0203   3.0747   3.2568
     3.2568   3.5916   3.5916   3.6813   3.8659   3.8659   3.9343   3.9343
     4.1031   4.4221   4.4227   4.4657   4.4657   4.5350   4.5350   4.6354
     4.9825   4.9825   5.0818   5.0818   5.1229   5.1229   5.2257   5.2290
     5.3664   5.3664   5.3814   5.3814   5.5975   5.5975   5.6135   5.7794
     5.7885   5.7976   5.8448   5.8448   5.9570   5.9570   6.0235   6.0235
     6.0905   6.0905   6.2537   6.2838   6.2838   6.2864   6.4801   6.4801
     6.6256   6.7031

     occupation numbers 
     1.0000   1.0000   1.0000   1.0000   1.0000   1.0000   1.0000   1.0000
     1.0000   1.0000   1.0000   1.0000   1.0000   1.0000   1.0000   1.0000
     1.0000   1.0000   1.0000   1.0000   1.0000   1.0000   1.0000   1.0000
     1.0000   1.0000   1.0000   1.0000   1.0000   1.0000   1.0000   1.0000
     1.0000   1.0000   1.0000   1.0000   1.0000   1.0000   1.0000   1.0000
     1.0000   1.0000   1.0000   1.0000   1.0000   1.0000   1.0000   1.0000
     1.0000   1.0000   1.0000   1.0000   1.0000   1.0000   1.0000   1.0000
     1.0000   1.0000   1.0000   1.0000   1.0000   1.0000   1.0000   1.0000
     1.0000   1.0000   1.0000   1.0000   1.0000   1.0000   1.0000   1.0000
     1.0000   1.0000   1.0000   1.0000   1.0000   1.0000   1.0000   1.0000
     1.0000   1.0000   1.0000   1.0000   1.0000   1.0000   1.0000   1.0000
     1.0000   1.0000   1.0000   1.0000   1.0000   1.0000   1.0000   1.0000
     1.0000   1.0000   1.0000   1.0000   1.0000   1.0000   1.0000   1.0000
     1.0000   1.0000   1.0000   1.0000   1.0000   1.0000   1.0000   1.0000
     1.0000   1.0000   1.0000   1.0000   1.0000   1.0000   1.0000   1.0000
     1.0000   1.0000   1.0000   1.0000   1.0000   1.0000   1.0000   1.0000
     1.0000   1.0000   1.0000   1.0000   1.0000   1.0000   1.0000   1.0000
     1.0000   1.0000   1.0000   1.0000   1.0000   1.0000   1.0000   1.0000
     1.0000   1.0000   1.0000   1.0000   1.0000   1.0000   1.0000   1.0000
     1.0000   1.0000   1.0000   1.0000   1.0000   1.0000   1.0000   1.0000
     1.0000   1.0000

          k = 0.0000 0.5774-0.3097 ( 17698 PWs)   bands (ev):

   -10.8203 -10.8202 -10.6015 -10.6014 -10.5636 -10.5636 -10.4037 -10.4037
   -10.3401 -10.3400 -10.2995 -10.2995 -10.2390 -10.2390 -10.2081 -10.2080
   -10.1494 -10.1494   1.0209   1.0209   1.0549   1.0549   1.0857   1.0857
     1.1086   1.1086   1.1496   1.1496   1.1780   1.1781   1.2850   1.2850
     1.3367   1.3367   1.3762   1.3763   1.4035   1.4035   1.4548   1.4548
     1.4698   1.4698   1.4827   1.4827   1.5188   1.5188   1.5328   1.5328
     1.5573   1.5573   1.5637   1.5637   1.5905   1.5905   1.5969   1.5969
     1.6623   1.6623   1.6781   1.6781   1.7730   1.7730   1.8092   1.8092
     1.8094   1.8094   1.8597   1.8597   1.9824   1.9824   2.0290   2.0291
     2.3642   2.3642   2.4013   2.4013   2.4171   2.4171   2.4440   2.4440
     2.4789   2.4789   2.5393   2.5393   2.5440   2.5440   2.5485   2.5485
     2.5519   2.5519   2.5531   2.5531   2.5835   2.5835   2.6255   2.6255
     2.6363   2.6363   2.6724   2.6724   2.6804   2.6804   2.7389   2.7389
     2.7500   2.7500   2.8696   2.8696   3.1154   3.1154   3.2560   3.2560
     3.3752   3.3752   3.4275   3.4275   3.6971   3.6971   4.2092   4.2092
     4.2135   4.2135   4.5551   4.5551   4.6008   4.6008   4.6101   4.6101
     4.6168   4.6168   4.9299   4.9299   5.2328   5.2328   5.2751   5.2751
     5.5301   5.5301   5.5973   5.5973   5.6315   5.6315   5.6423   5.6423
     5.7237   5.7237   5.7987   5.7987   5.8520   5.8520   5.9120   5.9120
     6.1732   6.1733   6.2538   6.2538   6.2739   6.2739   6.5473   6.5473
     6.6436   6.6437

     occupation numbers 
     1.0000   1.0000   1.0000   1.0000   1.0000   1.0000   1.0000   1.0000
     1.0000   1.0000   1.0000   1.0000   1.0000   1.0000   1.0000   1.0000
     1.0000   1.0000   1.0000   1.0000   1.0000   1.0000   1.0000   1.0000
     1.0000   1.0000   1.0000   1.0000   1.0000   1.0000   1.0000   1.0000
     1.0000   1.0000   1.0000   1.0000   1.0000   1.0000   1.0000   1.0000
     1.0000   1.0000   1.0000   1.0000   1.0000   1.0000   1.0000   1.0000
     1.0000   1.0000   1.0000   1.0000   1.0000   1.0000   1.0000   1.0000
     1.0000   1.0000   1.0000   1.0000   1.0000   1.0000   1.0000   1.0000
     1.0000   1.0000   1.0000   1.0000   1.0000   1.0000   1.0000   1.0000
     1.0000   1.0000   1.0000   1.0000   1.0000   1.0000   1.0000   1.0000
     1.0000   1.0000   1.0000   1.0000   1.0000   1.0000   1.0000   1.0000
     1.0000   1.0000   1.0000   1.0000   1.0000   1.0000   1.0000   1.0000
     1.0000   1.0000   1.0000   1.0000   1.0000   1.0000   1.0000   1.0000
     1.0000   1.0000   1.0000   1.0000   1.0000   1.0000   1.0000   1.0000
     1.0000   1.0000   1.0000   1.0000   1.0000   1.0000   1.0000   1.0000
     1.0000   1.0000   1.0000   1.0000   1.0000   1.0000   1.0000   1.0000
     1.0000   1.0000   1.0000   1.0000   1.0000   1.0000   1.0000   1.0000
     1.0000   1.0000   1.0000   1.0000   1.0000   1.0000   1.0000   1.0000
     1.0000   1.0000   1.0000   1.0000   1.0000   1.0000   1.0000   1.0000
     1.0000   1.0000   1.0000   1.0000   1.0000   1.0000   1.0000   1.0000
     1.0000   1.0000

          k = 0.0000 1.1547 0.0000 ( 17745 PWs)   bands (ev):

   -10.5469 -10.5469 -10.4470 -10.4470 -10.4470 -10.4470 -10.2519 -10.2519
   -10.2519 -10.2518 -10.1942 -10.1942 -10.1872 -10.1871 -10.1871 -10.1871
   -10.1574 -10.1573   0.9559   0.9559   0.9559   0.9559   1.0420   1.0420
     1.0906   1.0906   1.0907   1.0907   1.2800   1.3780   1.3780   1.3917
     1.3917   1.4031   1.4031   1.4031   1.4031   1.5196   1.5196   1.5967
     1.5967   1.5967   1.5967   1.6674   1.6674   1.6674   1.6674   1.6688
     1.6688   1.7171   1.7171   1.7197   1.7197   1.7583   1.7583   1.7583
     1.7583   1.7846   1.7846   1.7846   1.7846   1.9005   1.9005   2.0258
     2.0312   2.0312   2.0771   2.0771   2.0771   2.0771   2.2690   2.2690
     2.3484   2.3484   2.3627   2.4064   2.4064   2.4607   2.4607   2.4787
     2.4787   2.4787   2.4787   2.4858   2.4988   2.4988   2.5316   2.5316
     2.5338   2.5338   2.5339   2.5339   2.6096   2.6096   2.6096   2.6096
     2.6552   2.6552   2.6819   2.6819   2.6819   2.6819   2.8131   2.8131
     2.8530   2.8530   2.8530   2.8530   3.0838   3.0838   3.2411   3.2873
     3.2873   3.2873   3.2873   3.4120   3.4120   3.6415   3.6415   3.6415
     3.6415   3.7941   3.7941   3.8035   3.8035   4.0473   4.0473   4.0473
     4.0473   4.6507   4.6507   4.7453   4.7453   4.9084   4.9084   4.9084
     4.9084   5.0283   5.0284   5.0973   5.0973   5.2183   5.4186   5.4186
     5.4186   5.4186   5.5234   5.5234   5.5235   5.5235   5.9793   5.9793
     5.9793   5.9793   6.0155   6.0155   6.0155   6.0155   6.0931   6.0931
     6.3016   6.3016

     occupation numbers 
     1.0000   1.0000   1.0000   1.0000   1.0000   1.0000   1.0000   1.0000
     1.0000   1.0000   1.0000   1.0000   1.0000   1.0000   1.0000   1.0000
     1.0000   1.0000   1.0000   1.0000   1.0000   1.0000   1.0000   1.0000
     1.0000   1.0000   1.0000   1.0000   1.0000   1.0000   1.0000   1.0000
     1.0000   1.0000   1.0000   1.0000   1.0000   1.0000   1.0000   1.0000
     1.0000   1.0000   1.0000   1.0000   1.0000   1.0000   1.0000   1.0000
     1.0000   1.0000   1.0000   1.0000   1.0000   1.0000   1.0000   1.0000
     1.0000   1.0000   1.0000   1.0000   1.0000   1.0000   1.0000   1.0000
     1.0000   1.0000   1.0000   1.0000   1.0000   1.0000   1.0000   1.0000
     1.0000   1.0000   1.0000   1.0000   1.0000   1.0000   1.0000   1.0000
     1.0000   1.0000   1.0000   1.0000   1.0000   1.0000   1.0000   1.0000
     1.0000   1.0000   1.0000   1.0000   1.0000   1.0000   1.0000   1.0000
     1.0000   1.0000   1.0000   1.0000   1.0000   1.0000   1.0000   1.0000
     1.0000   1.0000   1.0000   1.0000   1.0000   1.0000   1.0000   1.0000
     1.0000   1.0000   1.0000   1.0000   1.0000   1.0000   1.0000   1.0000
     1.0000   1.0000   1.0000   1.0000   1.0000   1.0000   1.0000   1.0000
     1.0000   1.0000   1.0000   1.0000   1.0000   1.0000   1.0000   1.0000
     1.0000   1.0000   1.0000   1.0000   1.0000   1.0000   1.0000   1.0000
     1.0000   1.0000   1.0000   1.0000   1.0000   1.0000   1.0000   1.0000
     1.0000   1.0000   1.0000   1.0000   1.0000   1.0000   1.0000   1.0000
     1.0000   1.0000

          k = 0.0000 1.1547-0.3097 ( 17706 PWs)   bands (ev):

   -10.5200 -10.5200 -10.5200 -10.5200 -10.3486 -10.3486 -10.3486 -10.3486
   -10.1919 -10.1918 -10.1918 -10.1918 -10.1848 -10.1848 -10.1824 -10.1824
   -10.1824 -10.1824   0.9620   0.9620   0.9620   0.9620   1.0114   1.0114
     1.0114   1.0114   1.2878   1.2878   1.2878   1.2878   1.3081   1.3081
     1.3212   1.3212   1.5305   1.5306   1.5395   1.5395   1.5395   1.5395
     1.5787   1.5787   1.5787   1.5787   1.6841   1.6841   1.6841   1.6841
     1.6874   1.6874   1.6874   1.6874   1.6945   1.6945   1.6945   1.6945
     1.8679   1.8679   1.8679   1.8679   1.8969   1.8969   1.8969   1.8970
     1.9187   1.9187   2.0556   2.0556   2.1585   2.1585   2.1585   2.1585
     2.3793   2.3793   2.3852   2.3852   2.3853   2.3853   2.4346   2.4346
     2.4791   2.4792   2.5083   2.5083   2.5083   2.5083   2.5701   2.5701
     2.5701   2.5701   2.5851   2.5851   2.5851   2.5851   2.6424   2.6424
     2.6425   2.6425   2.6812   2.6812   2.6812   2.6812   2.7606   2.7606
     2.7606   2.7606   2.9254   2.9254   3.2429   3.2429   3.3424   3.3424
     3.3424   3.3424   3.3685   3.3685   3.3685   3.3685   3.4090   3.4090
     3.8758   3.8758   3.8758   3.8758   3.9351   3.9351   3.9352   3.9352
     4.2827   4.2827   4.6229   4.6229   4.6229   4.6229   5.0893   5.0894
     5.1856   5.1856   5.1857   5.1857   5.1982   5.1983   5.1983   5.1983
     5.5304   5.5304   5.5304   5.5304   5.6818   5.6818   5.7225   5.7225
     5.7225   5.7225   6.1085   6.1085   6.1085   6.1086   6.2255   6.2255
     6.2255   6.2255

     occupation numbers 
     1.0000   1.0000   1.0000   1.0000   1.0000   1.0000   1.0000   1.0000
     1.0000   1.0000   1.0000   1.0000   1.0000   1.0000   1.0000   1.0000
     1.0000   1.0000   1.0000   1.0000   1.0000   1.0000   1.0000   1.0000
     1.0000   1.0000   1.0000   1.0000   1.0000   1.0000   1.0000   1.0000
     1.0000   1.0000   1.0000   1.0000   1.0000   1.0000   1.0000   1.0000
     1.0000   1.0000   1.0000   1.0000   1.0000   1.0000   1.0000   1.0000
     1.0000   1.0000   1.0000   1.0000   1.0000   1.0000   1.0000   1.0000
     1.0000   1.0000   1.0000   1.0000   1.0000   1.0000   1.0000   1.0000
     1.0000   1.0000   1.0000   1.0000   1.0000   1.0000   1.0000   1.0000
     1.0000   1.0000   1.0000   1.0000   1.0000   1.0000   1.0000   1.0000
     1.0000   1.0000   1.0000   1.0000   1.0000   1.0000   1.0000   1.0000
     1.0000   1.0000   1.0000   1.0000   1.0000   1.0000   1.0000   1.0000
     1.0000   1.0000   1.0000   1.0000   1.0000   1.0000   1.0000   1.0000
     1.0000   1.0000   1.0000   1.0000   1.0000   1.0000   1.0000   1.0000
     1.0000   1.0000   1.0000   1.0000   1.0000   1.0000   1.0000   1.0000
     1.0000   1.0000   1.0000   1.0000   1.0000   1.0000   1.0000   1.0000
     1.0000   1.0000   1.0000   1.0000   1.0000   1.0000   1.0000   1.0000
     1.0000   1.0000   1.0000   1.0000   1.0000   1.0000   1.0000   1.0000
     1.0000   1.0000   1.0000   1.0000   1.0000   1.0000   1.0000   1.0000
     1.0000   1.0000   1.0000   1.0000   1.0000   1.0000   1.0000   1.0000
     1.0000   1.0000

          k = 0.0000-1.7321 0.0000 ( 17766 PWs)   bands (ev):

   -10.3566 -10.3566 -10.3492 -10.2961 -10.2961 -10.2961 -10.2961 -10.2913
   -10.2913 -10.1867 -10.1867 -10.1858 -10.1858 -10.1858 -10.1858 -10.1406
   -10.1366 -10.1366   0.9826   0.9826   1.0471   1.0471   1.1038   1.1038
     1.1038   1.1038   1.1141   1.1968   1.1968   1.1968   1.1968   1.2098
     1.2098   1.3230   1.4530   1.4530   1.5609   1.5839   1.5839   1.5839
     1.5839   1.5839   1.5839   1.6641   1.6641   1.7338   1.7338   1.7338
     1.7338   1.7926   1.7927   1.8687   1.8687   1.8803   1.8803   1.8904
     1.8904   1.8904   1.8904   1.9133   1.9133   1.9133   1.9133   1.9178
     1.9178   1.9413   1.9538   2.0460   2.0460   2.0753   2.1149   2.1149
     2.4055   2.4055   2.4641   2.4730   2.4730   2.4958   2.4958   2.4958
     2.4958   2.5677   2.5677   2.5677   2.5677   2.5909   2.6003   2.6003
     2.6268   2.6268   2.6329   2.6329   2.6705   2.6836   2.6836   2.6913
     2.6913   2.6913   2.6913   2.7317   2.7317   2.7417   2.8116   2.8116
     2.8116   2.8116   2.8732   2.8732   3.0747   3.0747   3.1456   3.1456
     3.2047   3.2568   3.2568   3.2568   3.2568   3.2754   3.2754   3.4268
     3.5916   3.5916   3.5916   3.5916   3.6813   3.6813   4.1031   4.1031
     4.1406   4.4221   4.4221   4.5350   4.5350   4.5350   4.5350   4.7140
     5.0141   5.0141   5.0818   5.0818   5.0818   5.0818   5.0928   5.0928
     5.3814   5.3814   5.3814   5.3814   5.6135   5.6135   5.6403   5.7659
     5.7659   5.7927   5.7927   5.7976   5.7976   5.8448   5.8448   5.8448
     5.8448   6.0830

     occupation numbers 
     1.0000   1.0000   1.0000   1.0000   1.0000   1.0000   1.0000   1.0000
     1.0000   1.0000   1.0000   1.0000   1.0000   1.0000   1.0000   1.0000
     1.0000   1.0000   1.0000   1.0000   1.0000   1.0000   1.0000   1.0000
     1.0000   1.0000   1.0000   1.0000   1.0000   1.0000   1.0000   1.0000
     1.0000   1.0000   1.0000   1.0000   1.0000   1.0000   1.0000   1.0000
     1.0000   1.0000   1.0000   1.0000   1.0000   1.0000   1.0000   1.0000
     1.0000   1.0000   1.0000   1.0000   1.0000   1.0000   1.0000   1.0000
     1.0000   1.0000   1.0000   1.0000   1.0000   1.0000   1.0000   1.0000
     1.0000   1.0000   1.0000   1.0000   1.0000   1.0000   1.0000   1.0000
     1.0000   1.0000   1.0000   1.0000   1.0000   1.0000   1.0000   1.0000
     1.0000   1.0000   1.0000   1.0000   1.0000   1.0000   1.0000   1.0000
     1.0000   1.0000   1.0000   1.0000   1.0000   1.0000   1.0000   1.0000
     1.0000   1.0000   1.0000   1.0000   1.0000   1.0000   1.0000   1.0000
     1.0000   1.0000   1.0000   1.0000   1.0000   1.0000   1.0000   1.0000
     1.0000   1.0000   1.0000   1.0000   1.0000   1.0000   1.0000   1.0000
     1.0000   1.0000   1.0000   1.0000   1.0000   1.0000   1.0000   1.0000
     1.0000   1.0000   1.0000   1.0000   1.0000   1.0000   1.0000   1.0000
     1.0000   1.0000   1.0000   1.0000   1.0000   1.0000   1.0000   1.0000
     1.0000   1.0000   1.0000   1.0000   1.0000   1.0000   1.0000   1.0000
     1.0000   1.0000   1.0000   1.0000   1.0000   1.0000   1.0000   1.0000
     1.0000   1.0000

          k = 0.0000-1.7321-0.3097 ( 17788 PWs)   bands (ev):

   -10.3401 -10.3401 -10.3401 -10.3400 -10.3334 -10.3333 -10.2390 -10.2390
   -10.2390 -10.2390 -10.2371 -10.2371 -10.1526 -10.1525 -10.1494 -10.1494
   -10.1494 -10.1494   0.9527   0.9527   1.0697   1.0698   1.0857   1.0857
     1.0857   1.0857   1.1780   1.1780   1.1781   1.1781   1.2255   1.2255
     1.3762   1.3763   1.3763   1.3763   1.5637   1.5637   1.5637   1.5637
     1.5871   1.5872   1.6623   1.6623   1.6623   1.6623   1.7730   1.7730
     1.7730   1.7730   1.7821   1.7821   1.8587   1.8587   1.8597   1.8597
     1.8597   1.8597   1.9133   1.9133   1.9195   1.9195   1.9824   1.9824
     1.9824   1.9824   2.0290   2.0290   2.0291   2.0291   2.0308   2.0308
     2.4171   2.4171   2.4171   2.4171   2.5266   2.5266   2.5393   2.5393
     2.5393   2.5393   2.5531   2.5531   2.5531   2.5531   2.5930   2.5930
     2.6133   2.6133   2.6574   2.6574   2.6804   2.6804   2.6804   2.6804
     2.6978   2.6978   2.7389   2.7389   2.7389   2.7389   2.7410   2.7411
     2.8696   2.8696   2.8696   2.8696   3.1154   3.1154   3.1154   3.1154
     3.1660   3.1660   3.1878   3.1878   3.3762   3.3762   3.4275   3.4275
     3.4275   3.4275   3.6971   3.6971   3.6971   3.6971   4.2092   4.2092
     4.2092   4.2092   4.4237   4.4237   4.6168   4.6168   4.6168   4.6168
     4.8201   4.8201   4.9299   4.9299   4.9299   4.9299   5.4385   5.4385
     5.5540   5.5540   5.5973   5.5973   5.5973   5.5973   5.6423   5.6423
     5.6423   5.6423   5.7267   5.7268   5.7986   5.7987   5.7987   5.7987
     5.9987   5.9987

     occupation numbers 
     1.0000   1.0000   1.0000   1.0000   1.0000   1.0000   1.0000   1.0000
     1.0000   1.0000   1.0000   1.0000   1.0000   1.0000   1.0000   1.0000
     1.0000   1.0000   1.0000   1.0000   1.0000   1.0000   1.0000   1.0000
     1.0000   1.0000   1.0000   1.0000   1.0000   1.0000   1.0000   1.0000
     1.0000   1.0000   1.0000   1.0000   1.0000   1.0000   1.0000   1.0000
     1.0000   1.0000   1.0000   1.0000   1.0000   1.0000   1.0000   1.0000
     1.0000   1.0000   1.0000   1.0000   1.0000   1.0000   1.0000   1.0000
     1.0000   1.0000   1.0000   1.0000   1.0000   1.0000   1.0000   1.0000
     1.0000   1.0000   1.0000   1.0000   1.0000   1.0000   1.0000   1.0000
     1.0000   1.0000   1.0000   1.0000   1.0000   1.0000   1.0000   1.0000
     1.0000   1.0000   1.0000   1.0000   1.0000   1.0000   1.0000   1.0000
     1.0000   1.0000   1.0000   1.0000   1.0000   1.0000   1.0000   1.0000
     1.0000   1.0000   1.0000   1.0000   1.0000   1.0000   1.0000   1.0000
     1.0000   1.0000   1.0000   1.0000   1.0000   1.0000   1.0000   1.0000
     1.0000   1.0000   1.0000   1.0000   1.0000   1.0000   1.0000   1.0000
     1.0000   1.0000   1.0000   1.0000   1.0000   1.0000   1.0000   1.0000
     1.0000   1.0000   1.0000   1.0000   1.0000   1.0000   1.0000   1.0000
     1.0000   1.0000   1.0000   1.0000   1.0000   1.0000   1.0000   1.0000
     1.0000   1.0000   1.0000   1.0000   1.0000   1.0000   1.0000   1.0000
     1.0000   1.0000   1.0000   1.0000   1.0000   1.0000   1.0000   1.0000
     1.0000   1.0000

          k =-0.5000-0.2887 0.0000 ( 17658 PWs)   bands (ev):

   -10.8593 -10.8593 -10.7127 -10.7127 -10.7127 -10.7127 -10.4120 -10.4120
   -10.4120 -10.4120 -10.3492 -10.2913 -10.2913 -10.2580 -10.2580 -10.1867
   -10.1867 -10.1406   0.9826   0.9826   1.0471   1.0471   1.0821   1.0821
     1.0821   1.0821   1.1141   1.1443   1.1443   1.1443   1.1443   1.1787
     1.1787   1.3230   1.3939   1.3939   1.4175   1.4175   1.4331   1.4331
     1.4332   1.4332   1.4425   1.4425   1.4425   1.4425   1.4978   1.4978
     1.5221   1.5221   1.5221   1.5221   1.5437   1.5437   1.5437   1.5437
     1.5609   1.6182   1.6182   1.6641   1.6641   1.6647   1.6647   1.8687
     1.8687   1.8803   1.8803   1.9178   1.9178   1.9413   1.9538   2.0753
     2.3719   2.3719   2.4269   2.4269   2.4641   2.4695   2.4695   2.4695
     2.4695   2.4884   2.4884   2.4884   2.4884   2.5909   2.5934   2.5934
     2.5934   2.5935   2.6003   2.6003   2.6172   2.6172   2.6172   2.6172
     2.6268   2.6268   2.6329   2.6329   2.6358   2.6358   2.6705   2.7317
     2.7317   2.7417   2.7479   2.7479   2.8613   2.8614   3.1456   3.1456
     3.2047   3.2754   3.2754   3.4268   3.9343   3.9343   3.9343   3.9343
     4.1406   4.7140   5.0141   5.0141   5.0928   5.0928   5.1229   5.1229
     5.1229   5.1229   5.2257   5.2257   5.5975   5.5975   5.5975   5.5975
     5.6403   5.7659   5.7660   5.7794   5.7794   5.7885   5.7885   5.7927
     5.7927   6.0235   6.0235   6.0235   6.0235   6.0830   6.2838   6.2838
     6.2838   6.2838   6.4801   6.4801   6.4801   6.4801   6.6256   6.6256
     6.7031   6.7031

     occupation numbers 
     1.0000   1.0000   1.0000   1.0000   1.0000   1.0000   1.0000   1.0000
     1.0000   1.0000   1.0000   1.0000   1.0000   1.0000   1.0000   1.0000
     1.0000   1.0000   1.0000   1.0000   1.0000   1.0000   1.0000   1.0000
     1.0000   1.0000   1.0000   1.0000   1.0000   1.0000   1.0000   1.0000
     1.0000   1.0000   1.0000   1.0000   1.0000   1.0000   1.0000   1.0000
     1.0000   1.0000   1.0000   1.0000   1.0000   1.0000   1.0000   1.0000
     1.0000   1.0000   1.0000   1.0000   1.0000   1.0000   1.0000   1.0000
     1.0000   1.0000   1.0000   1.0000   1.0000   1.0000   1.0000   1.0000
     1.0000   1.0000   1.0000   1.0000   1.0000   1.0000   1.0000   1.0000
     1.0000   1.0000   1.0000   1.0000   1.0000   1.0000   1.0000   1.0000
     1.0000   1.0000   1.0000   1.0000   1.0000   1.0000   1.0000   1.0000
     1.0000   1.0000   1.0000   1.0000   1.0000   1.0000   1.0000   1.0000
     1.0000   1.0000   1.0000   1.0000   1.0000   1.0000   1.0000   1.0000
     1.0000   1.0000   1.0000   1.0000   1.0000   1.0000   1.0000   1.0000
     1.0000   1.0000   1.0000   1.0000   1.0000   1.0000   1.0000   1.0000
     1.0000   1.0000   1.0000   1.0000   1.0000   1.0000   1.0000   1.0000
     1.0000   1.0000   1.0000   1.0000   1.0000   1.0000   1.0000   1.0000
     1.0000   1.0000   1.0000   1.0000   1.0000   1.0000   1.0000   1.0000
     1.0000   1.0000   1.0000   1.0000   1.0000   1.0000   1.0000   1.0000
     1.0000   1.0000   1.0000   1.0000   1.0000   1.0000   1.0000   1.0000
     1.0000   1.0000

          k =-0.5000-0.2887-0.3097 ( 17640 PWs)   bands (ev):

   -10.8203 -10.8202 -10.8202 -10.8202 -10.5636 -10.5636 -10.5636 -10.5636
   -10.3334 -10.3333 -10.2995 -10.2995 -10.2995 -10.2995 -10.2371 -10.2371
   -10.1526 -10.1525   0.9527   0.9527   1.0549   1.0549   1.0549   1.0549
     1.0697   1.0698   1.1496   1.1496   1.1496   1.1496   1.2255   1.2255
     1.3367   1.3367   1.3367   1.3367   1.4035   1.4035   1.4035   1.4035
     1.4548   1.4548   1.4548   1.4548   1.4698   1.4698   1.4698   1.4698
     1.4827   1.4827   1.4827   1.4827   1.5871   1.5872   1.5905   1.5905
     1.5905   1.5905   1.5969   1.5969   1.5969   1.5969   1.7821   1.7821
     1.8587   1.8587   1.9133   1.9133   1.9195   1.9195   2.0308   2.0308
     2.4013   2.4013   2.4013   2.4013   2.4440   2.4440   2.4440   2.4440
     2.5266   2.5266   2.5440   2.5440   2.5440   2.5440   2.5485   2.5485
     2.5485   2.5485   2.5930   2.5930   2.6133   2.6133   2.6255   2.6255
     2.6255   2.6255   2.6574   2.6574   2.6724   2.6724   2.6724   2.6724
     2.6978   2.6978   2.7410   2.7411   3.1660   3.1660   3.1878   3.1878
     3.2560   3.2560   3.2560   3.2560   3.3762   3.3762   4.4237   4.4237
     4.6008   4.6008   4.6008   4.6008   4.8201   4.8201   5.2751   5.2751
     5.2751   5.2751   5.4385   5.4385   5.5540   5.5540   5.6315   5.6315
     5.6315   5.6315   5.7267   5.7268   5.8520   5.8520   5.8520   5.8520
     5.9120   5.9120   5.9120   5.9120   5.9987   5.9987   6.2537   6.2538
     6.2538   6.2538   6.5473   6.5473   6.5473   6.5473   6.6436   6.6436
     6.6437   6.6437

     occupation numbers 
     1.0000   1.0000   1.0000   1.0000   1.0000   1.0000   1.0000   1.0000
     1.0000   1.0000   1.0000   1.0000   1.0000   1.0000   1.0000   1.0000
     1.0000   1.0000   1.0000   1.0000   1.0000   1.0000   1.0000   1.0000
     1.0000   1.0000   1.0000   1.0000   1.0000   1.0000   1.0000   1.0000
     1.0000   1.0000   1.0000   1.0000   1.0000   1.0000   1.0000   1.0000
     1.0000   1.0000   1.0000   1.0000   1.0000   1.0000   1.0000   1.0000
     1.0000   1.0000   1.0000   1.0000   1.0000   1.0000   1.0000   1.0000
     1.0000   1.0000   1.0000   1.0000   1.0000   1.0000   1.0000   1.0000
     1.0000   1.0000   1.0000   1.0000   1.0000   1.0000   1.0000   1.0000
     1.0000   1.0000   1.0000   1.0000   1.0000   1.0000   1.0000   1.0000
     1.0000   1.0000   1.0000   1.0000   1.0000   1.0000   1.0000   1.0000
     1.0000   1.0000   1.0000   1.0000   1.0000   1.0000   1.0000   1.0000
     1.0000   1.0000   1.0000   1.0000   1.0000   1.0000   1.0000   1.0000
     1.0000   1.0000   1.0000   1.0000   1.0000   1.0000   1.0000   1.0000
     1.0000   1.0000   1.0000   1.0000   1.0000   1.0000   1.0000   1.0000
     1.0000   1.0000   1.0000   1.0000   1.0000   1.0000   1.0000   1.0000
     1.0000   1.0000   1.0000   1.0000   1.0000   1.0000   1.0000   1.0000
     1.0000   1.0000   1.0000   1.0000   1.0000   1.0000   1.0000   1.0000
     1.0000   1.0000   1.0000   1.0000   1.0000   1.0000   1.0000   1.0000
     1.0000   1.0000   1.0000   1.0000   1.0000   1.0000   1.0000   1.0000
     1.0000   1.0000

          k =-0.5000 0.8660 0.0000 ( 17761 PWs)   bands (ev):

   -10.6321 -10.5178 -10.5178 -10.3566 -10.3566 -10.2961 -10.2961 -10.2961
   -10.2961 -10.2904 -10.2904 -10.1858 -10.1858 -10.1858 -10.1858 -10.1781
   -10.1366 -10.1366   1.0368   1.0368   1.1038   1.1038   1.1038   1.1038
     1.1268   1.1268   1.1448   1.1968   1.1968   1.1968   1.1968   1.2098
     1.2098   1.3347   1.4530   1.4530   1.5169   1.5169   1.5272   1.5381
     1.5381   1.5839   1.5839   1.5839   1.5839   1.5839   1.5839   1.5845
     1.6853   1.6853   1.7338   1.7338   1.7338   1.7338   1.7417   1.7418
     1.7926   1.7926   1.8373   1.8904   1.8904   1.8904   1.8904   1.9133
     1.9133   1.9133   1.9133   1.9688   2.0460   2.0460   2.1149   2.1149
     2.3225   2.4055   2.4055   2.4472   2.4609   2.4609   2.4730   2.4730
     2.4958   2.4958   2.4958   2.4958   2.5183   2.5183   2.5677   2.5677
     2.5677   2.5677   2.6056   2.6056   2.6484   2.6725   2.6725   2.6836
     2.6836   2.6913   2.6913   2.6913   2.6913   2.8116   2.8116   2.8116
     2.8116   2.8198   2.8732   2.8732   3.0203   3.0747   3.0747   3.2568
     3.2568   3.2568   3.2568   3.5916   3.5916   3.5916   3.5916   3.6813
     3.6813   3.8659   3.8659   4.1031   4.1031   4.4221   4.4221   4.4227
     4.4657   4.4657   4.5350   4.5350   4.5350   4.5350   4.6354   4.9825
     4.9825   5.0817   5.0818   5.0818   5.0818   5.2290   5.3664   5.3664
     5.3814   5.3814   5.3814   5.3814   5.6135   5.6135   5.7976   5.7976
     5.8448   5.8448   5.8448   5.8448   5.9570   5.9570   6.0905   6.0905
     6.2537   6.2864

     occupation numbers 
     1.0000   1.0000   1.0000   1.0000   1.0000   1.0000   1.0000   1.0000
     1.0000   1.0000   1.0000   1.0000   1.0000   1.0000   1.0000   1.0000
     1.0000   1.0000   1.0000   1.0000   1.0000   1.0000   1.0000   1.0000
     1.0000   1.0000   1.0000   1.0000   1.0000   1.0000   1.0000   1.0000
     1.0000   1.0000   1.0000   1.0000   1.0000   1.0000   1.0000   1.0000
     1.0000   1.0000   1.0000   1.0000   1.0000   1.0000   1.0000   1.0000
     1.0000   1.0000   1.0000   1.0000   1.0000   1.0000   1.0000   1.0000
     1.0000   1.0000   1.0000   1.0000   1.0000   1.0000   1.0000   1.0000
     1.0000   1.0000   1.0000   1.0000   1.0000   1.0000   1.0000   1.0000
     1.0000   1.0000   1.0000   1.0000   1.0000   1.0000   1.0000   1.0000
     1.0000   1.0000   1.0000   1.0000   1.0000   1.0000   1.0000   1.0000
     1.0000   1.0000   1.0000   1.0000   1.0000   1.0000   1.0000   1.0000
     1.0000   1.0000   1.0000   1.0000   1.0000   1.0000   1.0000   1.0000
     1.0000   1.0000   1.0000   1.0000   1.0000   1.0000   1.0000   1.0000
     1.0000   1.0000   1.0000   1.0000   1.0000   1.0000   1.0000   1.0000
     1.0000   1.0000   1.0000   1.0000   1.0000   1.0000   1.0000   1.0000
     1.0000   1.0000   1.0000   1.0000   1.0000   1.0000   1.0000   1.0000
     1.0000   1.0000   1.0000   1.0000   1.0000   1.0000   1.0000   1.0000
     1.0000   1.0000   1.0000   1.0000   1.0000   1.0000   1.0000   1.0000
     1.0000   1.0000   1.0000   1.0000   1.0000   1.0000   1.0000   1.0000
     1.0000   1.0000

          k =-0.5000 0.8660-0.3097 ( 17772 PWs)   bands (ev):

   -10.6015 -10.6014 -10.4037 -10.4037 -10.3401 -10.3401 -10.3401 -10.3400
   -10.2390 -10.2390 -10.2390 -10.2390 -10.2081 -10.2080 -10.1494 -10.1494
   -10.1494 -10.1494   1.0209   1.0209   1.0857   1.0857   1.0857   1.0857
     1.1086   1.1086   1.1780   1.1780   1.1781   1.1781   1.2850   1.2850
     1.3762   1.3763   1.3763   1.3763   1.5188   1.5188   1.5328   1.5328
     1.5573   1.5573   1.5637   1.5637   1.5637   1.5637   1.6623   1.6623
     1.6623   1.6623   1.6781   1.6781   1.7730   1.7730   1.7730   1.7730
     1.8092   1.8092   1.8094   1.8094   1.8597   1.8597   1.8597   1.8597
     1.9824   1.9824   1.9824   1.9824   2.0290   2.0290   2.0291   2.0291
     2.3642   2.3642   2.4171   2.4171   2.4171   2.4171   2.4789   2.4789
     2.5393   2.5393   2.5393   2.5393   2.5519   2.5519   2.5531   2.5531
     2.5531   2.5531   2.5835   2.5835   2.6363   2.6363   2.6804   2.6804
     2.6804   2.6804   2.7389   2.7389   2.7389   2.7389   2.7500   2.7500
     2.8696   2.8696   2.8696   2.8696   3.1154   3.1154   3.1154   3.1154
     3.3752   3.3752   3.4275   3.4275   3.4275   3.4275   3.6971   3.6971
     3.6971   3.6971   4.2092   4.2092   4.2092   4.2092   4.2135   4.2135
     4.5551   4.5551   4.6101   4.6101   4.6168   4.6168   4.6168   4.6168
     4.9299   4.9299   4.9299   4.9299   5.2328   5.2328   5.5301   5.5301
     5.5973   5.5973   5.5973   5.5973   5.6423   5.6423   5.6423   5.6423
     5.7237   5.7237   5.7987   5.7987   5.7987   5.7987   6.1732   6.1733
     6.2739   6.2739

     occupation numbers 
     1.0000   1.0000   1.0000   1.0000   1.0000   1.0000   1.0000   1.0000
     1.0000   1.0000   1.0000   1.0000   1.0000   1.0000   1.0000   1.0000
     1.0000   1.0000   1.0000   1.0000   1.0000   1.0000   1.0000   1.0000
     1.0000   1.0000   1.0000   1.0000   1.0000   1.0000   1.0000   1.0000
     1.0000   1.0000   1.0000   1.0000   1.0000   1.0000   1.0000   1.0000
     1.0000   1.0000   1.0000   1.0000   1.0000   1.0000   1.0000   1.0000
     1.0000   1.0000   1.0000   1.0000   1.0000   1.0000   1.0000   1.0000
     1.0000   1.0000   1.0000   1.0000   1.0000   1.0000   1.0000   1.0000
     1.0000   1.0000   1.0000   1.0000   1.0000   1.0000   1.0000   1.0000
     1.0000   1.0000   1.0000   1.0000   1.0000   1.0000   1.0000   1.0000
     1.0000   1.0000   1.0000   1.0000   1.0000   1.0000   1.0000   1.0000
     1.0000   1.0000   1.0000   1.0000   1.0000   1.0000   1.0000   1.0000
     1.0000   1.0000   1.0000   1.0000   1.0000   1.0000   1.0000   1.0000
     1.0000   1.0000   1.0000   1.0000   1.0000   1.0000   1.0000   1.0000
     1.0000   1.0000   1.0000   1.0000   1.0000   1.0000   1.0000   1.0000
     1.0000   1.0000   1.0000   1.0000   1.0000   1.0000   1.0000   1.0000
     1.0000   1.0000   1.0000   1.0000   1.0000   1.0000   1.0000   1.0000
     1.0000   1.0000   1.0000   1.0000   1.0000   1.0000   1.0000   1.0000
     1.0000   1.0000   1.0000   1.0000   1.0000   1.0000   1.0000   1.0000
     1.0000   1.0000   1.0000   1.0000   1.0000   1.0000   1.0000   1.0000
     1.0000   1.0000

     highest occupied level (ev):     6.8874

!    total energy              =   -3254.73199119 Ry
     estimated scf accuracy    <          8.0E-09 Ry

     The total energy is the sum of the following terms:
     one-electron contribution =   -1390.72599828 Ry
     hartree contribution      =    1064.60117970 Ry
     xc contribution           =    -985.91458473 Ry
     ewald contribution        =   -1942.69258788 Ry

     convergence has been achieved in  31 iterations

     Forces acting on atoms (cartesian axes, Ry/au):

     atom    1 type  1   force =     0.00000277    0.00000160    0.00006254
     atom    2 type  1   force =    -0.00000215   -0.00000124    0.00005791
     atom    3 type  2   force =     0.00000033    0.00000019   -0.00006128
     atom    4 type  2   force =    -0.00000071   -0.00000041   -0.00006124
     atom    5 type  1   force =     0.00000169    0.00000098    0.00005557
     atom    6 type  1   force =     0.00000173    0.00000100    0.00004861
     atom    7 type  2   force =    -0.00000046   -0.00000027   -0.00006147
     atom    8 type  2   force =    -0.00000039   -0.00000023   -0.00006073
     atom    9 type  1   force =     0.00000194    0.00000112    0.00006491
     atom   10 type  1   force =    -0.00000100   -0.00000058    0.00007579
     atom   11 type  2   force =    -0.00000030   -0.00000017   -0.00006151
     atom   12 type  2   force =     0.00000007    0.00000004   -0.00006225
     atom   13 type  1   force =    -0.00000763   -0.00000440    0.00005128
     atom   14 type  1   force =     0.00000038    0.00000022    0.00006289
     atom   15 type  2   force =    -0.00000019   -0.00000011   -0.00006103
     atom   16 type  2   force =     0.00000007    0.00000004   -0.00006097
     atom   17 type  1   force =    -0.00000227   -0.00000131    0.00006840
     atom   18 type  1   force =    -0.00001027   -0.00000593    0.00005056
     atom   19 type  2   force =    -0.00000011   -0.00000007   -0.00006210
     atom   20 type  2   force =    -0.00000023   -0.00000013   -0.00006123
     atom   21 type  1   force =     0.00000090    0.00000052    0.00006374
     atom   22 type  1   force =     0.00000353    0.00000204    0.00007506
     atom   23 type  2   force =    -0.00000025   -0.00000014   -0.00006170
     atom   24 type  2   force =    -0.00000011   -0.00000007   -0.00006213
     atom   25 type  1   force =     0.00000672    0.00000388    0.00005956
     atom   26 type  1   force =     0.00000111    0.00000064    0.00005370
     atom   27 type  2   force =    -0.00000045   -0.00000026   -0.00006112
     atom   28 type  2   force =     0.00000012    0.00000007   -0.00006111
     atom   29 type  1   force =     0.00000220    0.00000127    0.00006280
     atom   30 type  1   force =     0.00000752    0.00000434    0.00005191
     atom   31 type  2   force =     0.00000002    0.00000001   -0.00006224
     atom   32 type  2   force =     0.00000025    0.00000015   -0.00006107
     atom   33 type  1   force =     0.00000017    0.00000010    0.00006961
     atom   34 type  1   force =    -0.00000485   -0.00000280    0.00007202
     atom   35 type  2   force =     0.00000006    0.00000003   -0.00006161
     atom   36 type  2   force =    -0.00000019   -0.00000011   -0.00006207
     The non-local contrib.  to forces
     atom    1 type  1   force =     0.00000155    0.00000090   -0.00483446
     atom    2 type  1   force =    -0.00000023   -0.00000013   -0.00483502
     atom    3 type  2   force =     0.00000097    0.00000056    0.00575675
     atom    4 type  2   force =    -0.00000132   -0.00000076    0.00575357
     atom    5 type  1   force =     0.00000117    0.00000067   -0.00483741
     atom    6 type  1   force =     0.00000015    0.00000009   -0.00484068
     atom    7 type  2   force =    -0.00000158   -0.00000091    0.00575009
     atom    8 type  2   force =    -0.00000076   -0.00000044    0.00575709
     atom    9 type  1   force =     0.00000069    0.00000040   -0.00483016
     atom   10 type  1   force =    -0.00000029   -0.00000017   -0.00482607
     atom   11 type  2   force =    -0.00000049   -0.00000028    0.00575349
     atom   12 type  2   force =     0.00000069    0.00000040    0.00574966
     atom   13 type  1   force =    -0.00000382   -0.00000220   -0.00483863
     atom   14 type  1   force =     0.00000008    0.00000004   -0.00483302
     atom   15 type  2   force =     0.00000087    0.00000050    0.00575733
     atom   16 type  2   force =     0.00000159    0.00000092    0.00575627
     atom   17 type  1   force =    -0.00000116   -0.00000067   -0.00483171
     atom   18 type  1   force =    -0.00000450   -0.00000260   -0.00483991
     atom   19 type  2   force =    -0.00000030   -0.00000017    0.00574891
     atom   20 type  2   force =     0.00000049    0.00000028    0.00575403
     atom   21 type  1   force =     0.00000063    0.00000036   -0.00483078
     atom   22 type  1   force =     0.00000135    0.00000078   -0.00482637
     atom   23 type  2   force =     0.00000008    0.00000005    0.00575350
     atom   24 type  2   force =    -0.00000034   -0.00000020    0.00575114
     atom   25 type  1   force =     0.00000316    0.00000182   -0.00483527
     atom   26 type  1   force =    -0.00000012   -0.00000007   -0.00483682
     atom   27 type  2   force =    -0.00000304   -0.00000175    0.00575647
     atom   28 type  2   force =     0.00000026    0.00000015    0.00575616
     atom   29 type  1   force =     0.00000049    0.00000028   -0.00483440
     atom   30 type  1   force =     0.00000384    0.00000222   -0.00483889
     atom   31 type  2   force =     0.00000081    0.00000047    0.00574866
     atom   32 type  2   force =     0.00000042    0.00000024    0.00575426
     atom   33 type  1   force =    -0.00000024   -0.00000014   -0.00482818
     atom   34 type  1   force =    -0.00000238   -0.00000137   -0.00482716
     atom   35 type  2   force =     0.00000035    0.00000020    0.00575405
     atom   36 type  2   force =     0.00000046    0.00000027    0.00575049
     The ionic contribution  to forces
     atom    1 type  1   force =     0.00000001    0.00000000    0.06271746
     atom    2 type  1   force =     0.00000000    0.00000000    0.06271750
     atom    3 type  2   force =     0.00000001    0.00000000   -0.06271747
     atom    4 type  2   force =     0.00000000    0.00000000   -0.06271748
     atom    5 type  1   force =     0.00000001    0.00000000    0.06271750
     atom    6 type  1   force =     0.00000000    0.00000000    0.06271746
     atom    7 type  2   force =     0.00000001    0.00000000   -0.06271748
     atom    8 type  2   force =     0.00000000    0.00000000   -0.06271746
     atom    9 type  1   force =     0.00000001    0.00000000    0.06271746
     atom   10 type  1   force =     0.00000000    0.00000000    0.06271746
     atom   11 type  2   force =     0.00000001    0.00000000   -0.06271746
     atom   12 type  2   force =     0.00000000    0.00000000   -0.06271747
     atom   13 type  1   force =    -0.00000001    0.00000000    0.06271746
     atom   14 type  1   force =     0.00000001   -0.00000000    0.06271749
     atom   15 type  2   force =    -0.00000000    0.00000000   -0.06271747
     atom   16 type  2   force =     0.00000000   -0.00000000   -0.06271748
     atom   17 type  1   force =    -0.00000001    0.00000000    0.06271749
     atom   18 type  1   force =     0.00000001   -0.00000000    0.06271745
     atom   19 type  2   force =    -0.00000000    0.00000000   -0.06271748
     atom   20 type  2   force =     0.00000000   -0.00000000   -0.06271746
     atom   21 type  1   force =    -0.00000001    0.00000000    0.06271745
     atom   22 type  1   force =     0.00000001   -0.00000000    0.06271746
     atom   23 type  2   force =    -0.00000000    0.00000000   -0.06271746
     atom   24 type  2   force =     0.00000000   -0.00000000   -0.06271747
     atom   25 type  1   force =    -0.00000000   -0.00000000    0.06271746
     atom   26 type  1   force =    -0.00000001   -0.00000000    0.06271750
     atom   27 type  2   force =    -0.00000000   -0.00000000   -0.06271747
     atom   28 type  2   force =    -0.00000001   -0.00000000   -0.06271748
     atom   29 type  1   force =    -0.00000000   -0.00000000    0.06271750
     atom   30 type  1   force =    -0.00000001   -0.00000000    0.06271746
     atom   31 type  2   force =    -0.00000000   -0.00000000   -0.06271748
     atom   32 type  2   force =    -0.00000001   -0.00000000   -0.06271746
     atom   33 type  1   force =    -0.00000000   -0.00000000    0.06271746
     atom   34 type  1   force =    -0.00000001   -0.00000000    0.06271746
     atom   35 type  2   force =    -0.00000000   -0.00000000   -0.06271746
     atom   36 type  2   force =    -0.00000001   -0.00000000   -0.06271747
     The local contribution  to forces
     atom    1 type  1   force =    -0.00000457   -0.00000264   -0.05828678
     atom    2 type  1   force =     0.00000251    0.00000140   -0.05828366
     atom    3 type  2   force =     0.00000035    0.00000021    0.05697177
     atom    4 type  2   force =    -0.00000013   -0.00000009    0.05696654
     atom    5 type  1   force =    -0.00000226   -0.00000130   -0.05827925
     atom    6 type  1   force =    -0.00000257   -0.00000153   -0.05826766
     atom    7 type  2   force =    -0.00000121   -0.00000070    0.05695871
     atom    8 type  2   force =     0.00000014    0.00000007    0.05696936
     atom    9 type  1   force =    -0.00000195   -0.00000112   -0.05829324
     atom   10 type  1   force =     0.00000154    0.00000084   -0.05830803
     atom   11 type  2   force =     0.00000010    0.00000006    0.05696697
     atom   12 type  2   force =    -0.00000016   -0.00000011    0.05696299
     atom   13 type  1   force =     0.00001142    0.00000669   -0.05827129
     atom   14 type  1   force =    -0.00000103   -0.00000070   -0.05828972
     atom   15 type  2   force =     0.00000346    0.00000203    0.05697185
     atom   16 type  2   force =     0.00000228    0.00000129    0.05696792
     atom   17 type  1   force =     0.00000379    0.00000229   -0.05829612
     atom   18 type  1   force =     0.00001491    0.00000851   -0.05827149
     atom   19 type  2   force =     0.00000000    0.00000003    0.05695840
     atom   20 type  2   force =     0.00000203    0.00000115    0.05696472
     atom   21 type  1   force =    -0.00000072   -0.00000031   -0.05829245
     atom   22 type  1   force =    -0.00000562   -0.00000334   -0.05830635
     atom   23 type  2   force =    -0.00000094   -0.00000052    0.05696880
     atom   24 type  2   force =    -0.00000128   -0.00000077    0.05696375
     atom   25 type  1   force =    -0.00000880   -0.00000503   -0.05828385
     atom   26 type  1   force =    -0.00000104   -0.00000060   -0.05827694
     atom   27 type  2   force =    -0.00000340   -0.00000195    0.05697172
     atom   28 type  2   force =    -0.00000096   -0.00000056    0.05697028
     atom   29 type  1   force =    -0.00000277   -0.00000155   -0.05828901
     atom   30 type  1   force =    -0.00001152   -0.00000665   -0.05827199
     atom   31 type  2   force =     0.00000167    0.00000098    0.05696039
     atom   32 type  2   force =    -0.00000132   -0.00000076    0.05696481
     atom   33 type  1   force =     0.00000028    0.00000021   -0.05830015
     atom   34 type  1   force =     0.00000610    0.00000352   -0.05830338
     atom   35 type  2   force =    -0.00000077   -0.00000043    0.05696970
     atom   36 type  2   force =     0.00000220    0.00000127    0.05696121
     The core correction contribution to forces
     atom    1 type  1   force =     0.00000005    0.00000003    0.00046406
     atom    2 type  1   force =    -0.00000010   -0.00000006    0.00046406
     atom    3 type  2   force =    -0.00000001   -0.00000001   -0.00006506
     atom    4 type  2   force =     0.00000002    0.00000001   -0.00006502
     atom    5 type  1   force =    -0.00000004   -0.00000002    0.00046411
     atom    6 type  1   force =     0.00000010    0.00000005    0.00046385
     atom    7 type  2   force =     0.00000002    0.00000001   -0.00006498
     atom    8 type  2   force =     0.00000001    0.00000001   -0.00006506
     atom    9 type  1   force =    -0.00000000   -0.00000000    0.00046399
     atom   10 type  1   force =    -0.00000005   -0.00000004    0.00046420
     atom   11 type  2   force =     0.00000001    0.00000000   -0.00006502
     atom   12 type  2   force =    -0.00000001   -0.00000000   -0.00006497
     atom   13 type  1   force =    -0.00000014   -0.00000007    0.00046380
     atom   14 type  1   force =     0.00000006    0.00000002    0.00046411
     atom   15 type  2   force =    -0.00000001   -0.00000001   -0.00006507
     atom   16 type  2   force =    -0.00000002   -0.00000001   -0.00006506
     atom   17 type  1   force =    -0.00000007   -0.00000003    0.00046425
     atom   18 type  1   force =    -0.00000021   -0.00000013    0.00046399
     atom   19 type  2   force =     0.00000001    0.00000000   -0.00006497
     atom   20 type  2   force =    -0.00000001   -0.00000001   -0.00006503
     atom   21 type  1   force =    -0.00000005   -0.00000002    0.00046405
     atom   22 type  1   force =     0.00000013    0.00000006    0.00046417
     atom   23 type  2   force =    -0.00000000   -0.00000000   -0.00006502
     atom   24 type  2   force =     0.00000000    0.00000000   -0.00006499
     atom   25 type  1   force =     0.00000004    0.00000003    0.00046405
     atom   26 type  1   force =     0.00000003    0.00000002    0.00046391
     atom   27 type  2   force =     0.00000004    0.00000002   -0.00006505
     atom   28 type  2   force =    -0.00000000   -0.00000000   -0.00006505
     atom   29 type  1   force =     0.00000008    0.00000005    0.00046423
     atom   30 type  1   force =     0.00000012    0.00000007    0.00046387
     atom   31 type  2   force =    -0.00000001   -0.00000001   -0.00006496
     atom   32 type  2   force =    -0.00000000   -0.00000000   -0.00006503
     atom   33 type  1   force =    -0.00000001    0.00000000    0.00046409
     atom   34 type  1   force =    -0.00000002   -0.00000001    0.00046415
     atom   35 type  2   force =    -0.00000001   -0.00000000   -0.00006502
     atom   36 type  2   force =    -0.00000000   -0.00000000   -0.00006499
     The Hubbard contrib.    to forces
     atom    1 type  1   force =     0.00000000    0.00000000    0.00000000
     atom    2 type  1   force =     0.00000000    0.00000000    0.00000000
     atom    3 type  2   force =     0.00000000    0.00000000    0.00000000
     atom    4 type  2   force =     0.00000000    0.00000000    0.00000000
     atom    5 type  1   force =     0.00000000    0.00000000    0.00000000
     atom    6 type  1   force =     0.00000000    0.00000000    0.00000000
     atom    7 type  2   force =     0.00000000    0.00000000    0.00000000
     atom    8 type  2   force =     0.00000000    0.00000000    0.00000000
     atom    9 type  1   force =     0.00000000    0.00000000    0.00000000
     atom   10 type  1   force =     0.00000000    0.00000000    0.00000000
     atom   11 type  2   force =     0.00000000    0.00000000    0.00000000
     atom   12 type  2   force =     0.00000000    0.00000000    0.00000000
     atom   13 type  1   force =     0.00000000    0.00000000    0.00000000
     atom   14 type  1   force =     0.00000000    0.00000000    0.00000000
     atom   15 type  2   force =     0.00000000    0.00000000    0.00000000
     atom   16 type  2   force =     0.00000000    0.00000000    0.00000000
     atom   17 type  1   force =     0.00000000    0.00000000    0.00000000
     atom   18 type  1   force =     0.00000000    0.00000000    0.00000000
     atom   19 type  2   force =     0.00000000    0.00000000    0.00000000
     atom   20 type  2   force =     0.00000000    0.00000000    0.00000000
     atom   21 type  1   force =     0.00000000    0.00000000    0.00000000
     atom   22 type  1   force =     0.00000000    0.00000000    0.00000000
     atom   23 type  2   force =     0.00000000    0.00000000    0.00000000
     atom   24 type  2   force =     0.00000000    0.00000000    0.00000000
     atom   25 type  1   force =     0.00000000    0.00000000    0.00000000
     atom   26 type  1   force =     0.00000000    0.00000000    0.00000000
     atom   27 type  2   force =     0.00000000    0.00000000    0.00000000
     atom   28 type  2   force =     0.00000000    0.00000000    0.00000000
     atom   29 type  1   force =     0.00000000    0.00000000    0.00000000
     atom   30 type  1   force =     0.00000000    0.00000000    0.00000000
     atom   31 type  2   force =     0.00000000    0.00000000    0.00000000
     atom   32 type  2   force =     0.00000000    0.00000000    0.00000000
     atom   33 type  1   force =     0.00000000    0.00000000    0.00000000
     atom   34 type  1   force =     0.00000000    0.00000000    0.00000000
     atom   35 type  2   force =     0.00000000    0.00000000    0.00000000
     atom   36 type  2   force =     0.00000000    0.00000000    0.00000000
     The SCF correction term to forces
     atom    1 type  1   force =     0.00000581    0.00000336    0.00000030
     atom    2 type  1   force =    -0.00000422   -0.00000244   -0.00000693
     atom    3 type  2   force =    -0.00000090   -0.00000052   -0.00000923
     atom    4 type  2   force =     0.00000082    0.00000047   -0.00000080
     atom    5 type  1   force =     0.00000291    0.00000168   -0.00001134
     atom    6 type  1   force =     0.00000415    0.00000240   -0.00002632
     atom    7 type  2   force =     0.00000240    0.00000138    0.00001023
     atom    8 type  2   force =     0.00000031    0.00000018   -0.00000663
     atom    9 type  1   force =     0.00000328    0.00000189    0.00000490
     atom   10 type  1   force =    -0.00000209   -0.00000120    0.00002627
     atom   11 type  2   force =     0.00000017    0.00000010   -0.00000144
     atom   12 type  2   force =    -0.00000035   -0.00000020    0.00000557
     atom   13 type  1   force =    -0.00001504   -0.00000868   -0.00002203
     atom   14 type  1   force =     0.00000142    0.00000082    0.00000206
     atom   15 type  2   force =    -0.00000442   -0.00000255   -0.00000964
     atom   16 type  2   force =    -0.00000368   -0.00000212   -0.00000458
     atom   17 type  1   force =    -0.00000478   -0.00000276    0.00001252
     atom   18 type  1   force =    -0.00002033   -0.00001174   -0.00002145
     atom   19 type  2   force =     0.00000026    0.00000015    0.00001108
     atom   20 type  2   force =    -0.00000264   -0.00000152    0.00000055
     atom   21 type  1   force =     0.00000109    0.00000063    0.00000349
     atom   22 type  1   force =     0.00000780    0.00000450    0.00002419
     atom   23 type  2   force =     0.00000070    0.00000040   -0.00000350
     atom   24 type  2   force =     0.00000161    0.00000093    0.00000347
     atom   25 type  1   force =     0.00001240    0.00000716   -0.00000479
     atom   26 type  1   force =     0.00000235    0.00000136   -0.00001592
     atom   27 type  2   force =     0.00000603    0.00000348   -0.00000875
     atom   28 type  2   force =     0.00000092    0.00000053   -0.00000698
     atom   29 type  1   force =     0.00000448    0.00000258    0.00000251
     atom   30 type  1   force =     0.00001518    0.00000876   -0.00002049
     atom   31 type  2   force =    -0.00000236   -0.00000136    0.00000919
     atom   32 type  2   force =     0.00000126    0.00000073    0.00000039
     atom   33 type  1   force =     0.00000022    0.00000012    0.00001443
     atom   34 type  1   force =    -0.00000846   -0.00000488    0.00001899
     atom   35 type  2   force =     0.00000057    0.00000033   -0.00000484
     atom   36 type  2   force =    -0.00000276   -0.00000159    0.00000672

     Total force =     0.000371     Total SCF correction =     0.000085
     SCF correction compared to forces is large: reduce conv_thr to get better values

     init_run     :     16.01s CPU     14.54s WALL (       1 calls)
     electrons    :    915.41s CPU    688.23s WALL (       1 calls)
     forces       :     10.04s CPU      8.58s WALL (       1 calls)

     Called by init_run:
     wfcinit      :      7.07s CPU      5.50s WALL (       1 calls)
     wfcinit:atom :      0.05s CPU      0.08s WALL (       2 calls)
     wfcinit:wfcr :      6.74s CPU      5.11s WALL (       2 calls)
     potinit      :      4.18s CPU      4.23s WALL (       1 calls)
     hinit0       :      4.28s CPU      4.31s WALL (       1 calls)

     Called by electrons:
     c_bands      :    831.09s CPU    612.65s WALL (      31 calls)
     sum_band     :     65.72s CPU     56.45s WALL (      31 calls)
     v_of_rho     :      9.78s CPU     10.31s WALL (      32 calls)
     v_h          :      0.67s CPU      0.71s WALL (      32 calls)
     v_xc         :      9.40s CPU      9.91s WALL (      33 calls)
     newd         :      6.54s CPU      6.63s WALL (      32 calls)
     mix_rho      :      1.60s CPU      1.51s WALL (      31 calls)

     Called by c_bands:
     init_us_2    :      2.78s CPU      2.53s WALL (     128 calls)
     init_us_2:cp :      2.78s CPU      2.52s WALL (     128 calls)
     cegterg      :    758.80s CPU    541.56s WALL (      62 calls)

     Called by sum_band:
     sum_band:wei :      0.01s CPU      0.01s WALL (      31 calls)
     sum_band:loo :     56.41s CPU     47.76s WALL (      31 calls)
     sum_band:buf :      0.46s CPU      0.42s WALL (      62 calls)
     sum_band:ini :      1.33s CPU      1.19s WALL (      62 calls)
     sum_band:cal :     20.32s CPU     10.87s WALL (      62 calls)
     sum_band:bec :      0.11s CPU      0.09s WALL (      62 calls)
     addusdens    :      6.43s CPU      5.84s WALL (      31 calls)
                                        0.00s GPU  (      31 calls)
     addusd:skk   :      0.18s CPU      0.16s WALL (      62 calls)
                                        0.00s GPU  (      62 calls)

     Called by *egterg:
     cdiaghg      :     73.92s CPU     60.72s WALL (     511 calls)
     cegterg:over :     71.82s CPU     39.79s WALL (     449 calls)
     cegterg:upda :     49.24s CPU     27.04s WALL (     449 calls)
     cegterg:last :    110.59s CPU     61.37s WALL (     212 calls)
     cdiaghg:chol :      1.75s CPU      1.49s WALL (     511 calls)
     cdiaghg:inve :      1.00s CPU      0.69s WALL (     511 calls)
     cdiaghg:para :     10.68s CPU      7.63s WALL (    1022 calls)
     h_psi        :    364.64s CPU    302.94s WALL (     513 calls)
     s_psi        :     75.37s CPU     40.38s WALL (     513 calls)
     g_psi        :      1.53s CPU      1.27s WALL (     449 calls)

     Called by h_psi:
     h_psi:calbec :     74.35s CPU     41.42s WALL (     513 calls)
     vloc_psi     :    212.86s CPU    218.26s WALL (     513 calls)
     add_vuspsi   :     75.99s CPU     40.96s WALL (     513 calls)

     General routines
     calbec       :     97.47s CPU     53.74s WALL (     583 calls)
     fft          :      6.12s CPU      6.65s WALL (     425 calls)
     ffts         :      0.50s CPU      0.51s WALL (      63 calls)
     fftw         :    197.96s CPU    203.10s WALL (   82030 calls)
     interpolate  :      0.80s CPU      0.85s WALL (      32 calls)

     Parallel routines

     PWSCF        :  15m43.23s CPU  11m53.15s WALL


   This run was terminated on:  12:11:50  29Jul2025            

=------------------------------------------------------------------------------=
   JOB DONE.
=------------------------------------------------------------------------------=
Note: The following floating-point exceptions are signalling: IEEE_INVALID_FLAG
Note: The following floating-point exceptions are signalling: IEEE_DENORMAL
Note: The following floating-point exceptions are signalling: IEEE_INVALID_FLAG
Note: The following floating-point exceptions are signalling: IEEE_INVALID_FLAG
Note: The following floating-point exceptions are signalling: IEEE_INVALID_FLAG
Note: The following floating-point exceptions are signalling: IEEE_DENORMAL
Note: The following floating-point exceptions are signalling: IEEE_DENORMAL
Note: The following floating-point exceptions are signalling: IEEE_DENORMAL
Note: The following floating-point exceptions are signalling: IEEE_DENORMAL
Note: The following floating-point exceptions are signalling: IEEE_DENORMAL
Note: The following floating-point exceptions are signalling: IEEE_INVALID_FLAG
Note: The following floating-point exceptions are signalling: IEEE_INVALID_FLAG
Note: The following floating-point exceptions are signalling: IEEE_INVALID_FLAG
Note: The following floating-point exceptions are signalling: IEEE_DENORMAL
Note: The following floating-point exceptions are signalling: IEEE_INVALID_FLAG
Note: The following floating-point exceptions are signalling: IEEE_DENORMAL
