
     Program PWSCF v.7.2 starts on 28Jul2025 at 22:31: 1 

     This program is part of the open-source Quantum ESPRESSO suite
     for quantum simulation of materials; please cite
         "P. Giannozzi et al., J. Phys.:Condens. Matter 21 395502 (2009);
         "P. Giannozzi et al., J. Phys.:Condens. Matter 29 465901 (2017);
         "P. Giannozzi et al., J. Chem. Phys. 152 154105 (2020);
          URL http://www.quantum-espresso.org", 
     in publications or presentations arising from this work. More details at
     http://www.quantum-espresso.org/quote

     Parallel version (MPI), running on    32 processors

     MPI processes distributed on     1 nodes
     125858 MiB available memory on the printing compute node when the environment starts

     Reading input from /home/jvc/QEspresso7.2/ZnO_database/scripts/cell313.in/ZnO-3.07-1.49-313.in
Warning: card &CELL ignored
Warning: card / ignored
Warning: card &FCP ignored
Warning: card / ignored
Warning: card &RISM ignored
Warning: card / ignored

     Current dimensions of program PWSCF are:
     Max number of different atomic species (ntypx) = 10
     Max number of k-points (npk) =  40000
     Max angular momentum in pseudopotentials (lmaxx) =  4
     file Zn.upf: wavefunction(s)  3D renormalized
     Found identity + (  0.0000  0.0000  0.3333) symmetry
     This is a supercell, fractional translations are disabled
     Message from routine setup:
     using ibrav=0 with symmetry is DISCOURAGED, use correct ibrav instead

     K-points division:     npool     =       8
     R & G space division:  proc/nbgrp/npool/nimage =       4
     Subspace diagonalization in iterative solution of the eigenvalue problem:
     one sub-group per band group will be used
     custom distributed-memory algorithm (size of sub-group:  2*  2 procs)


     Parallelization info
     --------------------
     sticks:   dense  smooth     PW     G-vecs:    dense   smooth      PW
     Min         787     393    115               100242    35425    5659
     Max         790     394    116               100245    35430    5668
     Sum        3153    1573    461               400971   141707   22649

     Using Slab Decomposition



     bravais-lattice index     =            0
     lattice parameter (alat)  =      18.5365  a.u.
     unit-cell volume          =    2968.1791 (a.u.)^3
     number of atoms/cell      =           36
     number of atomic types    =            2
     number of electrons       =       324.00
     number of Kohn-Sham states=          162
     kinetic-energy cutoff     =      50.0000  Ry
     charge density cutoff     =     400.0000  Ry
     scf convergence threshold =      1.0E-08
     mixing beta               =       0.3000
     number of iterations used =            8  plain     mixing
     Exchange-correlation= PBE
                           (   1   4   3   4   0   0   0)

     celldm(1)=  18.536466  celldm(2)=   0.000000  celldm(3)=   0.000000
     celldm(4)=   0.000000  celldm(5)=   0.000000  celldm(6)=   0.000000

     crystal axes: (cart. coord. in units of alat)
               a(1) = (   1.000000   0.000000   0.000000 )  
               a(2) = (  -0.166667   0.288675   0.000000 )  
               a(3) = (   0.000000   0.000000   1.614358 )  

     reciprocal axes: (cart. coord. in units 2 pi/alat)
               b(1) = (  1.000000  0.577350 -0.000000 )  
               b(2) = (  0.000000  3.464102  0.000000 )  
               b(3) = (  0.000000 -0.000000  0.619441 )  


     PseudoPot. # 1 for Zn read from file:
     /home/jvc/QEspresso7.2/ZnO_database/pseudos/Zn.upf
     MD5 check sum: 7f56cabf9682ed8c977c2f7d0c5985c5
     Pseudo is Ultrasoft + core correction, Zval = 12.0
     Generated using &quot;atomic&quot; code by A. Dal Corso  v.6.2.2
     Using radial grid of 1201 points,  6 beta functions with: 
                l(1) =   0
                l(2) =   0
                l(3) =   1
                l(4) =   1
                l(5) =   2
                l(6) =   2
     Q(r) pseudized with 0 coefficients 


     PseudoPot. # 2 for O  read from file:
     /home/jvc/QEspresso7.2/ZnO_database/pseudos/O.upf
     MD5 check sum: 91400c9766925bcf19f520983a725ff0
     Pseudo is Ultrasoft + core correction, Zval =  6.0
     Generated using &quot;atomic&quot; code by A. Dal Corso  v.6.3MaX
     Using radial grid of 1095 points,  4 beta functions with: 
                l(1) =   0
                l(2) =   0
                l(3) =   1
                l(4) =   1
     Q(r) pseudized with 0 coefficients 


     atomic species   valence    mass     pseudopotential
        Zn            12.00    65.38000     Zn( 1.00)
        O              6.00    15.99900     O ( 1.00)

      2 Sym. Ops. (no inversion) found


                                    s                        frac. trans.

      isym =  1     identity                                     

 cryst.   s( 1) = (     1          0          0      )
                  (     0          1          0      )
                  (     0          0          1      )

 cart.    s( 1) = (  1.0000000  0.0000000  0.0000000 )
                  (  0.0000000  1.0000000  0.0000000 )
                  (  0.0000000  0.0000000  1.0000000 )


      isym =  2     inv. 180 deg rotation - cryst. axis [0,1,0]  

 cryst.   s( 2) = (     1          3          0      )
                  (     0         -1          0      )
                  (     0          0          1      )

 cart.    s( 2) = (  0.5000000  0.8660254  0.0000000 )
                  (  0.8660254 -0.5000000  0.0000000 )
                  (  0.0000000  0.0000000  1.0000000 )


   Cartesian axes

     site n.     atom                  positions (alat units)
         1           Zn  tau(   1) = (   0.1666667   0.0962250   0.2694007  )
         2           Zn  tau(   2) = (   0.0000000   0.1924501   0.0003409  )
         3           O   tau(   3) = (   0.1666667   0.0962250   0.4733710  )
         4           O   tau(   4) = (   0.0000000   0.1924501   0.2043113  )
         5           Zn  tau(   5) = (   0.1666667   0.0962250   0.8075201  )
         6           Zn  tau(   6) = (   0.0000000   0.1924501   0.5384604  )
         7           O   tau(   7) = (   0.1666667   0.0962250   1.0114904  )
         8           O   tau(   8) = (   0.0000000   0.1924501   0.7424307  )
         9           Zn  tau(   9) = (   0.1666667   0.0962250   1.3456396  )
        10           Zn  tau(  10) = (   0.0000000   0.1924501   1.0765798  )
        11           O   tau(  11) = (   0.1666667   0.0962250   1.5496099  )
        12           O   tau(  12) = (   0.0000000   0.1924501   1.2805502  )
        13           Zn  tau(  13) = (   0.5000000   0.0962250   0.2694007  )
        14           Zn  tau(  14) = (   0.3333333   0.1924501   0.0003409  )
        15           O   tau(  15) = (   0.5000000   0.0962250   0.4733710  )
        16           O   tau(  16) = (   0.3333333   0.1924501   0.2043113  )
        17           Zn  tau(  17) = (   0.5000000   0.0962250   0.8075201  )
        18           Zn  tau(  18) = (   0.3333333   0.1924501   0.5384604  )
        19           O   tau(  19) = (   0.5000000   0.0962250   1.0114904  )
        20           O   tau(  20) = (   0.3333333   0.1924501   0.7424307  )
        21           Zn  tau(  21) = (   0.5000000   0.0962250   1.3456396  )
        22           Zn  tau(  22) = (   0.3333333   0.1924501   1.0765798  )
        23           O   tau(  23) = (   0.5000000   0.0962250   1.5496099  )
        24           O   tau(  24) = (   0.3333333   0.1924501   1.2805502  )
        25           Zn  tau(  25) = (   0.8333333   0.0962250   0.2694007  )
        26           Zn  tau(  26) = (   0.6666667   0.1924501   0.0003409  )
        27           O   tau(  27) = (   0.8333333   0.0962250   0.4733710  )
        28           O   tau(  28) = (   0.6666667   0.1924501   0.2043113  )
        29           Zn  tau(  29) = (   0.8333333   0.0962250   0.8075201  )
        30           Zn  tau(  30) = (   0.6666667   0.1924501   0.5384604  )
        31           O   tau(  31) = (   0.8333333   0.0962250   1.0114904  )
        32           O   tau(  32) = (   0.6666667   0.1924501   0.7424307  )
        33           Zn  tau(  33) = (   0.8333333   0.0962250   1.3456396  )
        34           Zn  tau(  34) = (   0.6666667   0.1924501   1.0765798  )
        35           O   tau(  35) = (   0.8333333   0.0962250   1.5496099  )
        36           O   tau(  36) = (   0.6666667   0.1924501   1.2805502  )

   Crystallographic axes

     site n.     atom                  positions (cryst. coord.)
         1           Zn  tau(   1) = (  0.2222222  0.3333333  0.1668779  )
         2           Zn  tau(   2) = (  0.1111111  0.6666667  0.0002112  )
         3           O   tau(   3) = (  0.2222222  0.3333333  0.2932255  )
         4           O   tau(   4) = (  0.1111111  0.6666667  0.1265588  )
         5           Zn  tau(   5) = (  0.2222222  0.3333333  0.5002112  )
         6           Zn  tau(   6) = (  0.1111111  0.6666667  0.3335445  )
         7           O   tau(   7) = (  0.2222222  0.3333333  0.6265588  )
         8           O   tau(   8) = (  0.1111111  0.6666667  0.4598921  )
         9           Zn  tau(   9) = (  0.2222222  0.3333333  0.8335445  )
        10           Zn  tau(  10) = (  0.1111111  0.6666667  0.6668779  )
        11           O   tau(  11) = (  0.2222222  0.3333333  0.9598921  )
        12           O   tau(  12) = (  0.1111111  0.6666667  0.7932255  )
        13           Zn  tau(  13) = (  0.5555556  0.3333333  0.1668779  )
        14           Zn  tau(  14) = (  0.4444444  0.6666667  0.0002112  )
        15           O   tau(  15) = (  0.5555556  0.3333333  0.2932255  )
        16           O   tau(  16) = (  0.4444444  0.6666667  0.1265588  )
        17           Zn  tau(  17) = (  0.5555556  0.3333333  0.5002112  )
        18           Zn  tau(  18) = (  0.4444444  0.6666667  0.3335445  )
        19           O   tau(  19) = (  0.5555556  0.3333333  0.6265588  )
        20           O   tau(  20) = (  0.4444444  0.6666667  0.4598921  )
        21           Zn  tau(  21) = (  0.5555556  0.3333333  0.8335445  )
        22           Zn  tau(  22) = (  0.4444444  0.6666667  0.6668779  )
        23           O   tau(  23) = (  0.5555556  0.3333333  0.9598921  )
        24           O   tau(  24) = (  0.4444444  0.6666667  0.7932255  )
        25           Zn  tau(  25) = (  0.8888889  0.3333333  0.1668779  )
        26           Zn  tau(  26) = (  0.7777778  0.6666667  0.0002112  )
        27           O   tau(  27) = (  0.8888889  0.3333333  0.2932255  )
        28           O   tau(  28) = (  0.7777778  0.6666667  0.1265588  )
        29           Zn  tau(  29) = (  0.8888889  0.3333333  0.5002112  )
        30           Zn  tau(  30) = (  0.7777778  0.6666667  0.3335445  )
        31           O   tau(  31) = (  0.8888889  0.3333333  0.6265588  )
        32           O   tau(  32) = (  0.7777778  0.6666667  0.4598921  )
        33           Zn  tau(  33) = (  0.8888889  0.3333333  0.8335445  )
        34           Zn  tau(  34) = (  0.7777778  0.6666667  0.6668779  )
        35           O   tau(  35) = (  0.8888889  0.3333333  0.9598921  )
        36           O   tau(  36) = (  0.7777778  0.6666667  0.7932255  )

     number of k points=    12
                       cart. coord. in units 2pi/alat
        k(    1) = (   0.0000000   0.0000000   0.0000000), wk =   0.0833333
        k(    2) = (   0.0000000   0.0000000  -0.3097206), wk =   0.0833333
        k(    3) = (   0.0000000   0.5773503   0.0000000), wk =   0.3333333
        k(    4) = (   0.0000000   0.5773503  -0.3097206), wk =   0.3333333
        k(    5) = (   0.0000000   1.1547005   0.0000000), wk =   0.1666667
        k(    6) = (   0.0000000   1.1547005  -0.3097206), wk =   0.1666667
        k(    7) = (   0.0000000  -1.7320508   0.0000000), wk =   0.1666667
        k(    8) = (   0.0000000  -1.7320508  -0.3097206), wk =   0.1666667
        k(    9) = (  -0.5000000  -0.2886751   0.0000000), wk =   0.0833333
        k(   10) = (  -0.5000000  -0.2886751  -0.3097206), wk =   0.0833333
        k(   11) = (  -0.5000000   0.8660254   0.0000000), wk =   0.1666667
        k(   12) = (  -0.5000000   0.8660254  -0.3097206), wk =   0.1666667

                       cryst. coord.
        k(    1) = (   0.0000000   0.0000000   0.0000000), wk =   0.0833333
        k(    2) = (   0.0000000   0.0000000  -0.5000000), wk =   0.0833333
        k(    3) = (   0.0000000   0.1666667   0.0000000), wk =   0.3333333
        k(    4) = (   0.0000000   0.1666667  -0.5000000), wk =   0.3333333
        k(    5) = (   0.0000000   0.3333333   0.0000000), wk =   0.1666667
        k(    6) = (   0.0000000   0.3333333  -0.5000000), wk =   0.1666667
        k(    7) = (   0.0000000  -0.5000000   0.0000000), wk =   0.1666667
        k(    8) = (   0.0000000  -0.5000000  -0.5000000), wk =   0.1666667
        k(    9) = (  -0.5000000  -0.0000000   0.0000000), wk =   0.0833333
        k(   10) = (  -0.5000000  -0.0000000  -0.5000000), wk =   0.0833333
        k(   11) = (  -0.5000000   0.3333333   0.0000000), wk =   0.1666667
        k(   12) = (  -0.5000000   0.3333333  -0.5000000), wk =   0.1666667

     Dense  grid:   400971 G-vectors     FFT dimensions: ( 120,  40, 192)

     Smooth grid:   141707 G-vectors     FFT dimensions: (  90,  27, 135)

     Dynamical RAM for                 wfc:      10.95 MB

     Dynamical RAM for     wfc (w. buffer):      32.85 MB

     Dynamical RAM for           str. fact:       3.06 MB

     Dynamical RAM for           local pot:       0.00 MB

     Dynamical RAM for          nlocal pot:      31.64 MB

     Dynamical RAM for                qrad:       3.21 MB

     Dynamical RAM for          rho,v,vnew:       9.86 MB

     Dynamical RAM for               rhoin:       3.29 MB

     Dynamical RAM for            rho*nmix:      24.47 MB

     Dynamical RAM for           G-vectors:       6.01 MB

     Dynamical RAM for          h,s,v(r/c):       1.20 MB

     Dynamical RAM for          <psi|beta>:       1.16 MB

     Dynamical RAM for                 psi:      21.90 MB

     Dynamical RAM for                hpsi:      21.90 MB

     Dynamical RAM for                spsi:      21.90 MB

     Dynamical RAM for      wfcinit/wfcrot:      32.89 MB

     Dynamical RAM for           addusdens:      40.34 MB

     Dynamical RAM for          addusforce:      46.34 MB

     Estimated static dynamical RAM per process >     103.29 MB

     Estimated max dynamical RAM per process >     195.83 MB

     Estimated total dynamical RAM >       5.45 GB

     Check: negative core charge=   -0.000002

     Initial potential from superposition of free atoms

     starting charge     323.9329, renormalised to     324.0000
     Starting wfcs are  234 randomized atomic wfcs

     total cpu time spent up to now is       17.9 secs

     Self-consistent Calculation

     iteration #  1     ecut=    50.00 Ry     beta= 0.30
     Davidson diagonalization with overlap

---- Real-time Memory Report at c_bands before calling an iterative solver
           165 MiB given to the printing process from OS
             0 MiB allocation reported by mallinfo(arena+hblkhd)
        121267 MiB available memory on the node where the printing process lives
------------------
     ethr =  1.00E-02,  avg # of iterations =  2.0

     total cpu time spent up to now is       29.9 secs

     total energy              =   -3253.31817553 Ry
     estimated scf accuracy    <       6.21381489 Ry

     iteration #  2     ecut=    50.00 Ry     beta= 0.30
     Davidson diagonalization with overlap

---- Real-time Memory Report at c_bands before calling an iterative solver
           217 MiB given to the printing process from OS
             0 MiB allocation reported by mallinfo(arena+hblkhd)
        120243 MiB available memory on the node where the printing process lives
------------------
     ethr =  1.92E-03,  avg # of iterations =  2.0

     total cpu time spent up to now is       44.8 secs

     total energy              =   -3254.22016217 Ry
     estimated scf accuracy    <       0.78723818 Ry

     iteration #  3     ecut=    50.00 Ry     beta= 0.30
     Davidson diagonalization with overlap

---- Real-time Memory Report at c_bands before calling an iterative solver
           221 MiB given to the printing process from OS
             0 MiB allocation reported by mallinfo(arena+hblkhd)
        120296 MiB available memory on the node where the printing process lives
------------------
     ethr =  2.43E-04,  avg # of iterations =  7.5

     total cpu time spent up to now is       71.6 secs

     total energy              =   -3254.52182419 Ry
     estimated scf accuracy    <       0.47366779 Ry

     iteration #  4     ecut=    50.00 Ry     beta= 0.30
     Davidson diagonalization with overlap

---- Real-time Memory Report at c_bands before calling an iterative solver
           223 MiB given to the printing process from OS
             0 MiB allocation reported by mallinfo(arena+hblkhd)
        120310 MiB available memory on the node where the printing process lives
------------------
     ethr =  1.46E-04,  avg # of iterations =  8.8

     total cpu time spent up to now is      104.4 secs

     total energy              =   -3254.78072539 Ry
     estimated scf accuracy    <       1.73997425 Ry

     iteration #  5     ecut=    50.00 Ry     beta= 0.30
     Davidson diagonalization with overlap

---- Real-time Memory Report at c_bands before calling an iterative solver
           225 MiB given to the printing process from OS
             0 MiB allocation reported by mallinfo(arena+hblkhd)
        120313 MiB available memory on the node where the printing process lives
------------------
     ethr =  1.46E-04,  avg # of iterations =  2.0

     total cpu time spent up to now is      116.5 secs

     total energy              =   -3254.06419358 Ry
     estimated scf accuracy    <       0.94452193 Ry

     iteration #  6     ecut=    50.00 Ry     beta= 0.30
     Davidson diagonalization with overlap

---- Real-time Memory Report at c_bands before calling an iterative solver
           225 MiB given to the printing process from OS
             0 MiB allocation reported by mallinfo(arena+hblkhd)
        120333 MiB available memory on the node where the printing process lives
------------------
     ethr =  1.46E-04,  avg # of iterations = 11.8

     total cpu time spent up to now is      158.1 secs

     total energy              =   -3253.70268451 Ry
     estimated scf accuracy    <       9.87354670 Ry

     iteration #  7     ecut=    50.00 Ry     beta= 0.30
     Davidson diagonalization with overlap

---- Real-time Memory Report at c_bands before calling an iterative solver
           227 MiB given to the printing process from OS
             0 MiB allocation reported by mallinfo(arena+hblkhd)
        120361 MiB available memory on the node where the printing process lives
------------------
     ethr =  1.46E-04,  avg # of iterations = 10.8

     total cpu time spent up to now is      194.0 secs

     total energy              =   -3254.73401588 Ry
     estimated scf accuracy    <       0.47469123 Ry

     iteration #  8     ecut=    50.00 Ry     beta= 0.30
     Davidson diagonalization with overlap

---- Real-time Memory Report at c_bands before calling an iterative solver
           228 MiB given to the printing process from OS
             0 MiB allocation reported by mallinfo(arena+hblkhd)
        120401 MiB available memory on the node where the printing process lives
------------------
     ethr =  1.46E-04,  avg # of iterations =  2.0

     total cpu time spent up to now is      205.9 secs

     total energy              =   -3254.71717849 Ry
     estimated scf accuracy    <       0.29821881 Ry

     iteration #  9     ecut=    50.00 Ry     beta= 0.30
     Davidson diagonalization with overlap

---- Real-time Memory Report at c_bands before calling an iterative solver
           228 MiB given to the printing process from OS
             0 MiB allocation reported by mallinfo(arena+hblkhd)
        120367 MiB available memory on the node where the printing process lives
------------------
     ethr =  9.20E-05,  avg # of iterations =  2.0

     total cpu time spent up to now is      218.4 secs

     total energy              =   -3254.68434260 Ry
     estimated scf accuracy    <       0.16157701 Ry

     iteration # 10     ecut=    50.00 Ry     beta= 0.30
     Davidson diagonalization with overlap

---- Real-time Memory Report at c_bands before calling an iterative solver
           228 MiB given to the printing process from OS
             0 MiB allocation reported by mallinfo(arena+hblkhd)
        120331 MiB available memory on the node where the printing process lives
------------------
     ethr =  4.99E-05,  avg # of iterations =  5.4

     total cpu time spent up to now is      236.0 secs

     total energy              =   -3254.71989235 Ry
     estimated scf accuracy    <       0.01050344 Ry

     iteration # 11     ecut=    50.00 Ry     beta= 0.30
     Davidson diagonalization with overlap

---- Real-time Memory Report at c_bands before calling an iterative solver
           231 MiB given to the printing process from OS
             0 MiB allocation reported by mallinfo(arena+hblkhd)
        120364 MiB available memory on the node where the printing process lives
------------------
     ethr =  3.24E-06,  avg # of iterations =  8.8

     total cpu time spent up to now is      266.3 secs

     total energy              =   -3254.73157220 Ry
     estimated scf accuracy    <       0.00111483 Ry

     iteration # 12     ecut=    50.00 Ry     beta= 0.30
     Davidson diagonalization with overlap

---- Real-time Memory Report at c_bands before calling an iterative solver
           231 MiB given to the printing process from OS
             0 MiB allocation reported by mallinfo(arena+hblkhd)
        120408 MiB available memory on the node where the printing process lives
------------------
     ethr =  3.44E-07,  avg # of iterations =  4.8

     total cpu time spent up to now is      285.2 secs

     total energy              =   -3254.73196799 Ry
     estimated scf accuracy    <       0.00008257 Ry

     iteration # 13     ecut=    50.00 Ry     beta= 0.30
     Davidson diagonalization with overlap

---- Real-time Memory Report at c_bands before calling an iterative solver
           232 MiB given to the printing process from OS
             0 MiB allocation reported by mallinfo(arena+hblkhd)
        120376 MiB available memory on the node where the printing process lives
------------------
     ethr =  2.55E-08,  avg # of iterations =  7.3

     total cpu time spent up to now is      311.8 secs

     total energy              =   -3254.73214887 Ry
     estimated scf accuracy    <       0.00009877 Ry

     iteration # 14     ecut=    50.00 Ry     beta= 0.30
     Davidson diagonalization with overlap

---- Real-time Memory Report at c_bands before calling an iterative solver
           232 MiB given to the printing process from OS
             0 MiB allocation reported by mallinfo(arena+hblkhd)
        120356 MiB available memory on the node where the printing process lives
------------------
     ethr =  2.55E-08,  avg # of iterations = 11.0

     total cpu time spent up to now is      348.1 secs

     total energy              =   -3254.73202180 Ry
     estimated scf accuracy    <       0.00137118 Ry

     iteration # 15     ecut=    50.00 Ry     beta= 0.30
     Davidson diagonalization with overlap

---- Real-time Memory Report at c_bands before calling an iterative solver
           232 MiB given to the printing process from OS
             0 MiB allocation reported by mallinfo(arena+hblkhd)
        120388 MiB available memory on the node where the printing process lives
------------------
     ethr =  2.55E-08,  avg # of iterations =  6.9

     total cpu time spent up to now is      374.7 secs

     total energy              =   -3254.73184285 Ry
     estimated scf accuracy    <       0.00039964 Ry

     iteration # 16     ecut=    50.00 Ry     beta= 0.30
     Davidson diagonalization with overlap

---- Real-time Memory Report at c_bands before calling an iterative solver
           232 MiB given to the printing process from OS
             0 MiB allocation reported by mallinfo(arena+hblkhd)
        120372 MiB available memory on the node where the printing process lives
------------------
     ethr =  2.55E-08,  avg # of iterations = 10.4

     total cpu time spent up to now is      409.5 secs

     total energy              =   -3254.73205001 Ry
     estimated scf accuracy    <       0.00013413 Ry

     iteration # 17     ecut=    50.00 Ry     beta= 0.30
     Davidson diagonalization with overlap

---- Real-time Memory Report at c_bands before calling an iterative solver
           232 MiB given to the printing process from OS
             0 MiB allocation reported by mallinfo(arena+hblkhd)
        120352 MiB available memory on the node where the printing process lives
------------------
     ethr =  2.55E-08,  avg # of iterations =  2.0

     total cpu time spent up to now is      421.4 secs

     total energy              =   -3254.73213341 Ry
     estimated scf accuracy    <       0.00018979 Ry

     iteration # 18     ecut=    50.00 Ry     beta= 0.30
     Davidson diagonalization with overlap

---- Real-time Memory Report at c_bands before calling an iterative solver
           232 MiB given to the printing process from OS
             0 MiB allocation reported by mallinfo(arena+hblkhd)
        120346 MiB available memory on the node where the printing process lives
------------------
     ethr =  2.55E-08,  avg # of iterations =  6.1

     total cpu time spent up to now is      440.9 secs

     total energy              =   -3254.73201658 Ry
     estimated scf accuracy    <       0.00059555 Ry

     iteration # 19     ecut=    50.00 Ry     beta= 0.30
     Davidson diagonalization with overlap

---- Real-time Memory Report at c_bands before calling an iterative solver
           232 MiB given to the printing process from OS
             0 MiB allocation reported by mallinfo(arena+hblkhd)
        120361 MiB available memory on the node where the printing process lives
------------------
     ethr =  2.55E-08,  avg # of iterations =  2.8

     total cpu time spent up to now is      455.2 secs

     total energy              =   -3254.73185891 Ry
     estimated scf accuracy    <       0.00031429 Ry

     iteration # 20     ecut=    50.00 Ry     beta= 0.30
     Davidson diagonalization with overlap

---- Real-time Memory Report at c_bands before calling an iterative solver
           232 MiB given to the printing process from OS
             0 MiB allocation reported by mallinfo(arena+hblkhd)
        120302 MiB available memory on the node where the printing process lives
------------------
     ethr =  2.55E-08,  avg # of iterations =  8.5

     total cpu time spent up to now is      487.3 secs

     total energy              =   -3254.73198749 Ry
     estimated scf accuracy    <       0.00007808 Ry

     iteration # 21     ecut=    50.00 Ry     beta= 0.30
     Davidson diagonalization with overlap

---- Real-time Memory Report at c_bands before calling an iterative solver
           233 MiB given to the printing process from OS
             0 MiB allocation reported by mallinfo(arena+hblkhd)
        120287 MiB available memory on the node where the printing process lives
------------------
     ethr =  2.41E-08,  avg # of iterations =  1.7

     total cpu time spent up to now is      498.8 secs

     total energy              =   -3254.73196822 Ry
     estimated scf accuracy    <       0.00003130 Ry

     iteration # 22     ecut=    50.00 Ry     beta= 0.30
     Davidson diagonalization with overlap

---- Real-time Memory Report at c_bands before calling an iterative solver
           233 MiB given to the printing process from OS
             0 MiB allocation reported by mallinfo(arena+hblkhd)
        120350 MiB available memory on the node where the printing process lives
------------------
     ethr =  9.66E-09,  avg # of iterations =  7.2

     total cpu time spent up to now is      528.1 secs

     total energy              =   -3254.73200146 Ry
     estimated scf accuracy    <       0.00005048 Ry

     iteration # 23     ecut=    50.00 Ry     beta= 0.30
     Davidson diagonalization with overlap

---- Real-time Memory Report at c_bands before calling an iterative solver
           233 MiB given to the printing process from OS
             0 MiB allocation reported by mallinfo(arena+hblkhd)
        120355 MiB available memory on the node where the printing process lives
------------------
     ethr =  9.66E-09,  avg # of iterations =  1.0

     total cpu time spent up to now is      538.8 secs

     total energy              =   -3254.73198765 Ry
     estimated scf accuracy    <       0.00004272 Ry

     iteration # 24     ecut=    50.00 Ry     beta= 0.30
     Davidson diagonalization with overlap

---- Real-time Memory Report at c_bands before calling an iterative solver
           233 MiB given to the printing process from OS
             0 MiB allocation reported by mallinfo(arena+hblkhd)
        120380 MiB available memory on the node where the printing process lives
------------------
     ethr =  9.66E-09,  avg # of iterations =  2.0

     total cpu time spent up to now is      550.9 secs

     total energy              =   -3254.73198539 Ry
     estimated scf accuracy    <       0.00001573 Ry

     iteration # 25     ecut=    50.00 Ry     beta= 0.30
     Davidson diagonalization with overlap

---- Real-time Memory Report at c_bands before calling an iterative solver
           233 MiB given to the printing process from OS
             0 MiB allocation reported by mallinfo(arena+hblkhd)
        120328 MiB available memory on the node where the printing process lives
------------------
     ethr =  4.86E-09,  avg # of iterations =  4.7

     total cpu time spent up to now is      568.5 secs

     total energy              =   -3254.73199026 Ry
     estimated scf accuracy    <       0.00000026 Ry

     iteration # 26     ecut=    50.00 Ry     beta= 0.30
     Davidson diagonalization with overlap

---- Real-time Memory Report at c_bands before calling an iterative solver
           233 MiB given to the printing process from OS
             0 MiB allocation reported by mallinfo(arena+hblkhd)
        120340 MiB available memory on the node where the printing process lives
------------------
     ethr =  8.05E-11,  avg # of iterations = 11.3

     total cpu time spent up to now is      605.6 secs

     total energy              =   -3254.73199115 Ry
     estimated scf accuracy    <       0.00000052 Ry

     iteration # 27     ecut=    50.00 Ry     beta= 0.30
     Davidson diagonalization with overlap

---- Real-time Memory Report at c_bands before calling an iterative solver
           233 MiB given to the printing process from OS
             0 MiB allocation reported by mallinfo(arena+hblkhd)
        120372 MiB available memory on the node where the printing process lives
------------------
     ethr =  8.05E-11,  avg # of iterations =  2.0

     total cpu time spent up to now is      618.3 secs

     total energy              =   -3254.73199109 Ry
     estimated scf accuracy    <       0.00000018 Ry

     iteration # 28     ecut=    50.00 Ry     beta= 0.30
     Davidson diagonalization with overlap

---- Real-time Memory Report at c_bands before calling an iterative solver
           233 MiB given to the printing process from OS
             0 MiB allocation reported by mallinfo(arena+hblkhd)
        120334 MiB available memory on the node where the printing process lives
------------------
     ethr =  5.43E-11,  avg # of iterations =  6.9

     total cpu time spent up to now is      641.8 secs

     total energy              =   -3254.73199124 Ry
     estimated scf accuracy    <       0.00000005 Ry

     iteration # 29     ecut=    50.00 Ry     beta= 0.30
     Davidson diagonalization with overlap

---- Real-time Memory Report at c_bands before calling an iterative solver
           233 MiB given to the printing process from OS
             0 MiB allocation reported by mallinfo(arena+hblkhd)
        120344 MiB available memory on the node where the printing process lives
------------------
     ethr =  1.41E-11,  avg # of iterations =  6.8

     total cpu time spent up to now is      665.4 secs

     total energy              =   -3254.73199123 Ry
     estimated scf accuracy    <       0.00000022 Ry

     iteration # 30     ecut=    50.00 Ry     beta= 0.30
     Davidson diagonalization with overlap

---- Real-time Memory Report at c_bands before calling an iterative solver
           233 MiB given to the printing process from OS
             0 MiB allocation reported by mallinfo(arena+hblkhd)
        120330 MiB available memory on the node where the printing process lives
------------------
     ethr =  1.41E-11,  avg # of iterations =  1.0

     total cpu time spent up to now is      676.1 secs

     total energy              =   -3254.73199114 Ry
     estimated scf accuracy    <       0.00000017 Ry

     iteration # 31     ecut=    50.00 Ry     beta= 0.30
     Davidson diagonalization with overlap

---- Real-time Memory Report at c_bands before calling an iterative solver
           233 MiB given to the printing process from OS
             0 MiB allocation reported by mallinfo(arena+hblkhd)
        120313 MiB available memory on the node where the printing process lives
------------------
     ethr =  1.41E-11,  avg # of iterations =  8.1

     total cpu time spent up to now is      707.1 secs

     total energy              =   -3254.73199119 Ry
     estimated scf accuracy    <       0.00000002 Ry

     iteration # 32     ecut=    50.00 Ry     beta= 0.30
     Davidson diagonalization with overlap

---- Real-time Memory Report at c_bands before calling an iterative solver
           233 MiB given to the printing process from OS
             0 MiB allocation reported by mallinfo(arena+hblkhd)
        120359 MiB available memory on the node where the printing process lives
------------------
     ethr =  5.45E-12,  avg # of iterations =  3.8

     total cpu time spent up to now is      721.8 secs

     End of self-consistent calculation

          k = 0.0000 0.0000 0.0000 ( 17677 PWs)   bands (ev):

   -10.9985 -10.8352 -10.8352 -10.5470 -10.5470 -10.4952 -10.4952 -10.4471
   -10.4471 -10.4471 -10.4471 -10.3183 -10.2520 -10.2520 -10.2520 -10.2520
   -10.1575 -10.1575   0.9558   0.9558   0.9558   0.9558   1.0419   1.0419
     1.0906   1.0906   1.0906   1.0906   1.1614   1.1614   1.2062   1.2062
     1.3159   1.3159   1.3450   1.3450   1.3451   1.3451   1.3565   1.3780
     1.3780   1.4366   1.4366   1.4366   1.4366   1.4392   1.5014   1.5014
     1.5196   1.5196   1.5967   1.5967   1.5967   1.5967   1.6673   1.6673
     1.6673   1.6673   1.7197   1.7197   1.7583   1.7583   1.7583   1.7583
     1.7846   1.7846   1.7846   1.7846   1.9005   1.9005   2.0312   2.0312
     2.3484   2.3484   2.4282   2.4282   2.4787   2.4787   2.4787   2.4787
     2.4918   2.4918   2.4918   2.4918   2.4988   2.4988   2.5339   2.5339
     2.5339   2.5339   2.5918   2.5918   2.5918   2.5918   2.6096   2.6096
     2.6096   2.6096   2.6248   2.6248   2.6552   2.6552   2.6819   2.6819
     2.6819   2.6819   2.8131   2.8131   2.8918   3.0838   3.0838   3.6415
     3.6415   3.6415   3.6415   3.7941   3.7941   3.8753   3.8753   4.0473
     4.0473   4.0473   4.0473   4.6506   4.6506   4.9084   4.9084   4.9084
     4.9084   5.0972   5.0972   5.4185   5.4185   5.4185   5.4185   5.4566
     5.4566   5.9792   5.9792   5.9792   5.9792   6.0154   6.0154   6.0154
     6.0154   6.0931   6.0931   6.1251   6.1251   6.3016   6.3016   6.3189
     6.3189   6.3189   6.3189   6.7003   6.7003   6.7003   6.7003   6.8049
     6.8873   6.8873

     occupation numbers 
     1.0000   1.0000   1.0000   1.0000   1.0000   1.0000   1.0000   1.0000
     1.0000   1.0000   1.0000   1.0000   1.0000   1.0000   1.0000   1.0000
     1.0000   1.0000   1.0000   1.0000   1.0000   1.0000   1.0000   1.0000
     1.0000   1.0000   1.0000   1.0000   1.0000   1.0000   1.0000   1.0000
     1.0000   1.0000   1.0000   1.0000   1.0000   1.0000   1.0000   1.0000
     1.0000   1.0000   1.0000   1.0000   1.0000   1.0000   1.0000   1.0000
     1.0000   1.0000   1.0000   1.0000   1.0000   1.0000   1.0000   1.0000
     1.0000   1.0000   1.0000   1.0000   1.0000   1.0000   1.0000   1.0000
     1.0000   1.0000   1.0000   1.0000   1.0000   1.0000   1.0000   1.0000
     1.0000   1.0000   1.0000   1.0000   1.0000   1.0000   1.0000   1.0000
     1.0000   1.0000   1.0000   1.0000   1.0000   1.0000   1.0000   1.0000
     1.0000   1.0000   1.0000   1.0000   1.0000   1.0000   1.0000   1.0000
     1.0000   1.0000   1.0000   1.0000   1.0000   1.0000   1.0000   1.0000
     1.0000   1.0000   1.0000   1.0000   1.0000   1.0000   1.0000   1.0000
     1.0000   1.0000   1.0000   1.0000   1.0000   1.0000   1.0000   1.0000
     1.0000   1.0000   1.0000   1.0000   1.0000   1.0000   1.0000   1.0000
     1.0000   1.0000   1.0000   1.0000   1.0000   1.0000   1.0000   1.0000
     1.0000   1.0000   1.0000   1.0000   1.0000   1.0000   1.0000   1.0000
     1.0000   1.0000   1.0000   1.0000   1.0000   1.0000   1.0000   1.0000
     1.0000   1.0000   1.0000   1.0000   1.0000   1.0000   1.0000   1.0000
     1.0000   1.0000

          k = 0.0000 0.0000-0.3097 ( 17624 PWs)   bands (ev):

   -10.9552 -10.9552 -10.6675 -10.6675 -10.5201 -10.5201 -10.5201 -10.5201
   -10.3661 -10.3661 -10.3487 -10.3487 -10.3487 -10.3487 -10.1825 -10.1825
   -10.1825 -10.1825   0.9620   0.9620   0.9620   0.9620   1.0113   1.0113
     1.0113   1.0113   1.1297   1.1297   1.2878   1.2878   1.2878   1.2878
     1.3102   1.3102   1.3169   1.3169   1.3225   1.3225   1.3225   1.3225
     1.3852   1.3852   1.3852   1.3852   1.4826   1.4826   1.4826   1.4826
     1.5395   1.5395   1.5395   1.5395   1.6841   1.6841   1.6841   1.6841
     1.6874   1.6874   1.6874   1.6874   1.6945   1.6945   1.6945   1.6945
     1.8679   1.8679   1.8679   1.8679   1.8969   1.8969   1.8969   1.8969
     2.3853   2.3853   2.3853   2.3853   2.4460   2.4460   2.4460   2.4460
     2.5083   2.5083   2.5083   2.5083   2.5468   2.5468   2.5468   2.5468
     2.5702   2.5702   2.5702   2.5702   2.5851   2.5851   2.5851   2.5851
     2.6172   2.6172   2.6172   2.6172   2.6425   2.6425   2.6425   2.6425
     2.7606   2.7606   2.7606   2.7606   3.2007   3.2007   3.3424   3.3424
     3.3424   3.3424   3.8757   3.8757   3.8757   3.8757   3.9351   3.9351
     3.9351   3.9351   4.6229   4.6229   4.6229   4.6229   4.6601   4.6601
     5.1856   5.1856   5.1856   5.1856   5.5303   5.5303   5.5303   5.5303
     5.7224   5.7224   5.7224   5.7224   6.1085   6.1085   6.1085   6.1085
     6.1772   6.1772   6.1772   6.1772   6.2254   6.2254   6.2254   6.2254
     6.2429   6.2429   6.5108   6.5108   6.5108   6.5108   6.8374   6.8374
     6.8374   6.8374

     occupation numbers 
     1.0000   1.0000   1.0000   1.0000   1.0000   1.0000   1.0000   1.0000
     1.0000   1.0000   1.0000   1.0000   1.0000   1.0000   1.0000   1.0000
     1.0000   1.0000   1.0000   1.0000   1.0000   1.0000   1.0000   1.0000
     1.0000   1.0000   1.0000   1.0000   1.0000   1.0000   1.0000   1.0000
     1.0000   1.0000   1.0000   1.0000   1.0000   1.0000   1.0000   1.0000
     1.0000   1.0000   1.0000   1.0000   1.0000   1.0000   1.0000   1.0000
     1.0000   1.0000   1.0000   1.0000   1.0000   1.0000   1.0000   1.0000
     1.0000   1.0000   1.0000   1.0000   1.0000   1.0000   1.0000   1.0000
     1.0000   1.0000   1.0000   1.0000   1.0000   1.0000   1.0000   1.0000
     1.0000   1.0000   1.0000   1.0000   1.0000   1.0000   1.0000   1.0000
     1.0000   1.0000   1.0000   1.0000   1.0000   1.0000   1.0000   1.0000
     1.0000   1.0000   1.0000   1.0000   1.0000   1.0000   1.0000   1.0000
     1.0000   1.0000   1.0000   1.0000   1.0000   1.0000   1.0000   1.0000
     1.0000   1.0000   1.0000   1.0000   1.0000   1.0000   1.0000   1.0000
     1.0000   1.0000   1.0000   1.0000   1.0000   1.0000   1.0000   1.0000
     1.0000   1.0000   1.0000   1.0000   1.0000   1.0000   1.0000   1.0000
     1.0000   1.0000   1.0000   1.0000   1.0000   1.0000   1.0000   1.0000
     1.0000   1.0000   1.0000   1.0000   1.0000   1.0000   1.0000   1.0000
     1.0000   1.0000   1.0000   1.0000   1.0000   1.0000   1.0000   1.0000
     1.0000   1.0000   1.0000   1.0000   1.0000   1.0000   1.0000   1.0000
     1.0000   1.0000

          k = 0.0000 0.5774 0.0000 ( 17707 PWs)   bands (ev):

   -10.8594 -10.7128 -10.7128 -10.6322 -10.5179 -10.5179 -10.4121 -10.4121
   -10.3567 -10.2962 -10.2962 -10.2905 -10.2905 -10.2581 -10.1859 -10.1859
   -10.1782 -10.1368   1.0368   1.0368   1.0820   1.0820   1.1038   1.1038
     1.1268   1.1268   1.1443   1.1443   1.1448   1.1787   1.1968   1.1968
     1.2098   1.3347   1.3939   1.4175   1.4331   1.4331   1.4425   1.4425
     1.4529   1.4978   1.5169   1.5169   1.5220   1.5220   1.5272   1.5381
     1.5381   1.5437   1.5437   1.5839   1.5839   1.5839   1.5845   1.6182
     1.6647   1.6853   1.6853   1.7338   1.7338   1.7417   1.7417   1.7926
     1.8373   1.8904   1.8904   1.9133   1.9133   1.9688   2.0460   2.1149
     2.3226   2.3719   2.4055   2.4269   2.4473   2.4609   2.4609   2.4695
     2.4695   2.4731   2.4884   2.4884   2.4958   2.4958   2.5183   2.5183
     2.5677   2.5677   2.5935   2.5935   2.6056   2.6056   2.6172   2.6172
     2.6358   2.6485   2.6725   2.6725   2.6836   2.6913   2.6913   2.7479
     2.8116   2.8116   2.8198   2.8614   2.8732   3.0203   3.0747   3.2568
     3.2568   3.5916   3.5916   3.6813   3.8659   3.8659   3.9342   3.9342
     4.1030   4.4220   4.4227   4.4657   4.4657   4.5350   4.5350   4.6354
     4.9825   4.9825   5.0817   5.0817   5.1229   5.1229   5.2256   5.2290
     5.3664   5.3664   5.3813   5.3813   5.5974   5.5974   5.6135   5.7793
     5.7885   5.7975   5.8447   5.8447   5.9570   5.9570   6.0234   6.0234
     6.0904   6.0904   6.2536   6.2837   6.2837   6.2863   6.4800   6.4800
     6.6256   6.7030

     occupation numbers 
     1.0000   1.0000   1.0000   1.0000   1.0000   1.0000   1.0000   1.0000
     1.0000   1.0000   1.0000   1.0000   1.0000   1.0000   1.0000   1.0000
     1.0000   1.0000   1.0000   1.0000   1.0000   1.0000   1.0000   1.0000
     1.0000   1.0000   1.0000   1.0000   1.0000   1.0000   1.0000   1.0000
     1.0000   1.0000   1.0000   1.0000   1.0000   1.0000   1.0000   1.0000
     1.0000   1.0000   1.0000   1.0000   1.0000   1.0000   1.0000   1.0000
     1.0000   1.0000   1.0000   1.0000   1.0000   1.0000   1.0000   1.0000
     1.0000   1.0000   1.0000   1.0000   1.0000   1.0000   1.0000   1.0000
     1.0000   1.0000   1.0000   1.0000   1.0000   1.0000   1.0000   1.0000
     1.0000   1.0000   1.0000   1.0000   1.0000   1.0000   1.0000   1.0000
     1.0000   1.0000   1.0000   1.0000   1.0000   1.0000   1.0000   1.0000
     1.0000   1.0000   1.0000   1.0000   1.0000   1.0000   1.0000   1.0000
     1.0000   1.0000   1.0000   1.0000   1.0000   1.0000   1.0000   1.0000
     1.0000   1.0000   1.0000   1.0000   1.0000   1.0000   1.0000   1.0000
     1.0000   1.0000   1.0000   1.0000   1.0000   1.0000   1.0000   1.0000
     1.0000   1.0000   1.0000   1.0000   1.0000   1.0000   1.0000   1.0000
     1.0000   1.0000   1.0000   1.0000   1.0000   1.0000   1.0000   1.0000
     1.0000   1.0000   1.0000   1.0000   1.0000   1.0000   1.0000   1.0000
     1.0000   1.0000   1.0000   1.0000   1.0000   1.0000   1.0000   1.0000
     1.0000   1.0000   1.0000   1.0000   1.0000   1.0000   1.0000   1.0000
     1.0000   1.0000

          k = 0.0000 0.5774-0.3097 ( 17698 PWs)   bands (ev):

   -10.8203 -10.8203 -10.6016 -10.6016 -10.5637 -10.5637 -10.4039 -10.4039
   -10.3402 -10.3402 -10.2996 -10.2996 -10.2391 -10.2391 -10.2082 -10.2082
   -10.1495 -10.1495   1.0209   1.0209   1.0549   1.0549   1.0856   1.0856
     1.1086   1.1086   1.1496   1.1496   1.1780   1.1780   1.2850   1.2850
     1.3367   1.3367   1.3762   1.3762   1.4035   1.4035   1.4548   1.4548
     1.4698   1.4698   1.4827   1.4827   1.5188   1.5188   1.5328   1.5328
     1.5573   1.5573   1.5637   1.5637   1.5905   1.5905   1.5969   1.5969
     1.6623   1.6623   1.6781   1.6781   1.7730   1.7730   1.8092   1.8092
     1.8094   1.8094   1.8597   1.8597   1.9824   1.9824   2.0290   2.0290
     2.3642   2.3643   2.4014   2.4014   2.4172   2.4172   2.4440   2.4440
     2.4789   2.4789   2.5393   2.5393   2.5440   2.5440   2.5485   2.5485
     2.5519   2.5519   2.5532   2.5532   2.5835   2.5835   2.6255   2.6255
     2.6364   2.6364   2.6724   2.6725   2.6804   2.6804   2.7390   2.7390
     2.7501   2.7501   2.8696   2.8696   3.1154   3.1154   3.2560   3.2560
     3.3752   3.3752   3.4275   3.4275   3.6971   3.6971   4.2091   4.2091
     4.2135   4.2135   4.5550   4.5550   4.6007   4.6007   4.6101   4.6101
     4.6168   4.6168   4.9299   4.9299   5.2327   5.2327   5.2750   5.2750
     5.5300   5.5300   5.5972   5.5972   5.6314   5.6314   5.6422   5.6422
     5.7236   5.7236   5.7986   5.7986   5.8519   5.8520   5.9119   5.9119
     6.1732   6.1732   6.2537   6.2537   6.2738   6.2738   6.5472   6.5472
     6.6436   6.6436

     occupation numbers 
     1.0000   1.0000   1.0000   1.0000   1.0000   1.0000   1.0000   1.0000
     1.0000   1.0000   1.0000   1.0000   1.0000   1.0000   1.0000   1.0000
     1.0000   1.0000   1.0000   1.0000   1.0000   1.0000   1.0000   1.0000
     1.0000   1.0000   1.0000   1.0000   1.0000   1.0000   1.0000   1.0000
     1.0000   1.0000   1.0000   1.0000   1.0000   1.0000   1.0000   1.0000
     1.0000   1.0000   1.0000   1.0000   1.0000   1.0000   1.0000   1.0000
     1.0000   1.0000   1.0000   1.0000   1.0000   1.0000   1.0000   1.0000
     1.0000   1.0000   1.0000   1.0000   1.0000   1.0000   1.0000   1.0000
     1.0000   1.0000   1.0000   1.0000   1.0000   1.0000   1.0000   1.0000
     1.0000   1.0000   1.0000   1.0000   1.0000   1.0000   1.0000   1.0000
     1.0000   1.0000   1.0000   1.0000   1.0000   1.0000   1.0000   1.0000
     1.0000   1.0000   1.0000   1.0000   1.0000   1.0000   1.0000   1.0000
     1.0000   1.0000   1.0000   1.0000   1.0000   1.0000   1.0000   1.0000
     1.0000   1.0000   1.0000   1.0000   1.0000   1.0000   1.0000   1.0000
     1.0000   1.0000   1.0000   1.0000   1.0000   1.0000   1.0000   1.0000
     1.0000   1.0000   1.0000   1.0000   1.0000   1.0000   1.0000   1.0000
     1.0000   1.0000   1.0000   1.0000   1.0000   1.0000   1.0000   1.0000
     1.0000   1.0000   1.0000   1.0000   1.0000   1.0000   1.0000   1.0000
     1.0000   1.0000   1.0000   1.0000   1.0000   1.0000   1.0000   1.0000
     1.0000   1.0000   1.0000   1.0000   1.0000   1.0000   1.0000   1.0000
     1.0000   1.0000

          k = 0.0000 1.1547 0.0000 ( 17745 PWs)   bands (ev):

   -10.5470 -10.5470 -10.4471 -10.4471 -10.4471 -10.4471 -10.2520 -10.2520
   -10.2520 -10.2520 -10.1943 -10.1943 -10.1872 -10.1872 -10.1872 -10.1872
   -10.1575 -10.1575   0.9558   0.9558   0.9558   0.9558   1.0419   1.0419
     1.0906   1.0906   1.0906   1.0906   1.2800   1.3780   1.3780   1.3917
     1.3917   1.4031   1.4031   1.4031   1.4031   1.5196   1.5196   1.5967
     1.5967   1.5967   1.5967   1.6673   1.6673   1.6673   1.6673   1.6688
     1.6688   1.7170   1.7170   1.7197   1.7197   1.7583   1.7583   1.7583
     1.7583   1.7846   1.7846   1.7846   1.7846   1.9005   1.9005   2.0258
     2.0312   2.0312   2.0771   2.0771   2.0771   2.0771   2.2690   2.2690
     2.3484   2.3484   2.3627   2.4064   2.4064   2.4607   2.4607   2.4787
     2.4787   2.4787   2.4787   2.4858   2.4988   2.4988   2.5316   2.5316
     2.5339   2.5339   2.5339   2.5339   2.6096   2.6096   2.6096   2.6096
     2.6552   2.6552   2.6819   2.6819   2.6819   2.6819   2.8130   2.8131
     2.8530   2.8530   2.8530   2.8530   3.0838   3.0838   3.2410   3.2872
     3.2872   3.2872   3.2872   3.4120   3.4120   3.6415   3.6415   3.6415
     3.6415   3.7941   3.7941   3.8035   3.8035   4.0473   4.0473   4.0473
     4.0473   4.6506   4.6506   4.7452   4.7452   4.9084   4.9084   4.9084
     4.9084   5.0283   5.0283   5.0972   5.0972   5.2182   5.4185   5.4185
     5.4185   5.4185   5.5234   5.5234   5.5234   5.5234   5.9792   5.9792
     5.9792   5.9792   6.0154   6.0154   6.0154   6.0154   6.0931   6.0931
     6.3016   6.3016

     occupation numbers 
     1.0000   1.0000   1.0000   1.0000   1.0000   1.0000   1.0000   1.0000
     1.0000   1.0000   1.0000   1.0000   1.0000   1.0000   1.0000   1.0000
     1.0000   1.0000   1.0000   1.0000   1.0000   1.0000   1.0000   1.0000
     1.0000   1.0000   1.0000   1.0000   1.0000   1.0000   1.0000   1.0000
     1.0000   1.0000   1.0000   1.0000   1.0000   1.0000   1.0000   1.0000
     1.0000   1.0000   1.0000   1.0000   1.0000   1.0000   1.0000   1.0000
     1.0000   1.0000   1.0000   1.0000   1.0000   1.0000   1.0000   1.0000
     1.0000   1.0000   1.0000   1.0000   1.0000   1.0000   1.0000   1.0000
     1.0000   1.0000   1.0000   1.0000   1.0000   1.0000   1.0000   1.0000
     1.0000   1.0000   1.0000   1.0000   1.0000   1.0000   1.0000   1.0000
     1.0000   1.0000   1.0000   1.0000   1.0000   1.0000   1.0000   1.0000
     1.0000   1.0000   1.0000   1.0000   1.0000   1.0000   1.0000   1.0000
     1.0000   1.0000   1.0000   1.0000   1.0000   1.0000   1.0000   1.0000
     1.0000   1.0000   1.0000   1.0000   1.0000   1.0000   1.0000   1.0000
     1.0000   1.0000   1.0000   1.0000   1.0000   1.0000   1.0000   1.0000
     1.0000   1.0000   1.0000   1.0000   1.0000   1.0000   1.0000   1.0000
     1.0000   1.0000   1.0000   1.0000   1.0000   1.0000   1.0000   1.0000
     1.0000   1.0000   1.0000   1.0000   1.0000   1.0000   1.0000   1.0000
     1.0000   1.0000   1.0000   1.0000   1.0000   1.0000   1.0000   1.0000
     1.0000   1.0000   1.0000   1.0000   1.0000   1.0000   1.0000   1.0000
     1.0000   1.0000

          k = 0.0000 1.1547-0.3097 ( 17706 PWs)   bands (ev):

   -10.5201 -10.5201 -10.5201 -10.5201 -10.3487 -10.3487 -10.3487 -10.3487
   -10.1920 -10.1920 -10.1920 -10.1920 -10.1849 -10.1849 -10.1825 -10.1825
   -10.1825 -10.1825   0.9620   0.9620   0.9620   0.9620   1.0113   1.0113
     1.0113   1.0113   1.2878   1.2878   1.2878   1.2878   1.3081   1.3081
     1.3212   1.3212   1.5305   1.5305   1.5395   1.5395   1.5395   1.5395
     1.5787   1.5787   1.5787   1.5787   1.6841   1.6841   1.6841   1.6841
     1.6874   1.6874   1.6874   1.6874   1.6945   1.6945   1.6945   1.6945
     1.8679   1.8679   1.8679   1.8679   1.8969   1.8969   1.8969   1.8969
     1.9187   1.9187   2.0556   2.0556   2.1585   2.1585   2.1585   2.1585
     2.3793   2.3793   2.3853   2.3853   2.3853   2.3853   2.4346   2.4346
     2.4792   2.4792   2.5083   2.5083   2.5083   2.5083   2.5702   2.5702
     2.5702   2.5702   2.5851   2.5851   2.5851   2.5851   2.6425   2.6425
     2.6425   2.6425   2.6812   2.6812   2.6812   2.6812   2.7606   2.7606
     2.7606   2.7606   2.9255   2.9255   3.2429   3.2429   3.3424   3.3424
     3.3424   3.3424   3.3685   3.3685   3.3685   3.3685   3.4090   3.4090
     3.8757   3.8757   3.8757   3.8757   3.9351   3.9351   3.9351   3.9351
     4.2827   4.2827   4.6229   4.6229   4.6229   4.6229   5.0893   5.0893
     5.1856   5.1856   5.1856   5.1856   5.1982   5.1982   5.1982   5.1982
     5.5303   5.5303   5.5303   5.5303   5.6818   5.6818   5.7224   5.7224
     5.7224   5.7224   6.1085   6.1085   6.1085   6.1085   6.2254   6.2254
     6.2254   6.2254

     occupation numbers 
     1.0000   1.0000   1.0000   1.0000   1.0000   1.0000   1.0000   1.0000
     1.0000   1.0000   1.0000   1.0000   1.0000   1.0000   1.0000   1.0000
     1.0000   1.0000   1.0000   1.0000   1.0000   1.0000   1.0000   1.0000
     1.0000   1.0000   1.0000   1.0000   1.0000   1.0000   1.0000   1.0000
     1.0000   1.0000   1.0000   1.0000   1.0000   1.0000   1.0000   1.0000
     1.0000   1.0000   1.0000   1.0000   1.0000   1.0000   1.0000   1.0000
     1.0000   1.0000   1.0000   1.0000   1.0000   1.0000   1.0000   1.0000
     1.0000   1.0000   1.0000   1.0000   1.0000   1.0000   1.0000   1.0000
     1.0000   1.0000   1.0000   1.0000   1.0000   1.0000   1.0000   1.0000
     1.0000   1.0000   1.0000   1.0000   1.0000   1.0000   1.0000   1.0000
     1.0000   1.0000   1.0000   1.0000   1.0000   1.0000   1.0000   1.0000
     1.0000   1.0000   1.0000   1.0000   1.0000   1.0000   1.0000   1.0000
     1.0000   1.0000   1.0000   1.0000   1.0000   1.0000   1.0000   1.0000
     1.0000   1.0000   1.0000   1.0000   1.0000   1.0000   1.0000   1.0000
     1.0000   1.0000   1.0000   1.0000   1.0000   1.0000   1.0000   1.0000
     1.0000   1.0000   1.0000   1.0000   1.0000   1.0000   1.0000   1.0000
     1.0000   1.0000   1.0000   1.0000   1.0000   1.0000   1.0000   1.0000
     1.0000   1.0000   1.0000   1.0000   1.0000   1.0000   1.0000   1.0000
     1.0000   1.0000   1.0000   1.0000   1.0000   1.0000   1.0000   1.0000
     1.0000   1.0000   1.0000   1.0000   1.0000   1.0000   1.0000   1.0000
     1.0000   1.0000

          k = 0.0000-1.7321 0.0000 ( 17766 PWs)   bands (ev):

   -10.3567 -10.3567 -10.3493 -10.2962 -10.2962 -10.2962 -10.2962 -10.2914
   -10.2914 -10.1868 -10.1868 -10.1859 -10.1859 -10.1859 -10.1859 -10.1407
   -10.1368 -10.1368   0.9825   0.9825   1.0471   1.0471   1.1038   1.1038
     1.1038   1.1038   1.1141   1.1968   1.1968   1.1968   1.1968   1.2098
     1.2098   1.3230   1.4529   1.4529   1.5609   1.5839   1.5839   1.5839
     1.5839   1.5839   1.5839   1.6641   1.6641   1.7338   1.7338   1.7338
     1.7338   1.7926   1.7926   1.8687   1.8687   1.8803   1.8803   1.8904
     1.8904   1.8904   1.8904   1.9133   1.9133   1.9133   1.9133   1.9178
     1.9178   1.9413   1.9538   2.0460   2.0460   2.0753   2.1149   2.1149
     2.4055   2.4055   2.4642   2.4731   2.4731   2.4958   2.4958   2.4958
     2.4958   2.5677   2.5677   2.5677   2.5677   2.5909   2.6003   2.6003
     2.6268   2.6268   2.6330   2.6330   2.6705   2.6836   2.6836   2.6913
     2.6913   2.6913   2.6913   2.7318   2.7318   2.7418   2.8116   2.8116
     2.8116   2.8116   2.8732   2.8732   3.0747   3.0747   3.1456   3.1456
     3.2047   3.2568   3.2568   3.2568   3.2568   3.2754   3.2754   3.4268
     3.5916   3.5916   3.5916   3.5916   3.6813   3.6813   4.1030   4.1030
     4.1406   4.4220   4.4220   4.5350   4.5350   4.5350   4.5350   4.7139
     5.0141   5.0141   5.0817   5.0817   5.0817   5.0817   5.0927   5.0927
     5.3813   5.3813   5.3813   5.3813   5.6135   5.6135   5.6402   5.7659
     5.7659   5.7926   5.7926   5.7975   5.7975   5.8447   5.8447   5.8447
     5.8447   6.0830

     occupation numbers 
     1.0000   1.0000   1.0000   1.0000   1.0000   1.0000   1.0000   1.0000
     1.0000   1.0000   1.0000   1.0000   1.0000   1.0000   1.0000   1.0000
     1.0000   1.0000   1.0000   1.0000   1.0000   1.0000   1.0000   1.0000
     1.0000   1.0000   1.0000   1.0000   1.0000   1.0000   1.0000   1.0000
     1.0000   1.0000   1.0000   1.0000   1.0000   1.0000   1.0000   1.0000
     1.0000   1.0000   1.0000   1.0000   1.0000   1.0000   1.0000   1.0000
     1.0000   1.0000   1.0000   1.0000   1.0000   1.0000   1.0000   1.0000
     1.0000   1.0000   1.0000   1.0000   1.0000   1.0000   1.0000   1.0000
     1.0000   1.0000   1.0000   1.0000   1.0000   1.0000   1.0000   1.0000
     1.0000   1.0000   1.0000   1.0000   1.0000   1.0000   1.0000   1.0000
     1.0000   1.0000   1.0000   1.0000   1.0000   1.0000   1.0000   1.0000
     1.0000   1.0000   1.0000   1.0000   1.0000   1.0000   1.0000   1.0000
     1.0000   1.0000   1.0000   1.0000   1.0000   1.0000   1.0000   1.0000
     1.0000   1.0000   1.0000   1.0000   1.0000   1.0000   1.0000   1.0000
     1.0000   1.0000   1.0000   1.0000   1.0000   1.0000   1.0000   1.0000
     1.0000   1.0000   1.0000   1.0000   1.0000   1.0000   1.0000   1.0000
     1.0000   1.0000   1.0000   1.0000   1.0000   1.0000   1.0000   1.0000
     1.0000   1.0000   1.0000   1.0000   1.0000   1.0000   1.0000   1.0000
     1.0000   1.0000   1.0000   1.0000   1.0000   1.0000   1.0000   1.0000
     1.0000   1.0000   1.0000   1.0000   1.0000   1.0000   1.0000   1.0000
     1.0000   1.0000

          k = 0.0000-1.7321-0.3097 ( 17788 PWs)   bands (ev):

   -10.3402 -10.3402 -10.3402 -10.3402 -10.3335 -10.3335 -10.2391 -10.2391
   -10.2391 -10.2391 -10.2372 -10.2372 -10.1527 -10.1527 -10.1495 -10.1495
   -10.1495 -10.1495   0.9527   0.9527   1.0697   1.0697   1.0856   1.0856
     1.0856   1.0856   1.1780   1.1780   1.1780   1.1780   1.2255   1.2255
     1.3762   1.3762   1.3762   1.3762   1.5637   1.5637   1.5637   1.5637
     1.5871   1.5871   1.6623   1.6623   1.6623   1.6623   1.7730   1.7730
     1.7730   1.7730   1.7821   1.7821   1.8586   1.8586   1.8597   1.8597
     1.8597   1.8597   1.9133   1.9133   1.9195   1.9195   1.9824   1.9824
     1.9824   1.9824   2.0290   2.0290   2.0290   2.0290   2.0308   2.0308
     2.4172   2.4172   2.4172   2.4172   2.5266   2.5266   2.5393   2.5393
     2.5393   2.5393   2.5532   2.5532   2.5532   2.5532   2.5930   2.5930
     2.6133   2.6133   2.6574   2.6574   2.6804   2.6804   2.6804   2.6804
     2.6978   2.6978   2.7390   2.7390   2.7390   2.7390   2.7411   2.7411
     2.8696   2.8696   2.8696   2.8696   3.1154   3.1154   3.1154   3.1154
     3.1660   3.1660   3.1878   3.1878   3.3761   3.3761   3.4275   3.4275
     3.4275   3.4275   3.6971   3.6971   3.6971   3.6971   4.2091   4.2091
     4.2091   4.2091   4.4237   4.4237   4.6168   4.6168   4.6168   4.6168
     4.8200   4.8200   4.9299   4.9299   4.9299   4.9299   5.4385   5.4385
     5.5539   5.5539   5.5972   5.5972   5.5972   5.5972   5.6422   5.6422
     5.6422   5.6422   5.7267   5.7267   5.7986   5.7986   5.7986   5.7986
     5.9986   5.9987

     occupation numbers 
     1.0000   1.0000   1.0000   1.0000   1.0000   1.0000   1.0000   1.0000
     1.0000   1.0000   1.0000   1.0000   1.0000   1.0000   1.0000   1.0000
     1.0000   1.0000   1.0000   1.0000   1.0000   1.0000   1.0000   1.0000
     1.0000   1.0000   1.0000   1.0000   1.0000   1.0000   1.0000   1.0000
     1.0000   1.0000   1.0000   1.0000   1.0000   1.0000   1.0000   1.0000
     1.0000   1.0000   1.0000   1.0000   1.0000   1.0000   1.0000   1.0000
     1.0000   1.0000   1.0000   1.0000   1.0000   1.0000   1.0000   1.0000
     1.0000   1.0000   1.0000   1.0000   1.0000   1.0000   1.0000   1.0000
     1.0000   1.0000   1.0000   1.0000   1.0000   1.0000   1.0000   1.0000
     1.0000   1.0000   1.0000   1.0000   1.0000   1.0000   1.0000   1.0000
     1.0000   1.0000   1.0000   1.0000   1.0000   1.0000   1.0000   1.0000
     1.0000   1.0000   1.0000   1.0000   1.0000   1.0000   1.0000   1.0000
     1.0000   1.0000   1.0000   1.0000   1.0000   1.0000   1.0000   1.0000
     1.0000   1.0000   1.0000   1.0000   1.0000   1.0000   1.0000   1.0000
     1.0000   1.0000   1.0000   1.0000   1.0000   1.0000   1.0000   1.0000
     1.0000   1.0000   1.0000   1.0000   1.0000   1.0000   1.0000   1.0000
     1.0000   1.0000   1.0000   1.0000   1.0000   1.0000   1.0000   1.0000
     1.0000   1.0000   1.0000   1.0000   1.0000   1.0000   1.0000   1.0000
     1.0000   1.0000   1.0000   1.0000   1.0000   1.0000   1.0000   1.0000
     1.0000   1.0000   1.0000   1.0000   1.0000   1.0000   1.0000   1.0000
     1.0000   1.0000

          k =-0.5000-0.2887 0.0000 ( 17658 PWs)   bands (ev):

   -10.8594 -10.8594 -10.7128 -10.7128 -10.7128 -10.7128 -10.4121 -10.4121
   -10.4121 -10.4121 -10.3493 -10.2914 -10.2914 -10.2581 -10.2581 -10.1868
   -10.1868 -10.1407   0.9825   0.9825   1.0471   1.0471   1.0820   1.0820
     1.0820   1.0820   1.1141   1.1443   1.1443   1.1443   1.1443   1.1787
     1.1787   1.3230   1.3939   1.3939   1.4175   1.4175   1.4331   1.4331
     1.4331   1.4331   1.4425   1.4425   1.4425   1.4425   1.4978   1.4978
     1.5220   1.5220   1.5220   1.5220   1.5437   1.5437   1.5437   1.5437
     1.5609   1.6182   1.6182   1.6641   1.6641   1.6647   1.6647   1.8687
     1.8687   1.8803   1.8803   1.9178   1.9178   1.9413   1.9538   2.0753
     2.3719   2.3719   2.4269   2.4269   2.4642   2.4695   2.4695   2.4695
     2.4695   2.4884   2.4884   2.4884   2.4884   2.5909   2.5935   2.5935
     2.5935   2.5935   2.6003   2.6003   2.6172   2.6172   2.6172   2.6172
     2.6268   2.6268   2.6330   2.6330   2.6358   2.6358   2.6705   2.7318
     2.7318   2.7418   2.7479   2.7479   2.8614   2.8614   3.1456   3.1456
     3.2047   3.2754   3.2754   3.4268   3.9342   3.9342   3.9342   3.9342
     4.1406   4.7139   5.0141   5.0141   5.0927   5.0927   5.1229   5.1229
     5.1229   5.1229   5.2256   5.2256   5.5974   5.5974   5.5974   5.5974
     5.6402   5.7659   5.7659   5.7793   5.7793   5.7885   5.7885   5.7926
     5.7926   6.0234   6.0234   6.0234   6.0234   6.0830   6.2837   6.2837
     6.2837   6.2837   6.4800   6.4800   6.4800   6.4800   6.6256   6.6256
     6.7030   6.7030

     occupation numbers 
     1.0000   1.0000   1.0000   1.0000   1.0000   1.0000   1.0000   1.0000
     1.0000   1.0000   1.0000   1.0000   1.0000   1.0000   1.0000   1.0000
     1.0000   1.0000   1.0000   1.0000   1.0000   1.0000   1.0000   1.0000
     1.0000   1.0000   1.0000   1.0000   1.0000   1.0000   1.0000   1.0000
     1.0000   1.0000   1.0000   1.0000   1.0000   1.0000   1.0000   1.0000
     1.0000   1.0000   1.0000   1.0000   1.0000   1.0000   1.0000   1.0000
     1.0000   1.0000   1.0000   1.0000   1.0000   1.0000   1.0000   1.0000
     1.0000   1.0000   1.0000   1.0000   1.0000   1.0000   1.0000   1.0000
     1.0000   1.0000   1.0000   1.0000   1.0000   1.0000   1.0000   1.0000
     1.0000   1.0000   1.0000   1.0000   1.0000   1.0000   1.0000   1.0000
     1.0000   1.0000   1.0000   1.0000   1.0000   1.0000   1.0000   1.0000
     1.0000   1.0000   1.0000   1.0000   1.0000   1.0000   1.0000   1.0000
     1.0000   1.0000   1.0000   1.0000   1.0000   1.0000   1.0000   1.0000
     1.0000   1.0000   1.0000   1.0000   1.0000   1.0000   1.0000   1.0000
     1.0000   1.0000   1.0000   1.0000   1.0000   1.0000   1.0000   1.0000
     1.0000   1.0000   1.0000   1.0000   1.0000   1.0000   1.0000   1.0000
     1.0000   1.0000   1.0000   1.0000   1.0000   1.0000   1.0000   1.0000
     1.0000   1.0000   1.0000   1.0000   1.0000   1.0000   1.0000   1.0000
     1.0000   1.0000   1.0000   1.0000   1.0000   1.0000   1.0000   1.0000
     1.0000   1.0000   1.0000   1.0000   1.0000   1.0000   1.0000   1.0000
     1.0000   1.0000

          k =-0.5000-0.2887-0.3097 ( 17640 PWs)   bands (ev):

   -10.8203 -10.8203 -10.8203 -10.8203 -10.5637 -10.5637 -10.5637 -10.5637
   -10.3335 -10.3335 -10.2996 -10.2996 -10.2996 -10.2996 -10.2372 -10.2372
   -10.1527 -10.1527   0.9527   0.9527   1.0549   1.0549   1.0549   1.0549
     1.0697   1.0697   1.1496   1.1496   1.1496   1.1496   1.2255   1.2255
     1.3367   1.3367   1.3367   1.3367   1.4035   1.4035   1.4035   1.4035
     1.4548   1.4548   1.4548   1.4548   1.4698   1.4698   1.4698   1.4698
     1.4827   1.4827   1.4827   1.4827   1.5871   1.5871   1.5905   1.5905
     1.5905   1.5905   1.5969   1.5969   1.5969   1.5969   1.7821   1.7821
     1.8586   1.8586   1.9133   1.9133   1.9195   1.9195   2.0308   2.0308
     2.4014   2.4014   2.4014   2.4014   2.4440   2.4440   2.4440   2.4440
     2.5266   2.5266   2.5440   2.5440   2.5440   2.5440   2.5485   2.5485
     2.5485   2.5485   2.5930   2.5930   2.6133   2.6133   2.6255   2.6255
     2.6255   2.6255   2.6574   2.6574   2.6724   2.6725   2.6725   2.6725
     2.6978   2.6978   2.7411   2.7411   3.1660   3.1660   3.1878   3.1878
     3.2560   3.2560   3.2560   3.2560   3.3761   3.3761   4.4237   4.4237
     4.6007   4.6007   4.6007   4.6007   4.8200   4.8200   5.2750   5.2750
     5.2750   5.2750   5.4385   5.4385   5.5539   5.5539   5.6314   5.6314
     5.6314   5.6314   5.7267   5.7267   5.8519   5.8519   5.8520   5.8520
     5.9119   5.9119   5.9119   5.9119   5.9986   5.9987   6.2537   6.2537
     6.2537   6.2537   6.5472   6.5472   6.5472   6.5472   6.6436   6.6436
     6.6436   6.6436

     occupation numbers 
     1.0000   1.0000   1.0000   1.0000   1.0000   1.0000   1.0000   1.0000
     1.0000   1.0000   1.0000   1.0000   1.0000   1.0000   1.0000   1.0000
     1.0000   1.0000   1.0000   1.0000   1.0000   1.0000   1.0000   1.0000
     1.0000   1.0000   1.0000   1.0000   1.0000   1.0000   1.0000   1.0000
     1.0000   1.0000   1.0000   1.0000   1.0000   1.0000   1.0000   1.0000
     1.0000   1.0000   1.0000   1.0000   1.0000   1.0000   1.0000   1.0000
     1.0000   1.0000   1.0000   1.0000   1.0000   1.0000   1.0000   1.0000
     1.0000   1.0000   1.0000   1.0000   1.0000   1.0000   1.0000   1.0000
     1.0000   1.0000   1.0000   1.0000   1.0000   1.0000   1.0000   1.0000
     1.0000   1.0000   1.0000   1.0000   1.0000   1.0000   1.0000   1.0000
     1.0000   1.0000   1.0000   1.0000   1.0000   1.0000   1.0000   1.0000
     1.0000   1.0000   1.0000   1.0000   1.0000   1.0000   1.0000   1.0000
     1.0000   1.0000   1.0000   1.0000   1.0000   1.0000   1.0000   1.0000
     1.0000   1.0000   1.0000   1.0000   1.0000   1.0000   1.0000   1.0000
     1.0000   1.0000   1.0000   1.0000   1.0000   1.0000   1.0000   1.0000
     1.0000   1.0000   1.0000   1.0000   1.0000   1.0000   1.0000   1.0000
     1.0000   1.0000   1.0000   1.0000   1.0000   1.0000   1.0000   1.0000
     1.0000   1.0000   1.0000   1.0000   1.0000   1.0000   1.0000   1.0000
     1.0000   1.0000   1.0000   1.0000   1.0000   1.0000   1.0000   1.0000
     1.0000   1.0000   1.0000   1.0000   1.0000   1.0000   1.0000   1.0000
     1.0000   1.0000

          k =-0.5000 0.8660 0.0000 ( 17761 PWs)   bands (ev):

   -10.6322 -10.5179 -10.5179 -10.3567 -10.3567 -10.2962 -10.2962 -10.2962
   -10.2962 -10.2905 -10.2905 -10.1859 -10.1859 -10.1859 -10.1859 -10.1782
   -10.1368 -10.1368   1.0368   1.0368   1.1038   1.1038   1.1038   1.1038
     1.1268   1.1268   1.1448   1.1968   1.1968   1.1968   1.1968   1.2098
     1.2098   1.3347   1.4529   1.4529   1.5169   1.5169   1.5272   1.5381
     1.5381   1.5839   1.5839   1.5839   1.5839   1.5839   1.5839   1.5845
     1.6853   1.6853   1.7338   1.7338   1.7338   1.7338   1.7417   1.7417
     1.7926   1.7926   1.8373   1.8904   1.8904   1.8904   1.8904   1.9133
     1.9133   1.9133   1.9133   1.9688   2.0460   2.0460   2.1149   2.1149
     2.3226   2.4055   2.4055   2.4473   2.4609   2.4609   2.4731   2.4731
     2.4958   2.4958   2.4958   2.4958   2.5183   2.5183   2.5677   2.5677
     2.5677   2.5677   2.6056   2.6056   2.6485   2.6725   2.6725   2.6836
     2.6836   2.6913   2.6913   2.6913   2.6913   2.8116   2.8116   2.8116
     2.8116   2.8198   2.8732   2.8732   3.0203   3.0747   3.0747   3.2568
     3.2568   3.2568   3.2568   3.5916   3.5916   3.5916   3.5916   3.6813
     3.6813   3.8659   3.8659   4.1030   4.1030   4.4220   4.4220   4.4227
     4.4657   4.4657   4.5350   4.5350   4.5350   4.5350   4.6354   4.9825
     4.9825   5.0817   5.0817   5.0817   5.0817   5.2290   5.3664   5.3664
     5.3813   5.3813   5.3813   5.3813   5.6135   5.6135   5.7975   5.7975
     5.8447   5.8447   5.8447   5.8447   5.9570   5.9570   6.0904   6.0904
     6.2536   6.2863

     occupation numbers 
     1.0000   1.0000   1.0000   1.0000   1.0000   1.0000   1.0000   1.0000
     1.0000   1.0000   1.0000   1.0000   1.0000   1.0000   1.0000   1.0000
     1.0000   1.0000   1.0000   1.0000   1.0000   1.0000   1.0000   1.0000
     1.0000   1.0000   1.0000   1.0000   1.0000   1.0000   1.0000   1.0000
     1.0000   1.0000   1.0000   1.0000   1.0000   1.0000   1.0000   1.0000
     1.0000   1.0000   1.0000   1.0000   1.0000   1.0000   1.0000   1.0000
     1.0000   1.0000   1.0000   1.0000   1.0000   1.0000   1.0000   1.0000
     1.0000   1.0000   1.0000   1.0000   1.0000   1.0000   1.0000   1.0000
     1.0000   1.0000   1.0000   1.0000   1.0000   1.0000   1.0000   1.0000
     1.0000   1.0000   1.0000   1.0000   1.0000   1.0000   1.0000   1.0000
     1.0000   1.0000   1.0000   1.0000   1.0000   1.0000   1.0000   1.0000
     1.0000   1.0000   1.0000   1.0000   1.0000   1.0000   1.0000   1.0000
     1.0000   1.0000   1.0000   1.0000   1.0000   1.0000   1.0000   1.0000
     1.0000   1.0000   1.0000   1.0000   1.0000   1.0000   1.0000   1.0000
     1.0000   1.0000   1.0000   1.0000   1.0000   1.0000   1.0000   1.0000
     1.0000   1.0000   1.0000   1.0000   1.0000   1.0000   1.0000   1.0000
     1.0000   1.0000   1.0000   1.0000   1.0000   1.0000   1.0000   1.0000
     1.0000   1.0000   1.0000   1.0000   1.0000   1.0000   1.0000   1.0000
     1.0000   1.0000   1.0000   1.0000   1.0000   1.0000   1.0000   1.0000
     1.0000   1.0000   1.0000   1.0000   1.0000   1.0000   1.0000   1.0000
     1.0000   1.0000

          k =-0.5000 0.8660-0.3097 ( 17772 PWs)   bands (ev):

   -10.6016 -10.6016 -10.4039 -10.4039 -10.3402 -10.3402 -10.3402 -10.3402
   -10.2391 -10.2391 -10.2391 -10.2391 -10.2082 -10.2082 -10.1495 -10.1495
   -10.1495 -10.1495   1.0209   1.0209   1.0856   1.0856   1.0856   1.0856
     1.1086   1.1086   1.1780   1.1780   1.1780   1.1780   1.2850   1.2850
     1.3762   1.3762   1.3762   1.3762   1.5188   1.5188   1.5328   1.5328
     1.5573   1.5573   1.5637   1.5637   1.5637   1.5637   1.6623   1.6623
     1.6623   1.6623   1.6781   1.6781   1.7730   1.7730   1.7730   1.7730
     1.8092   1.8092   1.8094   1.8094   1.8597   1.8597   1.8597   1.8597
     1.9824   1.9824   1.9824   1.9824   2.0290   2.0290   2.0290   2.0290
     2.3642   2.3643   2.4172   2.4172   2.4172   2.4172   2.4789   2.4789
     2.5393   2.5393   2.5393   2.5393   2.5519   2.5519   2.5532   2.5532
     2.5532   2.5532   2.5835   2.5835   2.6364   2.6364   2.6804   2.6804
     2.6804   2.6804   2.7390   2.7390   2.7390   2.7390   2.7501   2.7501
     2.8696   2.8696   2.8696   2.8696   3.1154   3.1154   3.1154   3.1154
     3.3752   3.3752   3.4275   3.4275   3.4275   3.4275   3.6971   3.6971
     3.6971   3.6971   4.2091   4.2091   4.2091   4.2091   4.2135   4.2135
     4.5550   4.5550   4.6101   4.6101   4.6168   4.6168   4.6168   4.6168
     4.9299   4.9299   4.9299   4.9299   5.2327   5.2327   5.5300   5.5300
     5.5972   5.5972   5.5972   5.5972   5.6422   5.6422   5.6422   5.6422
     5.7236   5.7236   5.7986   5.7986   5.7986   5.7986   6.1732   6.1732
     6.2738   6.2738

     occupation numbers 
     1.0000   1.0000   1.0000   1.0000   1.0000   1.0000   1.0000   1.0000
     1.0000   1.0000   1.0000   1.0000   1.0000   1.0000   1.0000   1.0000
     1.0000   1.0000   1.0000   1.0000   1.0000   1.0000   1.0000   1.0000
     1.0000   1.0000   1.0000   1.0000   1.0000   1.0000   1.0000   1.0000
     1.0000   1.0000   1.0000   1.0000   1.0000   1.0000   1.0000   1.0000
     1.0000   1.0000   1.0000   1.0000   1.0000   1.0000   1.0000   1.0000
     1.0000   1.0000   1.0000   1.0000   1.0000   1.0000   1.0000   1.0000
     1.0000   1.0000   1.0000   1.0000   1.0000   1.0000   1.0000   1.0000
     1.0000   1.0000   1.0000   1.0000   1.0000   1.0000   1.0000   1.0000
     1.0000   1.0000   1.0000   1.0000   1.0000   1.0000   1.0000   1.0000
     1.0000   1.0000   1.0000   1.0000   1.0000   1.0000   1.0000   1.0000
     1.0000   1.0000   1.0000   1.0000   1.0000   1.0000   1.0000   1.0000
     1.0000   1.0000   1.0000   1.0000   1.0000   1.0000   1.0000   1.0000
     1.0000   1.0000   1.0000   1.0000   1.0000   1.0000   1.0000   1.0000
     1.0000   1.0000   1.0000   1.0000   1.0000   1.0000   1.0000   1.0000
     1.0000   1.0000   1.0000   1.0000   1.0000   1.0000   1.0000   1.0000
     1.0000   1.0000   1.0000   1.0000   1.0000   1.0000   1.0000   1.0000
     1.0000   1.0000   1.0000   1.0000   1.0000   1.0000   1.0000   1.0000
     1.0000   1.0000   1.0000   1.0000   1.0000   1.0000   1.0000   1.0000
     1.0000   1.0000   1.0000   1.0000   1.0000   1.0000   1.0000   1.0000
     1.0000   1.0000

     highest occupied level (ev):     6.8873

!    total energy              =   -3254.73199119 Ry
     estimated scf accuracy    <          1.4E-09 Ry

     The total energy is the sum of the following terms:
     one-electron contribution =   -1390.72600225 Ry
     hartree contribution      =    1064.60119242 Ry
     xc contribution           =    -985.91459349 Ry
     ewald contribution        =   -1942.69258788 Ry

     convergence has been achieved in  32 iterations

     Forces acting on atoms (cartesian axes, Ry/au):

     atom    1 type  1   force =     0.00000065    0.00000038    0.00006092
     atom    2 type  1   force =    -0.00000064   -0.00000037    0.00006045
     atom    3 type  2   force =     0.00000016    0.00000009   -0.00005955
     atom    4 type  2   force =    -0.00000028   -0.00000016   -0.00006186
     atom    5 type  1   force =     0.00000032    0.00000019    0.00005920
     atom    6 type  1   force =     0.00000007    0.00000004    0.00005746
     atom    7 type  2   force =    -0.00000060   -0.00000035   -0.00006322
     atom    8 type  2   force =     0.00000018    0.00000010   -0.00005933
     atom    9 type  1   force =     0.00000028    0.00000016    0.00006265
     atom   10 type  1   force =    -0.00000037   -0.00000021    0.00006613
     atom   11 type  2   force =    -0.00000019   -0.00000011   -0.00006098
     atom   12 type  2   force =    -0.00000015   -0.00000009   -0.00006235
     atom   13 type  1   force =    -0.00000184   -0.00000106    0.00005771
     atom   14 type  1   force =     0.00000051    0.00000030    0.00006236
     atom   15 type  2   force =     0.00000069    0.00000040   -0.00005926
     atom   16 type  2   force =     0.00000126    0.00000072   -0.00006067
     atom   17 type  1   force =    -0.00000028   -0.00000016    0.00006322
     atom   18 type  1   force =    -0.00000237   -0.00000137    0.00005736
     atom   19 type  2   force =    -0.00000005   -0.00000003   -0.00006336
     atom   20 type  2   force =     0.00000049    0.00000029   -0.00006133
     atom   21 type  1   force =     0.00000077    0.00000044    0.00006140
     atom   22 type  1   force =     0.00000156    0.00000090    0.00006546
     atom   23 type  2   force =    -0.00000033   -0.00000019   -0.00006082
     atom   24 type  2   force =    -0.00000001   -0.00000000   -0.00006181
     atom   25 type  1   force =     0.00000156    0.00000090    0.00006015
     atom   26 type  1   force =     0.00000010    0.00000006    0.00005970
     atom   27 type  2   force =    -0.00000170   -0.00000098   -0.00005965
     atom   28 type  2   force =    -0.00000041   -0.00000024   -0.00006001
     atom   29 type  1   force =     0.00000006    0.00000004    0.00006109
     atom   30 type  1   force =     0.00000239    0.00000138    0.00005821
     atom   31 type  2   force =     0.00000036    0.00000021   -0.00006281
     atom   32 type  2   force =    -0.00000036   -0.00000021   -0.00006137
     atom   33 type  1   force =    -0.00000045   -0.00000026    0.00006370
     atom   34 type  1   force =    -0.00000178   -0.00000103    0.00006458
     atom   35 type  2   force =    -0.00000038   -0.00000022   -0.00006054
     atom   36 type  2   force =     0.00000079    0.00000045   -0.00006283
     The non-local contrib.  to forces
     atom    1 type  1   force =     0.00000081    0.00000047   -0.00483391
     atom    2 type  1   force =    -0.00000004   -0.00000002   -0.00483428
     atom    3 type  2   force =     0.00000053    0.00000031    0.00575646
     atom    4 type  2   force =    -0.00000076   -0.00000044    0.00575321
     atom    5 type  1   force =     0.00000074    0.00000043   -0.00483628
     atom    6 type  1   force =    -0.00000007   -0.00000004   -0.00483798
     atom    7 type  2   force =    -0.00000092   -0.00000053    0.00575127
     atom    8 type  2   force =     0.00000028    0.00000016    0.00575683
     atom    9 type  1   force =     0.00000022    0.00000013   -0.00483162
     atom   10 type  1   force =    -0.00000010   -0.00000006   -0.00482829
     atom   11 type  2   force =    -0.00000019   -0.00000011    0.00575398
     atom   12 type  2   force =     0.00000000    0.00000000    0.00575201
     atom   13 type  1   force =    -0.00000242   -0.00000140   -0.00483698
     atom   14 type  1   force =     0.00000016    0.00000009   -0.00483251
     atom   15 type  2   force =     0.00000043    0.00000025    0.00575671
     atom   16 type  2   force =     0.00000134    0.00000078    0.00575493
     atom   17 type  1   force =    -0.00000075   -0.00000043   -0.00483198
     atom   18 type  1   force =    -0.00000283   -0.00000163   -0.00483783
     atom   19 type  2   force =    -0.00000022   -0.00000013    0.00575152
     atom   20 type  2   force =     0.00000005    0.00000003    0.00575398
     atom   21 type  1   force =     0.00000059    0.00000034   -0.00483224
     atom   22 type  1   force =     0.00000131    0.00000076   -0.00482846
     atom   23 type  2   force =    -0.00000020   -0.00000012    0.00575402
     atom   24 type  2   force =    -0.00000043   -0.00000025    0.00575266
     atom   25 type  1   force =     0.00000203    0.00000117   -0.00483490
     atom   26 type  1   force =     0.00000007    0.00000004   -0.00483521
     atom   27 type  2   force =    -0.00000199   -0.00000115    0.00575594
     atom   28 type  2   force =    -0.00000023   -0.00000013    0.00575556
     atom   29 type  1   force =    -0.00000008   -0.00000005   -0.00483413
     atom   30 type  1   force =     0.00000295    0.00000170   -0.00483673
     atom   31 type  2   force =     0.00000080    0.00000046    0.00575176
     atom   32 type  2   force =    -0.00000009   -0.00000005    0.00575481
     atom   33 type  1   force =    -0.00000057   -0.00000033   -0.00483029
     atom   34 type  1   force =    -0.00000181   -0.00000105   -0.00482955
     atom   35 type  2   force =     0.00000003    0.00000002    0.00575406
     atom   36 type  2   force =     0.00000118    0.00000068    0.00575193
     The ionic contribution  to forces
     atom    1 type  1   force =     0.00000001    0.00000000    0.06271746
     atom    2 type  1   force =     0.00000000    0.00000000    0.06271750
     atom    3 type  2   force =     0.00000001    0.00000000   -0.06271747
     atom    4 type  2   force =     0.00000000    0.00000000   -0.06271748
     atom    5 type  1   force =     0.00000001    0.00000000    0.06271750
     atom    6 type  1   force =     0.00000000    0.00000000    0.06271746
     atom    7 type  2   force =     0.00000001    0.00000000   -0.06271748
     atom    8 type  2   force =     0.00000000    0.00000000   -0.06271746
     atom    9 type  1   force =     0.00000001    0.00000000    0.06271746
     atom   10 type  1   force =     0.00000000    0.00000000    0.06271746
     atom   11 type  2   force =     0.00000001    0.00000000   -0.06271746
     atom   12 type  2   force =     0.00000000    0.00000000   -0.06271747
     atom   13 type  1   force =    -0.00000001    0.00000000    0.06271746
     atom   14 type  1   force =     0.00000001   -0.00000000    0.06271749
     atom   15 type  2   force =    -0.00000000    0.00000000   -0.06271747
     atom   16 type  2   force =     0.00000000   -0.00000000   -0.06271748
     atom   17 type  1   force =    -0.00000001    0.00000000    0.06271749
     atom   18 type  1   force =     0.00000001   -0.00000000    0.06271745
     atom   19 type  2   force =    -0.00000000    0.00000000   -0.06271748
     atom   20 type  2   force =     0.00000000   -0.00000000   -0.06271746
     atom   21 type  1   force =    -0.00000001    0.00000000    0.06271745
     atom   22 type  1   force =     0.00000001   -0.00000000    0.06271746
     atom   23 type  2   force =    -0.00000000    0.00000000   -0.06271746
     atom   24 type  2   force =     0.00000000   -0.00000000   -0.06271747
     atom   25 type  1   force =    -0.00000000   -0.00000000    0.06271746
     atom   26 type  1   force =    -0.00000001   -0.00000000    0.06271750
     atom   27 type  2   force =    -0.00000000   -0.00000000   -0.06271747
     atom   28 type  2   force =    -0.00000001   -0.00000000   -0.06271748
     atom   29 type  1   force =    -0.00000000   -0.00000000    0.06271750
     atom   30 type  1   force =    -0.00000001   -0.00000000    0.06271746
     atom   31 type  2   force =    -0.00000000   -0.00000000   -0.06271748
     atom   32 type  2   force =    -0.00000001   -0.00000000   -0.06271746
     atom   33 type  1   force =    -0.00000000   -0.00000000    0.06271746
     atom   34 type  1   force =    -0.00000001   -0.00000000    0.06271746
     atom   35 type  2   force =    -0.00000000   -0.00000000   -0.06271746
     atom   36 type  2   force =    -0.00000001   -0.00000000   -0.06271747
     The local contribution  to forces
     atom    1 type  1   force =    -0.00000219   -0.00000126   -0.05828685
     atom    2 type  1   force =     0.00000108    0.00000058   -0.05828595
     atom    3 type  2   force =     0.00000009    0.00000005    0.05696806
     atom    4 type  2   force =     0.00000018    0.00000009    0.05696619
     atom    5 type  1   force =    -0.00000103   -0.00000059   -0.05828248
     atom    6 type  1   force =    -0.00000051   -0.00000035   -0.05827723
     atom    7 type  2   force =    -0.00000071   -0.00000041    0.05696145
     atom    8 type  2   force =     0.00000027    0.00000014    0.05696709
     atom    9 type  1   force =    -0.00000089   -0.00000051   -0.05829059
     atom   10 type  1   force =     0.00000079    0.00000040   -0.05829890
     atom   11 type  2   force =     0.00000015    0.00000008    0.05696605
     atom   12 type  2   force =     0.00000008    0.00000003    0.05696374
     atom   13 type  1   force =     0.00000559    0.00000333   -0.05827848
     atom   14 type  1   force =    -0.00000079   -0.00000056   -0.05828997
     atom   15 type  2   force =     0.00000139    0.00000083    0.05696799
     atom   16 type  2   force =     0.00000124    0.00000069    0.05696742
     atom   17 type  1   force =     0.00000147    0.00000095   -0.05829227
     atom   18 type  1   force =     0.00000715    0.00000403   -0.05827874
     atom   19 type  2   force =    -0.00000011   -0.00000004    0.05696112
     atom   20 type  2   force =     0.00000053    0.00000028    0.05696493
     atom   21 type  1   force =    -0.00000082   -0.00000037   -0.05828948
     atom   22 type  1   force =    -0.00000383   -0.00000231   -0.05829826
     atom   23 type  2   force =    -0.00000052   -0.00000028    0.05696651
     atom   24 type  2   force =    -0.00000035   -0.00000023    0.05696509
     atom   25 type  1   force =    -0.00000424   -0.00000240   -0.05828482
     atom   26 type  1   force =    -0.00000044   -0.00000025   -0.05828314
     atom   27 type  2   force =    -0.00000135   -0.00000076    0.05696756
     atom   28 type  2   force =    -0.00000038   -0.00000022    0.05696810
     atom   29 type  1   force =    -0.00000057   -0.00000028   -0.05828764
     atom   30 type  1   force =    -0.00000658   -0.00000380   -0.05827990
     atom   31 type  2   force =     0.00000106    0.00000062    0.05696182
     atom   32 type  2   force =    -0.00000053   -0.00000030    0.05696423
     atom   33 type  1   force =     0.00000095    0.00000060   -0.05829405
     atom   34 type  1   force =     0.00000378    0.00000218   -0.05829584
     atom   35 type  2   force =    -0.00000011   -0.00000005    0.05696754
     atom   36 type  2   force =     0.00000074    0.00000043    0.05696355
     The core correction contribution to forces
     atom    1 type  1   force =     0.00000005    0.00000003    0.00046403
     atom    2 type  1   force =    -0.00000007   -0.00000004    0.00046404
     atom    3 type  2   force =    -0.00000001   -0.00000001   -0.00006506
     atom    4 type  2   force =     0.00000001    0.00000001   -0.00006502
     atom    5 type  1   force =    -0.00000003   -0.00000002    0.00046407
     atom    6 type  1   force =     0.00000007    0.00000003    0.00046391
     atom    7 type  2   force =     0.00000001    0.00000001   -0.00006499
     atom    8 type  2   force =    -0.00000000   -0.00000000   -0.00006507
     atom    9 type  1   force =     0.00000003    0.00000002    0.00046399
     atom   10 type  1   force =    -0.00000005   -0.00000003    0.00046416
     atom   11 type  2   force =     0.00000000    0.00000000   -0.00006503
     atom   12 type  2   force =     0.00000000    0.00000000   -0.00006500
     atom   13 type  1   force =    -0.00000010   -0.00000004    0.00046384
     atom   14 type  1   force =     0.00000004    0.00000001    0.00046407
     atom   15 type  2   force =    -0.00000001   -0.00000001   -0.00006507
     atom   16 type  2   force =    -0.00000002   -0.00000001   -0.00006504
     atom   17 type  1   force =    -0.00000003   -0.00000001    0.00046419
     atom   18 type  1   force =    -0.00000016   -0.00000011    0.00046401
     atom   19 type  2   force =     0.00000000    0.00000000   -0.00006500
     atom   20 type  2   force =    -0.00000000   -0.00000000   -0.00006503
     atom   21 type  1   force =    -0.00000006   -0.00000002    0.00046403
     atom   22 type  1   force =     0.00000009    0.00000004    0.00046413
     atom   23 type  2   force =     0.00000000    0.00000000   -0.00006503
     atom   24 type  2   force =     0.00000001    0.00000000   -0.00006500
     atom   25 type  1   force =     0.00000003    0.00000002    0.00046403
     atom   26 type  1   force =     0.00000002    0.00000001    0.00046396
     atom   27 type  2   force =     0.00000003    0.00000002   -0.00006506
     atom   28 type  2   force =     0.00000000    0.00000000   -0.00006505
     atom   29 type  1   force =     0.00000006    0.00000004    0.00046416
     atom   30 type  1   force =     0.00000008    0.00000005    0.00046391
     atom   31 type  2   force =    -0.00000001   -0.00000001   -0.00006500
     atom   32 type  2   force =     0.00000000    0.00000000   -0.00006504
     atom   33 type  1   force =     0.00000001    0.00000001    0.00046407
     atom   34 type  1   force =    -0.00000003   -0.00000002    0.00046412
     atom   35 type  2   force =    -0.00000000   -0.00000000   -0.00006503
     atom   36 type  2   force =    -0.00000002   -0.00000001   -0.00006500
     The Hubbard contrib.    to forces
     atom    1 type  1   force =     0.00000000    0.00000000    0.00000000
     atom    2 type  1   force =     0.00000000    0.00000000    0.00000000
     atom    3 type  2   force =     0.00000000    0.00000000    0.00000000
     atom    4 type  2   force =     0.00000000    0.00000000    0.00000000
     atom    5 type  1   force =     0.00000000    0.00000000    0.00000000
     atom    6 type  1   force =     0.00000000    0.00000000    0.00000000
     atom    7 type  2   force =     0.00000000    0.00000000    0.00000000
     atom    8 type  2   force =     0.00000000    0.00000000    0.00000000
     atom    9 type  1   force =     0.00000000    0.00000000    0.00000000
     atom   10 type  1   force =     0.00000000    0.00000000    0.00000000
     atom   11 type  2   force =     0.00000000    0.00000000    0.00000000
     atom   12 type  2   force =     0.00000000    0.00000000    0.00000000
     atom   13 type  1   force =     0.00000000    0.00000000    0.00000000
     atom   14 type  1   force =     0.00000000    0.00000000    0.00000000
     atom   15 type  2   force =     0.00000000    0.00000000    0.00000000
     atom   16 type  2   force =     0.00000000    0.00000000    0.00000000
     atom   17 type  1   force =     0.00000000    0.00000000    0.00000000
     atom   18 type  1   force =     0.00000000    0.00000000    0.00000000
     atom   19 type  2   force =     0.00000000    0.00000000    0.00000000
     atom   20 type  2   force =     0.00000000    0.00000000    0.00000000
     atom   21 type  1   force =     0.00000000    0.00000000    0.00000000
     atom   22 type  1   force =     0.00000000    0.00000000    0.00000000
     atom   23 type  2   force =     0.00000000    0.00000000    0.00000000
     atom   24 type  2   force =     0.00000000    0.00000000    0.00000000
     atom   25 type  1   force =     0.00000000    0.00000000    0.00000000
     atom   26 type  1   force =     0.00000000    0.00000000    0.00000000
     atom   27 type  2   force =     0.00000000    0.00000000    0.00000000
     atom   28 type  2   force =     0.00000000    0.00000000    0.00000000
     atom   29 type  1   force =     0.00000000    0.00000000    0.00000000
     atom   30 type  1   force =     0.00000000    0.00000000    0.00000000
     atom   31 type  2   force =     0.00000000    0.00000000    0.00000000
     atom   32 type  2   force =     0.00000000    0.00000000    0.00000000
     atom   33 type  1   force =     0.00000000    0.00000000    0.00000000
     atom   34 type  1   force =     0.00000000    0.00000000    0.00000000
     atom   35 type  2   force =     0.00000000    0.00000000    0.00000000
     atom   36 type  2   force =     0.00000000    0.00000000    0.00000000
     The SCF correction term to forces
     atom    1 type  1   force =     0.00000202    0.00000117   -0.00000127
     atom    2 type  1   force =    -0.00000154   -0.00000089   -0.00000233
     atom    3 type  2   force =    -0.00000040   -0.00000023   -0.00000299
     atom    4 type  2   force =     0.00000034    0.00000019   -0.00000022
     atom    5 type  1   force =     0.00000069    0.00000040   -0.00000507
     atom    6 type  1   force =     0.00000067    0.00000039   -0.00001016
     atom    7 type  2   force =     0.00000106    0.00000061    0.00000507
     atom    8 type  2   force =    -0.00000032   -0.00000018   -0.00000218
     atom    9 type  1   force =     0.00000096    0.00000056    0.00000195
     atom   10 type  1   force =    -0.00000094   -0.00000054    0.00001024
     atom   11 type  2   force =    -0.00000010   -0.00000006    0.00000002
     atom   12 type  2   force =    -0.00000018   -0.00000011    0.00000290
     atom   13 type  1   force =    -0.00000490   -0.00000283   -0.00000959
     atom   14 type  1   force =     0.00000120    0.00000069    0.00000182
     atom   15 type  2   force =    -0.00000107   -0.00000062   -0.00000289
     atom   16 type  2   force =    -0.00000124   -0.00000072   -0.00000196
     atom   17 type  1   force =    -0.00000096   -0.00000055    0.00000433
     atom   18 type  1   force =    -0.00000643   -0.00000371   -0.00000899
     atom   19 type  2   force =     0.00000033    0.00000019    0.00000502
     atom   20 type  2   force =    -0.00000001   -0.00000001    0.00000079
     atom   21 type  1   force =     0.00000107    0.00000062    0.00000016
     atom   22 type  1   force =     0.00000408    0.00000236    0.00000914
     atom   23 type  2   force =     0.00000044    0.00000025   -0.00000031
     atom   24 type  2   force =     0.00000084    0.00000048    0.00000146
     atom   25 type  1   force =     0.00000377    0.00000218   -0.00000308
     atom   26 type  1   force =     0.00000051    0.00000030   -0.00000487
     atom   27 type  2   force =     0.00000165    0.00000095   -0.00000208
     atom   28 type  2   force =     0.00000025    0.00000014   -0.00000260
     atom   29 type  1   force =     0.00000069    0.00000040   -0.00000025
     atom   30 type  1   force =     0.00000600    0.00000347   -0.00000798
     atom   31 type  2   force =    -0.00000143   -0.00000083    0.00000463
     atom   32 type  2   force =     0.00000031    0.00000018    0.00000062
     atom   33 type  1   force =    -0.00000082   -0.00000047    0.00000504
     atom   34 type  1   force =    -0.00000365   -0.00000211    0.00000694
     atom   35 type  2   force =    -0.00000025   -0.00000014   -0.00000111
     atom   36 type  2   force =    -0.00000106   -0.00000061    0.00000271

     Total force =     0.000368     Total SCF correction =     0.000032

     init_run     :     18.88s CPU     17.45s WALL (       1 calls)
     electrons    :    928.38s CPU    703.91s WALL (       1 calls)
     forces       :     10.01s CPU      8.73s WALL (       1 calls)

     Called by init_run:
     wfcinit      :      7.07s CPU      5.53s WALL (       1 calls)
     wfcinit:atom :      0.05s CPU      0.08s WALL (       2 calls)
     wfcinit:wfcr :      6.74s CPU      5.13s WALL (       2 calls)
     potinit      :      6.53s CPU      6.60s WALL (       1 calls)
     hinit0       :      4.29s CPU      4.33s WALL (       1 calls)

     Called by electrons:
     c_bands      :    841.60s CPU    626.03s WALL (      32 calls)
     sum_band     :     67.26s CPU     57.96s WALL (      32 calls)
     v_of_rho     :     10.22s CPU     10.78s WALL (      33 calls)
     v_h          :      0.72s CPU      0.75s WALL (      33 calls)
     v_xc         :      9.79s CPU     10.36s WALL (      34 calls)
     newd         :      7.40s CPU      7.31s WALL (      33 calls)
     mix_rho      :      1.66s CPU      1.57s WALL (      32 calls)

     Called by c_bands:
     init_us_2    :      2.79s CPU      2.57s WALL (     132 calls)
     init_us_2:cp :      2.78s CPU      2.57s WALL (     132 calls)
     cegterg      :    770.49s CPU    556.16s WALL (      64 calls)

     Called by sum_band:
     sum_band:wei :      0.01s CPU      0.01s WALL (      32 calls)
     sum_band:loo :     57.52s CPU     48.93s WALL (      32 calls)
     sum_band:buf :      0.47s CPU      0.43s WALL (      64 calls)
     sum_band:ini :      1.33s CPU      1.21s WALL (      64 calls)
     sum_band:cal :     20.53s CPU     11.25s WALL (      64 calls)
     sum_band:bec :      0.11s CPU      0.09s WALL (      64 calls)
     addusdens    :      6.59s CPU      6.01s WALL (      32 calls)
                                        0.00s GPU  (      32 calls)
     addusd:skk   :      0.16s CPU      0.15s WALL (      64 calls)
                                        0.00s GPU  (      64 calls)

     Called by *egterg:
     cdiaghg      :     76.11s CPU     62.63s WALL (     519 calls)
     cegterg:over :     71.95s CPU     40.85s WALL (     455 calls)
     cegterg:upda :     48.70s CPU     27.43s WALL (     455 calls)
     cegterg:last :    110.32s CPU     61.74s WALL (     214 calls)
     cdiaghg:chol :      1.77s CPU      1.50s WALL (     519 calls)
     cdiaghg:inve :      1.07s CPU      0.74s WALL (     519 calls)
     cdiaghg:para :     10.71s CPU      7.81s WALL (    1038 calls)
     h_psi        :    374.52s CPU    312.93s WALL (     521 calls)
     s_psi        :     75.32s CPU     40.84s WALL (     521 calls)
     g_psi        :      1.53s CPU      1.27s WALL (     455 calls)

     Called by h_psi:
     h_psi:calbec :     76.03s CPU     42.42s WALL (     521 calls)
     vloc_psi     :    220.78s CPU    226.79s WALL (     521 calls)
     add_vuspsi   :     76.36s CPU     41.41s WALL (     521 calls)

     General routines
     calbec       :     99.18s CPU     55.11s WALL (     593 calls)
     fft          :      6.39s CPU      6.95s WALL (     438 calls)
     ffts         :      0.53s CPU      0.53s WALL (      65 calls)
     fftw         :    206.36s CPU    212.27s WALL (   83464 calls)
     interpolate  :      0.83s CPU      0.88s WALL (      33 calls)

     Parallel routines

     PWSCF        :  15m59.31s CPU  12m12.13s WALL


   This run was terminated on:  22:43:13  28Jul2025            

=------------------------------------------------------------------------------=
   JOB DONE.
=------------------------------------------------------------------------------=
Note: The following floating-point exceptions are signalling: IEEE_DENORMAL
Note: The following floating-point exceptions are signalling: IEEE_DENORMAL
Note: The following floating-point exceptions are signalling: IEEE_DENORMAL
Note: The following floating-point exceptions are signalling: IEEE_INVALID_FLAG
Note: The following floating-point exceptions are signalling: IEEE_INVALID_FLAG
Note: The following floating-point exceptions are signalling: IEEE_INVALID_FLAG
Note: The following floating-point exceptions are signalling: IEEE_DENORMAL
Note: The following floating-point exceptions are signalling: IEEE_INVALID_FLAG
Note: The following floating-point exceptions are signalling: IEEE_DENORMAL
Note: The following floating-point exceptions are signalling: IEEE_DENORMAL
Note: The following floating-point exceptions are signalling: IEEE_DENORMAL
Note: The following floating-point exceptions are signalling: IEEE_INVALID_FLAG
Note: The following floating-point exceptions are signalling: IEEE_INVALID_FLAG
Note: The following floating-point exceptions are signalling: IEEE_INVALID_FLAG
Note: The following floating-point exceptions are signalling: IEEE_INVALID_FLAG
Note: The following floating-point exceptions are signalling: IEEE_DENORMAL
